
121207  0.0000000e+00
  55.6199121  39.8837328  86.6687584  55.0589800  39.7278500  87.4940777
  55.8188248  39.0343022  86.1598301  55.1669312  40.5423355  86.0513783
  56.9343376  40.4240561  87.0833874  56.7895269  41.3328028  87.6676178
  57.7016592  39.5027828  88.0895996  57.9840469  38.6249065  87.5084877
  58.5983229  40.0474167  88.3853436  56.8881845  39.0070653  89.2687607
  55.7017565  39.3251181  89.3771744  57.5411940  38.3635426  90.0959492
  57.8210974  40.7973528  85.9069920  57.8589106  39.9933124  84.9904823
  58.6760759  41.8091726  86.1278439  58.4747744  42.4206114  86.9061279
  59.7368050  42.3019838  85.2633095  59.3338585  42.4318314  84.2588806
  60.3355837  43.5858393  85.7645893  61.0771370  44.0520859  85.1158905
  59.2655516  44.6393013  85.9888554  58.5593367  44.7279835  85.1633263
  58.6547279  44.4208050  86.8647861  59.7620916  45.5975294  86.1416340
  60.9407711  43.4024906  86.9858265  61.4513731  44.1971588  87.1572399
  60.8675575  41.3102961  84.9991417  61.8929243  41.6654873  84.3624687
  60.7044172  40.0788069  85.5144596  59.7834396  39.7563028  85.7750130
  61.7332458  39.0079713  85.3234291  62.6500511  39.4416261  85.7228279
  61.3478804  37.7349639  86.0412979  61.9447899  36.8411446  85.8599567
  61.4218473  37.9332805  87.1105576  60.0731897  37.4097824  85.5628204
  59.6923065  36.8019223  86.2008095  61.9216394  38.7731838  83.7985516
  63.0433416  38.8066483  83.2736015  60.8450460  38.4546185  83.0754948
  59.9337626  38.3301497  83.4928322  60.8734608  38.0994248  81.6983414
  61.6567659  37.3443222  81.6324139  59.6032619  37.5172877  81.1450768
  59.0044975  38.3799386  80.8528233  59.8142099  37.0741224  80.1718330
  58.7513065  36.6025996  81.9132519  58.4499693  37.2064161  82.7692318
  57.5756931  36.1442637  81.1443424  57.7633762  35.9105396  80.0963688
  57.1514368  35.2370787  81.5746021  56.8663788  36.9717503  81.1598778
  59.5650148  35.3655505  82.2667789  58.9704800  34.4955754  82.5456810
  60.0707579  35.0539875  81.3528633  60.3281927  35.4786563  83.0367661
  61.5636826  39.1448760  80.8177090  62.4922323  38.7554955  80.1180935
  61.2071991  40.4526854  80.9216595  59.8234606  40.9664583  81.2925339
  59.7578287  40.9605742  82.3805332  58.9787388  40.3609180  80.9640980
  59.7836494  42.4393511  80.9854412  59.5189238  43.0524921  81.8468857
  59.0428543  42.7204323  80.2369022  61.1991739  42.8322315  80.6629086
  61.6588688  43.1395531  81.6022301  61.2468576  43.5864782  79.8774576
  61.8895292  41.5081120  80.2443600  61.8257236  41.4224195  79.1596079
  63.4121513  41.4989805  80.5929947  64.2376423  41.4279366  79.6640015
  63.8040733  41.4787722  81.8999958  63.1080770  41.7088842  82.5947952
  65.1648283  41.2567520  82.4645329  65.7885647  42.1313000  82.2795200
  65.0075436  41.1400986  84.0341663  64.3743277  40.3009176  84.3221188
  66.4353561  41.0554409  84.6500683  66.4336157  41.0043573  85.7388687
  66.9742632  40.1520205  84.3645763  66.9784212  41.9604540  84.3777847
  64.4366932  42.2785616  84.6775627  63.5212040  42.0035267  84.7660923
  65.9883308  40.0927258  81.8111515  67.2078991  40.1223183  81.7547989
  65.2734566  39.1013551  81.2720490  64.2642784  39.1344881  81.2482738
  65.9871101  37.9583931  80.6438923  66.9843960  37.8627110  81.0732651
  65.2516651  36.6278815  80.9732628  65.9668589  35.8631516  80.6702900
  65.2135420  36.5796566  82.0615292  64.0106440  36.3866162  80.4135513
  63.4523344  37.1216655  80.6773663  66.0509014  38.1289673  79.0737247
  66.6542673  37.2525454  78.4587479  65.3758335  39.1046143  78.4421301
  64.8984861  39.8240471  78.9662075  65.1439810  39.1689634  76.9649458
  64.4217014  39.9623156  76.7725754  66.4050436  39.6139550  76.1969328
  67.2830534  39.0335393  76.4803457  66.2721252  39.5306730  75.1182747
  66.9062281  40.9706926  76.5011597  66.4200544  42.1472931  75.9216166
  66.9375801  43.1772709  76.6084671  66.7708111  44.2286873  76.4264631
  67.7178001  42.7336931  77.6147032  68.1107426  43.3549690  78.3073139
  67.5889206  41.3088560  77.6435661  67.9576254  40.6101561  78.3799601
  64.4732285  37.9121542  76.4426184  64.8919725  37.3766971  75.4301929
  63.3234406  37.4529457  76.9373274  62.9915953  37.9834318  77.7301502
  62.8378487  36.1211371  76.5829468  63.6821604  35.4341674  76.5254641
  61.8331385  35.5319333  77.5312662  62.2147274  35.5837584  78.5509777
  60.4491854  36.2479448  77.4530172  60.1277399  36.2559962  76.4115238
  59.7238159  35.7553673  78.1005621  60.5110312  37.2544265  77.8668690
  61.6391516  34.1672134  77.2320032  62.4987745  33.7755322  77.4030066
  62.4091721  36.1353040  75.0991964  62.1899319  35.0695252  74.5191765
  62.2026539  37.2355461  74.4118738  62.6637411  38.0714202  74.7417450
  61.7470169  37.2447848  73.0195141  60.7525301  36.8163037  72.8949690
  61.5489578  38.6753201  72.5558281  61.1456442  38.6152148  71.5449715
  60.7418203  39.0811491  73.1656981  62.7077913  39.5336604  72.6749086
  62.8309870  40.2949572  73.8247108  62.1120024  40.1791143  74.6222353
  63.9113808  41.2609673  73.8478947  63.9136505  41.8914604  74.7247505
  64.8643064  41.2878561  72.8320694  65.7965422  42.2555828  72.8865814
  66.1406183  42.1842051  73.7799549  64.7530699  40.4193401  71.6985321
  65.4421616  40.6393719  70.8965683  63.6884928  39.5255160  71.6181183
  63.5586452  38.8994956  70.7476950  62.5933170  36.3645387  72.0955086
  62.1108055  35.8124995  71.1192799  63.9115715  36.3250208  72.3667717
  64.2500830  36.9451165  73.0885744  64.9197102  35.6137872  71.6032600
  64.6341848  35.8141899  70.5705881  66.3263178  36.1117601  71.8474007
  66.4490080  36.0636640  72.9294062  66.9580793  35.2853274  71.5218449
  66.8908167  37.4159265  71.3198996  66.4862299  38.3187914  71.7773294
  68.3188725  37.5028634  71.7566442  68.9107656  38.2989335  71.3049459
  68.4582138  37.3064351  72.8197050  68.8672686  36.6537237  71.3488197
  66.7023277  37.5788951  69.7974396  65.7809401  38.0839157  69.5074368
  67.5340223  38.1606150  69.3999672  66.7819452  36.6114736  69.3016052
  64.8138762  34.0627718  71.8136835  65.1852465  33.3007717  70.9559965
  64.4276810  33.6216211  73.0358076  64.0779066  34.2697334  73.7269735
  64.3828106  32.2536445  73.4716654  63.9054203  32.2187996  74.4509411
  63.7540913  31.6447330  72.8220129  65.7759857  31.5960217  73.5315943
  65.9937191  30.5454230  72.8840399  66.7293930  32.2408104  74.2197084
  66.4986467  33.1645036  74.5568275  68.0644417  31.8492866  74.4120646
  68.3736324  31.2060213  73.5882235  69.0076971  33.1010222  74.3052340
  70.0054264  32.7136660  74.5116234  68.8965034  33.5445642  73.3157825
  68.6881924  33.8248396  75.0549698  68.0887413  31.0026550  75.7101154
  68.1563759  31.6519594  76.7369032  68.1606293  29.6986341  75.5949020
  68.1092739  29.2730451  74.6803856  68.6258173  28.7822342  76.6948557
  69.3639421  29.3203950  77.2895479  67.4766636  28.6514473  77.7220678
  67.8114033  28.0452561  78.5638380  67.2284651  29.6284986  78.1366396
  66.2232351  27.9853439  77.1289206  66.2521029  27.4213529  75.9920359
  65.0988913  28.0670071  77.7519417  69.3029642  27.4959278  76.2952185
  69.6660423  26.6989517  77.1825647  69.5218515  27.2207260  75.0427628
  69.1337967  27.9362178  74.4447756  70.1313543  26.1480975  74.3823910
  69.4865847  25.2745724  74.4789505  70.1572752  26.4326811  72.8746986
  69.1663551  26.7393970  72.5398874  70.8776331  27.2330046  72.7053738
  70.5224562  25.1513100  72.1464634  71.4773035  24.8236489  72.5575733
  69.7733164  24.4471121  72.5083923  70.6573439  25.3037095  70.4019403
  70.1365709  23.6164808  69.9696732  70.4266405  23.2747102  68.9761162
  70.5378199  22.9247618  70.7103682  69.0481567  23.5970569  70.0250673
  71.6444063  25.8550930  75.0073719  72.0070648  24.7801208  75.4386950
  72.5267172  26.8184638  74.9053192  72.2512674  27.5813103  74.3034077
  73.7345505  26.8448830  75.7860422  73.7356281  25.9575605  76.4191008
  74.9874687  26.8868899  74.8967552  74.8209333  26.2532759  74.0256071
  75.2881193  27.8639269  74.5184612  76.2875509  26.4624047  75.6000376
  77.1780634  26.6730905  75.0078344  76.4432192  27.1115875  76.4616776
  76.3259029  24.9621272  75.8727646  75.6052256  24.5141029  76.8020153
  77.0961237  24.2410350  75.2190018  73.6952162  27.9827666  76.7605257
  73.3681059  29.1536784  76.4277363  74.0145159  27.7204347  78.0605316
  74.2694330  26.7567825  78.2233047  74.0990019  28.6935139  79.1681862
  74.0756845  29.6887946  78.7243700  72.8439617  28.5780859  80.0069237
  72.5349236  27.5329566  80.0241852  73.0648327  28.8857865  81.0290051
  71.6394901  29.4489431  79.4756794  71.8972635  30.5076551  79.5036745
  71.3669872  29.2465997  78.4398699  70.3333473  29.2811322  80.3533840
  69.5516634  30.2612495  80.5242825  70.0598240  28.1831241  80.8640575
  75.3355122  28.6625290  80.0496864  75.9439754  27.6233101  80.2530384
  75.7386637  29.8373628  80.5599976  75.0674295  30.5740023  80.3959560
  76.9211626  30.2268553  81.3250637  77.3414755  29.2943215  81.7016602
  78.0295134  30.8024406  80.3508949  77.7310610  31.8160939  80.0834370
  78.8586473  30.8806872  81.0541058  78.4221935  29.9267364  79.1960526
  78.3945036  30.4928255  77.9172993  77.9359293  31.4645505  77.8083754
  78.8423586  29.7335172  76.8288326  78.6830854  30.1526117  75.8462906
  79.4363785  28.4726071  77.0267630  79.8192739  27.9476380  76.1640882
  79.4876289  27.9183793  78.3383512  79.8987913  26.9447613  78.5606480
  79.0085840  28.6665392  79.4218683  78.9706182  28.2145715  80.4020119
  76.5427160  31.1455345  82.5073910  75.7436037  32.0609784  82.2869873
  77.1101761  30.8290339  83.6859989  77.7513838  30.0486994  83.6795712
  76.7390251  31.4785695  84.9536133  75.9027863  32.1407294  84.7292233
  76.1882305  30.3652120  85.8324146  76.9563055  29.5930099  85.8756161
  75.9122849  30.7587457  86.8107224  74.9572468  29.8239303  85.1889801
  73.6866808  30.4744077  85.1491737  72.8971767  29.6171260  84.5391655
  71.9111156  29.8927546  84.1954899  73.5336542  28.4632683  84.2440128
  73.1760693  27.7123094  83.6710453  74.8142862  28.6036491  84.6345997
  75.5970621  27.8797913  84.4622803  77.8246498  32.2797084  85.6172657
  77.4905586  33.1626225  86.4158440  79.0744972  31.9225359  85.4574680
  79.3141842  31.1116385  84.9051094  80.2437305  32.5353622  86.0506058
  80.0179291  32.7229166  87.1003342  81.1032677  31.8657470  86.0810375
  80.7271194  33.8389087  85.3994083  79.8692656  34.5014048  84.7418118
  82.0195675  34.1385555  85.4059219  82.7146435  33.5375690  85.8251858
  82.4747372  35.4493260  85.0059795  81.9400406  35.9459615  84.1963196
  82.1980953  36.3170385  86.2378120  81.1237907  36.3932323  86.4056778
  82.7166557  35.8983517  87.1003056  82.6436996  37.7677655  86.1113834
  83.7145042  37.8814363  85.9423542  82.2056389  38.2606554  85.2434731
  82.3557758  38.5671711  87.4002743  82.3910999  37.7884007  88.1620979
  83.1075287  39.3441534  87.5391006  80.9308243  38.9560938  87.4613571
  80.2746010  38.2727575  87.8113937  80.3871918  40.1682234  87.3511600
  79.0707350  40.1979399  87.2821522  78.4667826  39.4712162  87.6388264
  78.7434530  41.1532116  87.3032284  80.9986877  41.2960148  87.1680737
  81.9714546  41.4195108  87.4101067  80.3626633  42.0732355  87.0608902
  83.9946079  35.4690003  84.6168232  84.8456860  34.9938512  85.3659630
  84.2338181  36.1107659  83.4361172  83.4766293  36.2950730  82.7936268
  85.6154251  36.4275408  82.9324436  86.2573433  35.5969572  83.2259846
  85.6478500  36.5679002  81.3925838  84.8706913  37.3009253  81.1762524
  86.8381310  37.2552228  80.7440662  86.9505405  36.9311190  79.7094584
  86.7315865  38.3395243  80.7763958  87.6748180  37.0415211  81.4091873
  85.3536034  35.3860545  80.7703114  85.1204491  35.6729984  79.8843670
  86.1254883  37.6444578  83.7087440  85.5436325  38.8023472  83.7278366
  87.1974945  37.4789619  84.4467449  87.6615238  36.5846539  84.3761349
  87.8773499  38.4712315  85.3368568  87.3419285  39.4198656  85.2977657
  87.9513454  37.8448176  86.7693329  88.5586071  36.9432664  86.6884518
  88.5830784  38.4660053  87.4042702  86.6591358  37.4417424  87.5190449
  86.0166550  36.8723774  86.8473625  86.7641449  36.5245056  88.7875080
  87.0827675  35.5444121  88.4325409  87.5814056  37.0250273  89.3068027
  85.9014606  36.5189600  89.4537258  85.9943485  38.6858964  87.9601097
  86.5924263  39.3267679  88.6079502  85.7237911  39.2818499  87.0884800
  85.0873089  38.4015894  88.4935474  89.3076611  38.7307239  84.8487568
  90.1559448  37.8973007  84.9336433  89.5164394  39.8886466  84.2227364
  88.6898422  40.4420233  84.0477943  90.7483292  40.3847170  83.6464691
  91.4890385  39.5917940  83.7500858  90.6026840  40.7433701  82.2030830
  89.7974300  41.4758539  82.1472073  91.5488338  41.1532593  81.8496704
  90.3441906  39.5938373  81.2018013  91.1288452  38.4703159  80.8661556
  90.4914951  37.8744030  79.8218155  90.9038925  36.9470024  79.4526863
  89.4893932  38.5574913  79.3391132  88.8390923  38.3374763  78.5982943
  89.4063473  39.6299195  80.2089596  88.5915661  40.3369236  80.2607441
  91.2556553  41.6261148  84.3618679  90.5469704  42.5891542  84.5779705
  92.5147533  41.5169334  84.8522091  93.1415844  40.7684326  84.5934963
  93.2822037  42.5553989  85.5454159  92.6168537  42.9360914  86.3203239
  94.5600510  42.0101500  86.2102127  95.0609016  41.4237499  85.4399014
  95.1896381  42.8412580  86.5279770  94.4987774  40.9996796  87.4123478
  93.3780384  40.6670523  87.8152943  95.5921078  40.6833076  87.8663635
  93.5250282  43.7826061  84.6644211  93.9609432  43.6893654  83.4993076
  93.3422947  44.9574280  85.3012848  93.0735874  45.0062943  86.2736511
  93.9135647  46.2779522  84.7999573  93.3543205  46.5196228  83.8961029
  93.6909866  47.5247669  85.5628777  94.2687988  48.3673000  85.1829147
  92.6215076  47.7088928  85.4608822  93.9451218  47.3025084  87.0873070
  94.7381306  48.0918264  87.6879311  93.5067558  46.2815952  87.7583504
  95.4186153  46.2056828  84.5177555  96.2244129  45.7291508  85.3405952
  95.7871914  46.7330742  83.3173752  95.1000214  47.1632004  82.7149677
  97.1094894  46.8260574  82.7617550  96.9576836  47.5851393  81.9943905
  98.2804966  47.3313046  83.6792564  98.7459850  46.4581585  84.1364574
  99.0947151  47.7595282  83.0946350  97.7713013  48.3285284  84.7329903
  96.9058323  49.2084646  84.4595528  98.4024334  48.3913660  85.8392620
  97.5601387  45.5207348  82.0471954  98.6865616  45.4344463  81.5367603
  96.5838242  44.5988226  82.0075893  95.8159828  44.6184635  82.6634407
  96.6961002  43.4678650  81.1140537  97.6266193  42.9834652  81.4100075
  95.7029533  42.3319054  81.3579273  94.7036362  42.6640749  81.0766315
  95.8366776  41.4642191  80.7119179  95.5404758  41.8841696  82.6949692
  94.9246502  42.5046873  83.0916023  96.6057682  43.8977289  79.6089077
  95.5612755  44.4057226  79.1627407  97.6206493  43.6530447  78.7623119
  98.4067917  43.1900311  79.1955471  97.5415039  43.8196135  77.2601938
  96.9362640  44.6766043  76.9646263  98.8672829  44.1067171  76.5672827
  99.6196747  43.3631468  76.8301725  98.7091732  44.1800165  75.0186729
  98.0355072  44.9895191  74.7376299  99.6605015  44.3681240  74.5209789
  98.2281780  43.3356380  74.5249510  99.3672752  45.4283714  77.1403456
  98.5583878  46.1464119  77.0053911  99.6222878  45.2781153  78.1893873
 100.5948734  46.1083269  76.5309429 100.8833790  46.9835138  77.1130943
 101.4833355  45.4774332  76.5572929 100.3266621  46.5814066  75.5862951
  96.9638348  42.5338078  76.7270708  97.4134636  41.4802122  77.1463871
  95.9665775  42.6299238  75.8585072  95.7610607  43.5215616  75.4308939
  95.1330185  41.5336895  75.2273464  95.6725121  40.6443644  74.9015522
  93.9358807  41.2886143  76.0854435  93.4638405  42.2531462  76.2724113
  93.3008480  40.5701685  75.5671024  94.4227409  40.5702066  77.3716116
  95.1654148  39.8137832  77.1179342  94.9258041  41.3098717  77.9944468
  93.2517242  39.9185491  78.1425142  92.3532581  39.3614697  77.5412226
  93.3068371  39.8219633  79.4513845  92.5151539  39.5204687  80.0013256
  94.1581249  40.1358557  79.8951006  94.6749878  41.9976377  73.8464069
  94.7896290  43.1075811  73.3775282  94.0110397  41.0670948  73.1339931
  93.7703705  40.1900768  73.5733318  93.6225224  41.1062288  71.7197561
  93.5568619  42.1507406  71.4151382  94.5727634  40.3517151  70.7679844
  93.9513874  40.0483656  69.9253798  95.6030083  41.3307190  70.1554966
  95.1934242  42.0453310  69.4415808  96.1080074  41.9644070  70.8845472
  96.2223434  40.7185459  69.4999313  95.3220654  39.1741538  71.4082098
  95.8782864  38.5970449  70.6695223  96.0011768  39.5736051  72.1614313
  94.5570087  38.5362625  71.8508005  92.2692299  40.4159546  71.5541458
  92.0690632  39.2507815  71.8330002  91.2250996  41.0958815  71.0577726
  91.2677383  42.0556164  70.7460165  89.8086262  40.6102753  71.2124157
  89.8569584  39.5263982  71.3171864  89.2139816  41.1102819  72.6059198
  89.0694237  42.1837950  72.4843693  87.8412247  40.4295731  72.7627468
  87.8388500  39.3412542  72.8232002  87.2839451  40.8636522  73.5928774
  87.2113895  40.6396914  71.8983030  90.1323509  40.9382486  73.8454485
  90.2099228  39.8626423  74.0040588  91.1219788  41.2892675  73.5530090
  89.6221447  41.6890383  75.0692320  90.3066158  41.3749313  75.8572245
  89.6099567  42.7655840  74.8989344  88.7027359  41.2519979  75.4588366
  88.9655685  41.0205173  69.9942303  89.0681648  42.2096920  69.6773005
  88.2688332  40.0948286  69.3187761  88.2089138  38.6460185  69.6323013
  88.1777954  38.5701942  70.7192183  89.1494751  38.2134962  69.2911816
  86.9831944  38.1523967  68.9508533  86.0674763  38.3239317  69.5166588
  86.9421864  37.0860147  68.7289095  87.0673561  38.9612365  67.6348686
  86.1039352  38.8206387  67.1448088  87.9367065  38.5508990  67.1211052
  87.3412800  40.3067732  68.1510353  87.8736115  40.8372211  67.3615122
  86.0468674  41.1234426  68.4611750  85.4893112  41.1770582  69.5642996
  85.5402470  41.8531132  67.3895884  85.9139729  41.7475319  66.4572382
  84.5199871  42.8616333  67.5185156  83.9685917  42.6195621  68.4270668
  85.0836563  44.3125296  67.5832415  85.5558014  44.4796705  66.6151285
  83.9433956  45.3055048  67.7778006  84.3102932  46.3316393  67.7545929
  83.2730675  45.3062153  66.9182920  83.4203053  45.2384615  68.7317324
  86.2229443  44.4569492  68.6325693  86.1708260  45.4624081  69.0502310
  85.9694862  43.7847233  69.4523048  87.2182655  44.3075371  68.2140923
  83.5448647  42.6981211  66.3509798  83.9845181  42.7765465  65.1655531
  82.3315430  42.3181009  66.6605759  82.0709515  42.1598625  67.6234627
  81.3223743  42.0328283  65.6971121  81.7465210  41.2367535  65.0851727
  80.0382900  41.4373684  66.3305235  79.8226690  41.9615698  67.2615576
  79.2103434  41.4111090  65.6220675  80.2788353  39.9911976  66.7219067
  81.3265610  39.9019694  67.0089722  79.4030428  39.5829296  67.8655052
  79.4478512  40.2360725  68.7369967  78.3691406  39.6170902  67.5220156
  79.6776438  38.5858655  68.2098341  80.0163555  39.0484738  65.5303335
  80.0792408  37.9828000  65.7505274  79.0309095  39.2526865  65.1116705
  80.6968689  39.3027520  64.7177219  80.9045887  43.3011818  64.8573399
  80.6171608  44.3692684  65.4283714  80.9196091  43.2319450  63.5067320
  81.6363049  42.1640587  62.7721930  80.9942436  41.2832403  62.7679777
  82.6419353  41.9320250  63.1228542  81.6183090  42.5688362  61.3096571
  81.5877914  41.7609978  60.5785131  82.5184250  43.1658363  61.1631346
  80.5081844  43.4848547  61.1085701  79.6031570  42.8942919  60.9662342
  80.7651520  44.2805433  60.4093170  80.4108715  44.1910934  62.5147867
  81.0475636  45.0665903  62.6421690  78.9576483  44.5842457  62.9362154
  78.6089373  45.7515335  62.7874374  78.0973101  43.6737394  63.4167051
  78.4056950  42.7120256  63.4270287  76.6623926  43.8958979  63.6630869
  76.2712479  44.2373610  62.7047014  75.9806633  42.4694586  63.9316893
  76.1781120  41.7859459  63.1059027  76.4095116  42.0368147  64.8355770
  74.4696569  42.6163721  64.1373301  74.0439129  41.6637373  64.4524956
  74.1617537  43.2945967  64.9331379  73.6572170  43.0477715  62.9532051
  74.1405201  43.2852268  61.8716288  72.3647690  43.1030655  63.0220032
  71.9441271  43.4203672  62.1603298  71.8526602  43.1748390  63.8895845
  76.3914967  44.9310637  64.8052311  75.3098011  45.4624701  64.9325991
  77.3737860  45.2380562  65.6706190  78.2379627  44.7282743  65.5547428
  77.2465563  46.0775614  66.8580151  76.2425375  46.0292912  67.2795868
  78.1863832  45.5193090  67.9842615  79.2309570  45.5497456  67.6743555
  78.0913019  46.3713026  69.3013525  78.5047483  47.3798466  69.3015957
  77.0795631  46.3468981  69.7061872  78.6324501  45.8666515  70.1017189
  77.7375221  44.1248846  68.3043575  77.9885197  43.4295034  67.5033903
  78.2787180  43.8135529  69.1978264  76.6793489  44.0861797  68.5629559
  77.5468445  47.5764799  66.5997601  78.6635113  47.9901409  66.4106131
  76.4598322  48.3469486  66.7233849  75.5742216  47.8790474  66.8532562
  76.5384150  49.8205709  66.6920137  77.4790573  50.0566912  66.1944771
  75.4546547  50.4697752  65.7899094  74.5289803  50.1998091  66.2981892
  75.4390526  51.5577459  65.8545732  75.5822897  50.1001549  64.2796421
  75.1595020  49.0995216  64.1897249  74.9517393  50.7086658  63.6313963
  77.1987200  50.0215149  63.5880518  76.8435907  49.6051836  61.8889141
  76.0863638  48.8215160  61.8649054  76.4431190  50.4999113  61.4122772
  77.6547098  49.1549969  61.3166237  76.4136457  50.4369068  68.1340981
  77.1962261  51.3182640  68.4964991  75.3826237  49.9583960  68.9089346
  74.7732210  49.2550230  68.5165024  75.1073885  50.3862810  70.3482962
  74.6798420  51.3887405  70.3286743  73.9622402  49.4900703  70.7762718
  73.1622124  49.6834517  70.0616741  74.2612076  48.4456015  70.6879044
  73.4780359  49.6554136  72.3129654  73.6769438  50.6990147  72.5567579
  72.4178219  49.4063139  72.2682619  74.4129944  48.8216019  73.5616016
  73.6631012  49.6567822  74.9823713  73.7983227  50.7346821  74.8931789
  72.5943756  49.4451189  75.0158787  74.3319368  49.4826651  75.8252478
  76.3465405  50.1768637  71.2377882  76.9513893  49.0915203  71.4075565
  76.6836309  51.2999964  71.8959427  76.2134886  52.1463394  71.6082430
  77.7665615  51.3917208  72.8322840  78.5984230  50.8237791  72.4156809
  78.3305073  52.8205299  72.9530334  77.5421047  53.5179424  73.2361221
  79.4310665  52.8845215  74.0146446  79.0391350  52.6302242  74.9994373
  80.2431202  52.1848631  73.8167763  79.8598814  53.8854313  73.9655685
  79.0051699  53.1855869  71.6604948  79.6942282  52.4105263  71.3249636
  78.2173157  53.2445383  70.9095526  79.4779730  54.6377563  71.4512682
  79.6167850  54.8969650  70.4016781  78.7239933  55.2434969  71.9539595
  80.4669476  54.6632814  71.9088554  77.3939276  50.6266737  74.1879320
  76.6563272  51.1602926  75.0079155  77.9796839  49.4860601  74.3643093
  78.4677219  49.1069841  73.5654211  77.8733349  48.6103392  75.4949188
  76.8304825  48.4845448  75.7860184  78.3387852  47.1867180  75.1222134
  77.4748516  46.9016218  74.5218468  79.2200756  47.2444677  74.4833994
  78.5085917  46.2360334  76.2779331  79.2991924  46.6806030  76.8824244
  77.2108459  46.0592937  77.1652508  77.2957945  45.2679253  77.9099798
  77.0887613  46.9462919  77.7868843  76.2789488  45.9484911  76.6108227
  78.9105177  44.8988867  75.6294012  78.7200499  44.0858555  76.3299751
  78.3196259  44.7793818  74.7212887  79.9404860  44.9121952  75.2729034
  78.7294006  49.2118168  76.6854715  79.8635721  48.9233208  76.7229795
  78.0687237  49.9331713  77.6230431  77.0667315  49.9943829  77.5118542
  78.6935711  50.3851128  78.8634968  79.7205257  50.6682539  78.6326313
  77.8618050  51.6452074  79.2446995  76.7979002  51.4081192  79.2440748
  78.1849623  52.2642326  80.5513096  79.0778875  52.8781796  80.6690216
  77.3626471  52.8329659  80.9854126  78.4086609  51.4624453  81.2550163
  78.1180668  52.8622341  78.3057404  77.9863977  52.4956512  77.2877121
  77.3381805  53.5662413  78.5959959  79.0889359  53.3401775  78.4364462
  78.6974049  49.2034149  79.7912455  77.6823616  48.4629631  79.7620583
  79.6974421  48.9268351  80.6971836  80.9792137  49.6357489  80.7192516
  80.9015179  50.5977964  81.2257481  81.3377285  49.7054338  79.6922636
  81.8679619  48.7659645  81.6326141  82.3635387  49.4370604  82.3341370
  82.5949192  48.2184315  81.0327435  80.9564877  47.7552414  82.3799610
  80.7279110  48.1899166  83.3530521  81.3940048  46.7607546  82.4675941
  79.7096348  47.7025747  81.5330982  79.7227573  46.8453598  80.8599567
  78.4355640  47.5228262  82.3959446  77.7567720  48.4856367  82.7435398
  78.0906153  46.2382460  82.6794243  78.7085485  45.5266142  82.3163414
  77.0661688  45.9719706  83.6818695  77.2740221  44.9664879  84.0478039
  76.9803619  46.7262983  84.4639969  75.6730366  45.8076954  83.0634689
  74.7885084  45.5346012  83.8895130  75.4457331  46.0593224  81.7499256
  76.2529230  46.2479544  81.1728954  74.0357733  45.9242249  81.1556053
  73.3591127  45.5617380  81.9294453  73.5620022  47.3051834  80.6071663
  73.4010029  48.0295134  81.4056110  74.1165590  47.8493929  79.8426962
  72.1666479  47.1511984  79.9564505  72.2270584  46.6465998  78.9921761
  71.4719915  46.5407276  80.5334091  71.5113544  48.4993362  79.5754433
  71.6460466  48.9636469  78.4190178  70.8189106  49.0668392  80.5159855
  70.1783752  49.7354698  80.1125526  70.6582069  48.6008358  81.3975239
  74.0614748  44.8503590  79.9235916  74.8888254  44.9397707  79.0717363
  73.1446648  43.8568258  79.8792839  72.4528790  44.0398312  80.5920506
  72.9526520  42.9589033  78.7551737  73.7547159  42.2249031  78.6773872
  71.7316246  42.0299196  79.0248823  70.8603144  42.6628780  79.1930723
  71.4462137  41.2756968  77.7417278  72.2983837  40.7019424  77.3774195
  70.6087589  40.6212568  77.9835510  71.0546446  41.8541527  76.9049740
  71.9700956  41.1368370  80.1225567  71.7141390  41.5989876  80.9241199
  72.7283239  43.7439442  77.4437141  71.7552757  44.4965219  77.3128748
  73.5099077  43.3036375  76.4775085  74.1005850  42.5138283  76.6952467
  73.3475733  43.6609173  75.0659180  72.5519562  44.3908548  74.9166203
  74.6927452  44.1125774  74.5099545  74.8293924  45.1321220  74.8704576
  75.3959703  43.4771013  75.0482321  74.7774792  44.0573597  72.9845858
  74.5152330  43.0621719  72.6255178  73.7490273  45.0012922  72.3217726
  73.5908556  45.8966351  72.9229689  73.9224672  45.0409937  71.2463903
  72.7699232  44.5226526  72.3029661  76.0999346  44.5517111  72.4174213
  76.8686104  43.8843584  72.8071260  76.0574055  44.5552731  71.3282537
  76.2575912  45.5710030  72.7699661  72.8703737  42.2977018  74.4226980
  73.6327171  41.3103342  74.4645500  71.6085911  42.1907997  73.8888311
  70.5810261  43.1870604  74.2088747  70.8060455  44.1538954  73.7586546
  70.5814314  43.4127140  75.2752590  69.2710924  42.6002884  73.7118435
  69.0966940  43.1147718  72.7668571  68.5157442  42.8690434  74.4503021
  69.5064735  41.1013031  73.6009979  68.9351082  40.6888628  72.7694130
  69.2768240  40.5065966  74.4851303  70.9821558  40.9632158  73.2946825
  71.3945103  40.0309134  73.6805391  71.2261724  41.1398172  71.7055655
  71.1178637  42.1814537  71.0686827  71.5921926  40.0431824  71.0478020
  71.6345644  39.1325355  71.4825773  72.0673561  39.9938965  69.6085930
  71.5996218  40.8489609  69.1205406  73.5947227  40.0673008  69.5580912
  74.0438509  39.3703914  70.2656984  73.9759541  39.6922278  68.6083078
  74.1173840  41.4675140  69.6821737  73.5732031  41.9909811  70.4682684
  75.5396175  41.5439510  70.0172377  76.0725689  40.9560919  69.2699146
  75.8912277  42.5743484  70.0696230  75.7743263  41.0989094  70.9841681
  73.9776087  42.3366117  68.3486986  74.4901657  41.9183016  67.4824381
  72.9637241  42.5523710  68.0116701  74.3517685  43.3481264  68.5066223
  71.5715265  38.8222098  68.7948847  71.2490416  37.7916384  69.3114710
  71.5171671  39.0473056  67.4952745  71.9378185  39.8738050  67.0952082
  71.1118317  38.0494642  66.5347052  71.1776400  37.0374203  66.9341230
  69.6401978  38.3502936  66.1677933  69.0980005  38.4490180  67.1082067
  69.4888115  39.3174982  65.6885195  69.0132332  37.2258162  65.3406525
  69.4528627  37.2131634  64.3433189  69.3018627  36.2490606  65.7289028
  67.4679422  37.2872186  65.2952433  66.7221928  37.6830363  66.1582708
  66.9322586  36.7278123  64.2940712  65.9270859  36.6598177  64.2225933
  67.5480652  36.3637638  63.5810900  72.0529318  38.2173538  65.3155613
  72.2634745  39.3468499  64.8233223  72.7026749  37.1129060  64.9058867
  72.5395679  36.2340522  65.3761148  73.6916494  37.0530581  63.8760519
  73.8111019  38.0049205  63.3585691  74.9758673  36.6188359  64.4060946
  74.9948597  35.6331849  64.8711014  75.6966972  36.4103174  63.6155033
  75.7836771  37.5290179  65.3647566  76.8032551  37.1443725  65.3896379
  75.7281017  39.0254569  65.1062393  75.8450985  39.2024589  64.0370893
  74.8191547  39.4768000  65.5039883  76.5549803  39.5627236  65.5706978
  75.1564312  37.3758006  66.8075132  74.1731930  37.8462672  66.8055916
  75.1074266  36.2917447  66.9100857  75.7868147  37.8129625  67.5818539
  73.3075857  36.0753083  62.7759361  72.8341961  34.9878812  62.9433680
  73.5318136  36.5620708  61.5726757  73.9691639  37.4681067  61.4836359
  73.0880213  35.9061074  60.3121710  72.6142263  34.9607921  60.5767393
  72.2052097  36.8900585  59.5625448  72.8525209  37.7380586  59.3389654
  71.9145441  36.3305998  58.6733770  71.0361624  37.4961972  60.3520966
  71.1852407  38.7099695  61.1199141  72.1411324  39.2094684  61.0635948
  70.1325321  39.3012857  61.8026209  70.2653646  40.2548361  62.2919989
  68.9068460  38.6027980  61.8392658  68.0407429  38.9342713  62.3927927
  68.6986256  37.4225473  61.0589933  67.7771330  36.8593168  61.0640049
  69.7609854  36.8633127  60.3272009  69.5925474  36.0071135  59.6908379
  74.2496109  35.5491638  59.3898392  74.1219568  34.7100639  58.4735107
  75.3428793  36.2919331  59.5134974  75.3324890  36.9069076  60.3146219
  76.4555502  36.4017415  58.6003876  76.1322880  36.3473129  57.5608492
  77.0932055  37.7811742  58.7538004  76.2676287  38.4884501  58.6745310
  77.4566698  37.8105021  59.7809935  78.1143904  38.0136585  57.6690626
  79.2824936  37.2902155  57.4313736  79.7818470  37.6839852  56.2615776
  80.8202839  37.5046062  56.0251808  79.0098763  38.7273502  55.8403397
  79.1433477  39.2550254  54.9895477  77.8864050  38.9215159  56.6541576
  77.0640373  39.6074557  56.5141869  77.4927044  35.3218913  58.8805628
  77.8035021  35.1449990  60.1033783  77.8800631  34.4363213  57.9252577
  77.5975943  34.5007205  56.5280008  77.7397346  35.5329466  56.2079954
  76.5812969  34.1208673  56.4233398  78.6725378  33.5481644  55.9355450
  79.6226788  34.0823269  55.9336710  78.3263063  33.1481934  54.9825239
  78.6917543  32.4593091  57.0106125  79.6007633  31.8597531  56.9622087
  77.8268242  31.8291306  56.8035555  78.5293341  33.2683516  58.2802868
  77.9013014  32.7364635  58.9949751  79.8338223  33.5563183  59.0139866
  80.0524330  32.9171562  60.0133133  80.6808949  34.3819976  58.5643339
  80.3423977  34.8265004  57.7229404  81.8186951  34.9252963  59.3243551
  82.5525665  34.1225052  59.3954849  82.5439453  36.0708308  58.6041832
  81.8370152  36.8872666  58.4566021  83.2440281  36.4013553  59.3714809
  83.2197762  35.7908845  57.3183060  83.5833359  34.7637987  57.3503065
  82.5039864  35.8146858  56.4966154  84.3094730  36.7625809  56.8891144
  84.1392136  37.9502678  56.8125677  85.4555130  36.2389565  56.5770912
  86.1851597  36.8279362  56.2018394  85.7139874  35.3293729  56.9319963
  81.4513779  35.3798747  60.7727385  82.2175217  35.0818133  61.7111111
  80.3694820  36.1164761  60.9942627  79.8083305  36.3205647  60.1796675
  79.9378633  36.4232397  62.3872042  80.7779312  36.8674612  62.9211187
  78.9191818  37.5637364  62.3758030  77.9979086  37.2189474  61.9062614
  78.6450434  37.7487469  63.4144163  79.3457508  38.9220738  61.7748880
  80.3022003  39.2112207  62.2104216  79.4931412  38.8437414  60.6977415
  78.3998394  40.1262808  62.0474243  77.5545979  40.3781652  61.1521578
  78.6139250  40.8554935  63.0571508  79.4727373  35.2527928  63.2793522
  79.8482847  35.0593185  64.4254732  78.5806704  34.4105339  62.7728462
  78.2364225  34.6547651  61.8552732  78.0914021  33.0928278  63.3367395
  77.6302338  33.3511448  64.2899942  77.0949221  32.3711562  62.4105120
  77.5199509  32.4835157  61.4130974  76.8774509  30.8606505  62.6571178
  76.0217428  30.4653335  62.1097565  77.7669430  30.3206801  62.3325682
  76.7349100  30.6946230  63.7249279  75.7590246  33.0566716  62.1811771
  75.2941132  32.4162126  61.4316654  75.1254511  33.1822824  63.0591917
  75.9388399  34.0816832  61.8569565  79.1501331  32.1317363  63.7359238
  79.1819620  31.7079520  64.8812962  80.1378822  32.0104003  62.7890491
  79.8938370  32.5037456  61.9422007  81.4637852  31.3936400  63.0174112
  81.2509346  30.3325224  63.1471300  82.3975754  31.5929008  61.8042040
  82.4514866  32.6664853  61.6236162  83.4321690  31.3187718  62.0105314
  81.8955040  30.9490609  60.6087208  81.0933113  31.3945150  60.3264904
  82.2424316  31.9024563  64.2565012  82.5166035  31.2292457  65.2681684
  82.5028229  33.2104373  64.1495562  82.3470020  33.6795831  63.2688046
  83.1126881  33.9173365  65.2571774  84.1310978  33.5339403  65.3200054
  83.2014179  35.4466105  64.9671507  83.6913872  35.5695534  64.0012741
  82.1839905  35.8367062  64.9396372  84.0096474  36.2804580  65.9127808
  84.1252232  35.7079601  66.8331003  85.0004387  36.4291477  65.4834557
  83.3794785  37.9116750  66.3505030  82.7194977  37.6457453  68.0035400
  83.5654163  37.5472140  68.6838436  81.9438934  38.3806324  68.2191181
  82.2295570  36.6723037  67.9818010  82.4149990  33.6931586  66.6502047
  83.0318546  33.1962132  67.5774431  81.1187649  33.9854670  66.6910219
  80.7050896  34.4534707  65.8973312  80.2779579  33.7859726  67.8388309
  80.6526661  34.4650459  68.6047029  78.8494587  34.2953730  67.6408052
  78.4887934  33.9014578  66.6906166  77.9829216  33.7955308  68.8056040
  77.7612877  32.7303410  68.7396049  78.5378122  33.9824462  69.7249794
  77.0628309  34.3799162  68.8003635  78.8932800  35.7898879  67.6946545
  78.0204391  36.2415218  67.2231865  78.9946747  36.1709809  68.7108183
  79.7888803  36.0996866  67.1561146  80.3124237  32.3117208  68.4978247
  80.4520035  32.1650314  69.7253180  80.2386665  31.3408184  67.5576830
  80.2999115  31.6462159  66.5969086  80.4192162  29.9006176  67.8571892
  79.7589922  29.5331097  68.6427784  80.1210308  29.0379357  66.6091776
  79.1200686  29.1770816  66.2007570  80.9029007  29.1367364  65.8561659
  80.1969433  27.5113058  66.9820404  81.1717796  27.1128321  67.2631264
  79.5593977  27.2398782  67.8234482  79.7145128  26.7437840  65.6940889
  80.0957108  27.1577740  64.7605991  80.0697327  25.7133651  65.7065344
  78.1757259  26.7395067  65.6222534  77.7552032  26.5291786  66.5161324
  77.4212170  26.8467379  64.5721674  77.8822231  27.1060920  63.3742857
  78.8729954  27.0739150  63.1808186  77.1913385  27.0974731  62.6376009
  76.1875200  26.7653227  64.6724415  75.7691956  26.6512942  65.5846405
  75.7304859  26.6582441  63.7781525  81.8051147  29.6008372  68.3905315
  81.9778156  28.6918259  69.2094612  82.8329849  30.3404379  67.9787016
  82.6162910  31.1956596  67.4870300  84.1605854  30.1085448  68.4842396
  84.2510605  29.0223289  68.4764624  85.2690697  30.7098508  67.6421547
  85.1172447  31.7529750  67.3647738  86.1165810  30.6220245  68.3219433
  85.5915737  29.9311900  66.3944340  86.5716267  29.2111707  66.2339497
  85.0303650  30.2827120  65.2381325  85.3884792  29.8333478  64.4075108
  84.2142677  30.8777428  65.2418852  84.2214394  30.4450774  70.0009298
  84.7632504  29.6003151  70.7074738  83.5768795  31.5354419  70.4412985
  83.0881691  32.1291590  69.7865009  83.4909058  31.8370938  71.8451023
  84.4868755  31.8463445  72.2878885  82.8180981  33.2126117  72.1113300
  81.7432117  33.0884504  71.9797802  82.9014397  33.4176779  73.1786156
  83.3971786  34.4332647  71.3905287  83.5131836  34.1811800  70.3364420
  82.4330139  35.6332469  71.4103317  82.6670742  36.3013268  70.5814838
  81.4356899  35.2348161  71.2240458  82.3985577  36.0773993  72.4051380
  84.7167110  34.8957801  71.9987965  85.5280495  34.2609334  71.6427040
  84.8856831  35.9402704  71.7368746  84.7839165  34.8219538  73.0842113
  82.8499794  30.8066320  72.7465487  83.1130505  30.7660675  73.9091063
  81.9216251  30.1153350  72.1006250  81.6785526  30.3114319  71.1401224
  81.1155891  29.0548229  72.8386974  80.6584644  29.4847608  73.7299252
  79.8931122  28.5963726  71.9367647  80.3266525  28.3321166  70.9722376
  79.2998457  27.2604752  72.5333166  80.0641537  26.4835978  72.5133610
  79.0086508  27.4046469  73.5737562  78.4884548  26.8837404  71.9105673
  78.8500643  29.6540475  71.7386150  79.3589211  30.5121827  71.2995577
  78.1159306  29.3116546  71.0092926  78.0484343  30.2822948  72.9592896
  77.4167728  31.0425282  72.4997759  77.4484730  29.5188141  73.4545135
  78.8155603  30.7350039  73.5875225  82.0415688  27.9215693  73.1797600
  82.0250607  27.3456264  74.2292595  82.9223156  27.6488924  72.2508955
  82.8491879  28.1098676  71.3552094  83.9937782  26.6209555  72.3991394
  83.5360146  25.8178711  72.9767418  84.3587971  26.0444665  71.0254526
  84.6317959  26.9009352  70.4089832  85.1678562  25.3161407  71.0807991
  83.1824112  25.3150320  70.2897930  82.6320648  24.6904945  70.9934759
  82.4585152  25.9730482  69.8090792  83.6368275  24.3858767  69.1803694
  84.4031715  24.7323823  68.2943010  83.0309772  23.2162595  69.0538073
  83.0151653  22.7068424  68.1818295  82.3093319  22.8988242  69.6851254
  85.2145290  27.0461345  73.3056450  85.8768749  26.2827134  74.0053511
  85.5570793  28.3558559  73.2860899  85.1904583  28.8021898  72.4575520
  86.6107273  28.9569092  74.1154194  87.2443199  28.1922746  74.5648575
  87.4248409  29.8284292  73.1823206  86.7760181  30.6248641  72.8178787
  88.2096577  30.3479576  73.7321091  88.1092167  29.0403295  72.1076965
  88.8431263  28.0984521  72.4632740  87.8768635  29.3938518  70.8811665
  88.3225250  28.8231993  70.1769972  87.5576687  30.3279233  70.6673384
  86.1031628  29.7444749  75.3302765  85.3257084  29.3007660  76.2105513
  86.5512276  30.9449863  75.5726099  87.0782185  31.3351536  74.8044014
  86.5015602  31.7261434  76.8758535  86.1902714  31.0064101  77.6329422
  87.9098606  32.1087742  77.4178553  88.3172131  33.0046225  76.9492149
  87.7274036  32.3194575  78.4716225  88.9419937  30.9086108  77.2964239
  88.7323093  29.8105979  77.9211521  89.8842144  31.0899258  76.5567780
  85.3675079  32.7822995  76.9283915  85.3660583  33.6162949  77.8368187
  84.3793869  32.6116109  76.0660028  84.5038700  31.8425202  75.4232740
  83.1275368  33.4041595  76.0494900  82.4284840  33.0868769  75.2756882
  82.3993397  33.1792951  77.4028730  82.8988171  33.6380863  78.2561827
  81.3992500  33.5982871  77.2916412  82.1741867  31.7703700  77.8307962
  81.6730690  31.3133764  76.9774866  83.0938148  31.2483001  78.0950451
  81.2015343  31.7287445  78.9959478  80.2944851  32.1221304  78.5370255
  80.9797955  30.6977177  79.2714739  81.5274620  32.4430847  80.2244949
  81.5296078  33.4528613  80.2455521  81.8121243  31.9049525  81.3528728
  81.8865299  30.5960560  81.4986324  81.7207336  29.9816847  80.7143116
  82.1429348  30.2216434  82.4009514  82.0241642  32.6855969  82.4095726
  81.8914413  33.6662745  82.2076797  82.3407841  32.3223305  83.2972050
  83.1223583  34.8971844  75.7536936  82.0466614  35.4528356  75.4509068
  84.2426777  35.6240153  75.7169390  85.1130581  35.1116252  75.7180214
  84.3347836  37.0443654  75.7199240  83.3249664  37.4468350  75.7998085
  85.2573776  37.4448943  76.7807961  86.2685204  37.0637059  76.6380262
  85.2688789  38.9485240  77.1196556  85.8317375  39.1884470  78.0217266
  85.7916641  39.3227315  76.2394428  84.2591286  39.2663693  77.3794079
  84.8529816  36.7528868  77.9701805  85.1603508  35.8516955  77.8477859
  84.8683357  37.5815058  74.3460178  86.0417843  37.3873448  74.0345716
  83.9940739  38.3041239  73.6200237  83.0985928  38.3993125  74.0773630
  84.3416977  39.3503046  72.6071215  85.2533531  39.0128279  72.1140718
  83.2787037  39.3233967  71.4523458  83.7867928  39.8008919  70.6145287
  83.1484890  38.2721043  71.1955786  81.9373894  39.9150109  71.6554499
  80.9216976  39.2229986  72.3193264  81.1298752  38.2306552  72.6912308
  79.5901871  39.7376513  72.1967363  78.7963295  39.1629267  72.6504755
  79.3075752  40.9864855  71.6367769  78.3271694  41.4211845  71.7642260
  80.3103447  41.6420317  70.9174013  80.1185036  42.5775528  70.4130173
  81.6205311  41.0781336  70.8777618  82.3929501  41.5068960  70.2565289
  84.5199776  40.7656050  73.2340336  84.7463989  40.9180784  74.4738960
  84.5271969  41.7547798  72.3833752  84.6415806  41.5826702  71.3947439
  84.7031021  43.1323910  72.7567863  84.3209934  43.3604145  73.7518215
  86.1888409  43.5038996  72.6106787  86.5708637  42.9156160  71.7763615
  86.2399578  44.5248318  72.2322702  86.7326736  43.2710934  73.5261822
  83.8637733  44.0622807  71.9033527  83.4781170  43.7513447  70.8005953
  83.6560535  45.2368498  72.4587250  83.9206505  45.3691339  73.4244347
  82.7282715  46.2571955  71.8784904  82.6756763  46.0812759  70.8040667
  81.2891960  46.2624454  72.4221230  81.3611412  46.2506580  73.5096836
  80.5321693  47.4530888  71.7532158  80.8866787  48.3364058  72.2844076
  80.7939911  47.5762892  70.7023287  79.4479036  47.3685503  71.8262291
  80.5792713  44.9785614  71.9828987  81.0360146  44.0675592  72.3696232
  79.5483923  44.8931646  72.3265553  80.6080341  44.9222803  70.8947277
  83.4159565  47.5994635  72.0979500  83.4707832  48.1420279  73.2095242
  83.8762569  48.2101297  71.0177803  83.7046146  47.8066683  70.1079130
  84.3452168  49.6712303  70.9702969  85.2511311  49.7049046  71.5755272
  84.9121761  50.0059557  69.6329165  84.0277863  50.2210569  69.0331793
  85.4999256  50.9027863  69.8287582  85.7784939  48.9348507  68.9457130
  85.1885128  48.0226707  68.8565207  86.2225342  49.4893742  67.6084900
  86.7589760  48.7131786  67.0627356  85.3398609  49.6287298  66.9843340
  86.7018032  50.4596996  67.7383995  86.9468021  48.6761332  69.8742580
  87.4983120  49.5886946  70.1004696  86.6457081  48.1466389  70.7781792
  87.5707817  47.9214334  69.3955231  83.2793713  50.6768322  71.3802671
  82.1443081  50.5414248  70.9162807  83.6615181  51.6698742  72.1059465
  84.6535969  51.7058182  72.2919321  82.8297424  52.8887939  72.4121714
  81.7935276  52.6070690  72.2251034  83.1621075  53.1975412  73.8770056
  84.1718197  52.8795099  74.1367006  83.0827618  54.2544603  74.1314220
  82.3888111  52.7952719  74.5314503  83.1259251  53.9668751  71.4369535
  83.9124870  54.8937702  71.7265081  82.5998020  53.6017370  70.2005339
  81.9875813  52.8006792  70.1406002  82.9303455  54.2904329  68.9344454
  83.8865471  53.9318991  68.5533428  81.8592644  53.9208221  67.9190016
  80.9028816  54.3337393  68.2398415  82.0620918  54.4053555  66.9639158
  81.7373371  52.4271488  67.8402662  82.6337910  51.7487240  67.0440245
  83.4582329  52.2640657  66.5737820  82.6313877  50.3854370  66.8756199
  83.3619690  49.8711872  66.2688255  81.6639328  49.6370459  67.5773239
  81.5333652  48.3340788  67.3696280  80.6014156  48.2008505  67.1816778
  80.5919743  50.2703571  68.2595587  79.6963072  49.7696781  68.5964489
  80.6773281  51.6651154  68.3816576  79.8864508  52.1501350  68.9345455
  83.0972767  55.8215809  69.0650415  82.1662712  56.4598942  69.3620443
  84.2483425  56.3150883  68.6394072  84.9372482  55.6013966  68.4492731
  84.5764542  57.6482677  68.2375383  84.1630745  58.2756996  69.0271854
  86.0746670  57.9957533  68.0550623  86.5662956  57.4896908  67.2242165
  86.0635090  59.0750027  67.9027700  86.7301655  57.7471828  69.2786312
  87.5823498  58.1891155  69.2878389  83.7796116  58.0682135  66.9793797
  83.3068371  59.2254019  66.8413496  83.6908054  57.0806217  66.0670519
  84.0154266  56.1533833  66.3014555  82.7316093  57.2525406  64.9101067
  81.8415260  57.7366638  65.3119421  83.3876133  58.1337166  63.7645102
  83.6327648  59.1473150  64.0817213  84.3411255  57.6767826  63.4996891
  82.5008583  58.2919979  62.5183296  81.5325356  57.5757408  62.2748661
  82.6177025  59.2638540  61.6311359  81.9759178  59.3705654  60.8585835
  83.4125519  59.8812771  61.7154121  82.3915386  55.8796072  64.4823933
  83.2127285  55.0152016  64.1127539  81.0561275  55.6185198  64.5501566
  80.4692268  56.4404678  64.5580387  80.4352570  54.3589783  64.1393995
  80.8415508  53.4976721  64.6696663  78.9827108  54.3826914  64.5290756
  78.5175753  55.2843761  64.1306877  78.0613089  53.2999420  63.9623547
  78.5030413  52.3590994  64.2906713  77.1056652  53.4139299  64.4740629
  77.9016590  53.3143282  62.8842068  78.7446404  54.5881748  65.9846926
  77.6724577  54.5935917  66.1808729  79.2462063  53.7510443  66.4702272
  79.1958141  55.4670715  66.4452076  80.6034374  53.9382839  62.6672554
  80.8891106  52.7788782  62.3626184  80.5875015  54.9371815  61.7657328
  80.3725433  55.7851601  62.2705364  80.8879852  54.9307680  60.3536987
  80.3211403  54.1049814  59.9237394  80.4979515  56.2168121  59.6693134
  81.1538792  57.0025110  60.0441885  80.7377815  56.0739851  58.6156607
  78.9994001  56.6295242  59.8227978  78.4762001  56.0536528  60.5861712
  79.0389252  57.6697922  60.1458645  78.3604383  56.6445780  58.4510422
  78.0305529  55.5655622  57.9206848  78.0947447  57.7889156  57.8053331
  77.8493261  57.6980162  56.8298292  78.5603571  58.6075258  58.1702900
  82.3199081  54.6407080  60.0492668  82.5314236  54.1774893  58.9157867
  83.2279205  54.7765541  61.0112000  82.8549194  55.0901556  61.8958664
  84.6609020  54.2643356  60.8112764  84.8210716  54.0290833  59.7590876
  85.5185986  55.4836893  61.1094856  85.2168465  55.9093380  62.0664930
  86.5262604  55.1182413  61.3074064  85.4484749  56.5762520  60.0229168
  84.4579029  56.6543674  59.5748425  85.6954670  57.5330973  60.4828501
  86.4732838  56.3889122  58.9167595  86.1105824  55.6819963  57.9442453
  87.4802780  57.1116638  58.9765310  84.9732685  53.0751896  61.7013979
  86.1162567  52.5754404  61.5903521  84.0624905  52.6760912  62.6092958
  83.2059765  53.2109976  62.6282263  84.2254353  51.6009712  63.6074209
  83.4214306  51.7679882  64.3242073  83.9635944  50.1447058  63.0773354
  84.8912621  49.7922277  62.6264524  83.7247467  49.5475960  63.9574003
  82.8643990  50.0062561  62.0317698  81.9582653  50.5291462  62.3377228
  83.3766651  50.5570459  61.2428999  82.5086594  48.6420965  61.5735722
  81.6586876  48.6467505  60.8912039  83.3224297  48.1386423  61.0516405
  82.0848274  47.7884293  62.6937819  82.7875423  47.1399498  63.0190134
  80.9765720  47.8427267  63.3684206  79.9632215  48.5860395  63.0169153
  80.0390244  49.0646219  62.1307373  79.1408205  48.7264109  63.5861683
  80.9541702  47.1069956  64.4469500  81.8226051  46.6334867  64.6511936
  80.0736904  47.0129490  64.9327564  85.5050182  51.8276548  64.4585180
  86.2400723  50.9073067  64.8536110  85.7455254  53.1137943  64.6436501
  85.0395203  53.6996937  64.2213011  86.9908619  53.5889006  65.2201796
  87.6931953  52.7742958  65.3969574  87.5593281  54.7357225  64.3182659
  87.7649879  54.2933273  63.3435392  86.7130661  55.4199219  64.2565632
  88.7291813  55.6132174  64.8137331  88.9576817  56.4017153  64.0966845
  88.5205650  56.0292292  65.7993889  89.9431038  54.7314405  64.9547625
  90.0387764  53.7328386  65.6412840  90.9717560  55.1957703  64.3264580
  86.7214584  54.2459011  66.5840483  85.6863976  54.9406290  66.7668152
  87.6075077  54.0323305  67.5537825  88.4322739  53.5632896  67.2075653
  87.5358963  54.1819715  69.0037584  87.0754814  55.1340103  69.2678499
  86.7174053  53.0251551  69.4885540  87.3014355  52.1253014  69.2954826
  86.5766335  53.0298710  70.5694151  85.7160091  53.0502272  69.0588188
  88.9376640  54.1263771  69.6905136  89.8314190  53.3875465  69.2359495
  89.1824818  55.0688696  70.6235027  88.4087467  55.6922436  70.8047390
  90.2553844  54.9130487  71.6393137  91.1477566  54.4511366  71.2169456
  90.7154083  56.2666464  72.2400856  89.9543762  56.6191816  72.9362535
  91.6199303  56.0870695  72.8212023  90.9873676  57.3326921  71.1157846
  91.9006348  57.8731155  71.3647842  91.1297894  56.8550968  70.1463938
  89.8756886  58.4436131  70.9790993  89.1949177  58.6227226  69.9130535
  89.7102356  59.2853308  71.8544769  89.8654079  53.9163828  72.7318621
  90.8146763  53.4955788  73.3584023  88.5777855  53.5927486  72.9771900
  87.8498745  54.1337633  72.5327158  88.2084846  52.6411295  74.0903187
  89.1834736  52.2314358  74.3542242  87.6501942  53.4598780  75.2371359
  86.6826344  53.8573217  74.9305677  87.5128460  52.8297329  76.1158609
  88.5699749  54.6011400  75.7270145  88.4117031  55.9086323  75.2094269
  87.5750637  56.0490084  74.5410538  89.2842007  56.9220686  75.4710627
  89.1597843  57.8830957  74.9942446  90.3545856  56.6345215  76.2687683
  90.9971714  57.4786377  76.4711285  90.5981445  55.3504467  76.8300295
  91.5082645  55.1309776  77.3684692  89.6483421  54.3390417  76.5504265
  89.7998428  53.2900524  76.7579603  87.1862411  51.5517950  73.7095547
  86.5109348  51.5645742  72.6519585  86.8686390  50.6909895  74.6708393
  87.2912693  50.7682323  75.5849028  85.7633686  49.7267532  74.5843410
  84.8238564  50.1995659  74.2982340  85.9084988  48.8919306  73.8987017
  85.4480457  49.1164827  75.9565878  86.0574532  49.4463634  76.9932699
  84.6271610  48.0840397  75.8942842  84.2681599  47.8934002  74.9696875
  84.1657352  47.2037411  77.0274448  84.9153233  47.3610401  77.8029966
  82.6941204  47.5992632  77.4535036  82.1232510  47.7070522  76.5312243
  81.9544411  46.7375851  78.5540676  81.0420513  47.2535706  78.8530731
  81.5951443  45.8148718  78.0984402  82.6707649  46.3848972  79.2960930
  82.7010059  48.9536476  77.8907824  82.2485924  49.5302200  77.2707176
  84.2026043  45.7660961  76.4735126  83.7765312  45.5420780  75.3679323
  84.7765636  44.8358345  77.3069429  85.1688576  45.1012564  78.1989956
  84.7173500  43.3738375  77.0342875  84.9886608  43.2296848  75.9884787
  85.5644798  42.5412369  77.9620981  85.4367924  41.4823723  77.7371597
  86.9994640  42.6646185  77.5618029  87.6233482  41.8565083  77.9436827
  87.1838474  42.5214720  76.4970875  87.4541473  43.6219883  77.8163576
  85.5119801  42.7792931  79.3629169  85.8256817  42.0487738  79.9010086
  83.2836342  42.8663254  77.2227669  82.5810242  43.4851742  77.9530430
  82.8776741  41.8264437  76.5170956  83.5600853  41.3034773  75.9870672
  81.4547825  41.5722799  76.1951399  80.8482265  41.8783331  77.0475101
  81.0979176  42.3306799  74.9449778  81.2485981  43.3981895  75.1056337
  81.8280506  42.0243883  74.1958523  80.0714970  42.1299171  74.6379662
  81.2051964  40.0360441  76.1473227  81.6033077  39.4271898  75.1595449
  80.6567478  39.4932413  77.2121000  80.4921055  40.1119661  77.9932356
  80.6586742  38.0245566  77.4795866  81.2133884  37.3990750  76.7801857
  81.4168072  37.8231478  78.7980318  82.4252129  38.2220364  78.6880302
  80.9781933  38.3953023  79.6155643  81.5996838  36.3491774  79.2460346
  80.7446194  35.7329178  78.9681911  82.5307274  36.0630155  78.7567759
  81.7401886  36.1759949  80.7545185  81.3195133  35.1064205  81.3007641
  82.2937870  37.0024824  81.4917088  79.2865324  37.3349285  77.5854206
  78.3940983  37.7895355  78.2227707  79.0482998  36.3343215  76.7036343
  79.7728443  36.0511184  76.0594749  77.8572083  35.4654384  76.6358757
  76.9903517  36.1067319  76.4765072  77.9655600  34.4816279  75.4413605
  78.7717438  33.8151217  75.7478523  76.7259693  33.6063576  75.3489256
  76.9646406  32.7812362  74.6778727  76.3571405  33.1642342  76.2744474
  75.8975935  34.1360807  74.8785162  78.3203793  35.1270103  74.0961981
  77.5075340  35.6839967  73.6302090  79.2352200  35.7181120  74.1381121
  78.6740828  34.1406298  73.0743074  77.9152250  33.4258103  72.7560711
  78.9494085  34.6331477  72.1417189  79.5154190  33.5201192  73.3828831
  77.4973011  34.7272825  77.8761387  78.3823204  34.2037082  78.5194921
  76.2258768  34.7615075  78.2655621  75.6768703  35.5073237  77.8625059
  75.6019926  33.9616418  79.3217802  76.4374352  33.3567691  79.6742916
  75.2173185  34.8892617  80.4394531  74.8679543  34.3687654  81.3311481
  76.0562706  35.5140901  80.7458019  74.1157293  35.8725786  80.0880051
  72.7653074  35.4442906  80.2927971  72.5286102  34.4202757  80.5413342
  71.6959906  36.3634849  79.9974108  70.6541395  36.0856724  80.0587845
  72.0740080  37.7063179  79.6949673  71.0803699  38.5841489  79.4661951
  71.2610865  39.4818497  79.7544384  73.4145880  38.1240606  79.4536877
  73.6115980  39.1532683  79.1923046  74.3850660  37.1659374  79.6438599
  75.3885031  37.5423050  79.5102358  74.4701815  33.0153489  78.7645864
  74.0350866  32.1584344  79.5245361  73.9998484  33.2114506  77.5087404
  74.3621063  33.8673377  76.8314791  72.9668188  32.3310399  76.9526052
  73.1120110  31.3275719  77.3526955  71.6058826  32.6113272  77.5068712
  71.6521358  32.7957678  78.5801601  71.2476444  33.5448980  77.0730400
  70.8075666  31.8913269  77.3268938  72.9634809  32.2432160  75.3682327
  73.4965658  33.1550813  74.7712326  72.3049164  31.2216544  74.7236061
  71.9710827  30.5530500  75.4030323  72.4508142  30.9728217  73.2520247
  72.4155998  31.9450855  72.7605343  73.7840176  30.3147697  73.1057072
  74.4842863  31.0739875  73.4540224  73.7540054  29.3932366  73.6870623
  74.2859221  29.8983669  71.6795683  74.9447584  30.8548784  70.8489275
  75.0272608  31.8865490  71.1575556  75.5321169  30.3655958  69.6639204
  76.0976744  30.9174466  68.9277077  75.4310417  29.0142870  69.2504740
  76.0475111  28.5521674  68.0664301  75.6333494  27.7331066  67.7849865
  74.5204687  28.2217145  69.9984550  74.3011475  27.2206903  69.6575022
  73.9786673  28.6285448  71.2348557  73.4273386  27.9535747  71.8727112
  71.1583519  30.2034640  72.7401066  70.3812456  29.5021987  73.4439278
  71.1102438  30.1643157  71.3664532  71.6672182  30.8853197  70.9305286
  70.1650620  29.4644475  70.5412245  70.0695801  28.4468818  70.9201050
  68.8420486  30.2152181  70.8003855  68.4156370  29.8146653  71.7200756
  68.9477491  31.3000536  70.8081722  67.6945019  29.9323678  69.7803783
  66.8285704  30.2957582  70.3337383  67.7736998  30.3878188  68.7932634
  67.4857616  28.4155631  69.6914482  68.4137535  27.9733443  69.3289900
  67.2697544  27.9881430  70.6706047  66.5032959  27.9534483  68.7079668
  66.0240221  28.6121321  68.1108618  66.0925770  26.7407632  68.4010887
  65.2904415  26.5340662  67.4010181  65.0373507  27.3495197  66.8614960
  64.8563671  25.6245041  67.3348618  66.4635324  25.6689453  69.0472507
  66.8984127  25.6884599  69.9586296  66.4731312  24.7765994  68.5742569
  70.5145121  29.5941949  69.0195084  70.6246662  30.7064080  68.4670162
  70.6882668  28.5743546  68.2839012  70.6364155  27.6590967  68.7078285
  71.0159588  28.5995984  66.8186474  71.1868858  29.6189189  66.4724159
  72.3273182  27.9169321  66.5314674  72.3559999  27.7392101  65.4564381
  73.1712532  28.5269070  66.8536520  72.5019312  26.5434074  67.1760845
  72.4764872  26.6645932  68.2590246  71.6842747  25.8917069  66.8681479
  73.8426781  25.9000444  66.7078495  74.9418020  26.3995004  67.1170044
  73.8506603  24.8117232  66.0314178  69.7437143  28.0120826  66.1514044
  69.2772770  26.8922710  66.4583826  69.2370176  28.7469482  65.2187967
  69.8594332  29.4501448  64.8470163  68.2277966  28.3717489  64.1620874
  67.5733948  27.6962376  64.7130346  67.4660969  29.6069884  63.8166618
  68.0685186  30.3428268  63.2839966  66.7007971  29.2805815  63.1124783
  66.7466068  30.3053808  65.0115919  67.5535965  30.6311035  65.6679249
  66.2229443  31.1377764  64.5414877  65.7160234  29.4118023  65.7301998
  65.3710079  29.7558618  66.8454838  65.1210594  28.4260082  65.2228832
  68.8909674  27.7465415  62.9714108  69.6596432  28.4395170  62.2924042
  68.5425711  26.4733481  62.6574278  67.7838898  25.9399223  63.0573797
  69.0587187  25.7840610  61.4894629  69.8408222  26.3406110  60.9730577
  69.7446918  24.4756317  62.0398855  68.9821005  23.9112902  62.5766134
  70.0624418  23.8784432  61.1851931  70.9276533  24.6183872  63.0057621
  70.5642653  25.1374078  63.8927078  71.2895823  23.6676455  63.3971739
  72.1131039  25.2462053  62.2867346  72.2488070  25.3569460  61.0569620
  73.1311321  25.5434871  63.0755520  73.9634800  25.9333563  62.6568699
  73.2116079  25.2131224  64.0265942  67.9870844  25.4896688  60.4450512
  66.9135141  24.9994898  60.6655836  68.3796978  25.8046794  59.1906118
  69.1311979  26.4741731  59.1061878  67.6278591  25.5556512  57.9142475
  67.0771646  24.6218371  58.0275536  66.7210245  26.8141389  57.6874685
  66.1234188  27.0327115  58.5724497  67.3564863  27.6845670  57.5242233
  65.8040762  26.7538571  56.4324188  65.3268242  27.7781487  55.9148455
  65.4522181  25.6860566  55.9479856  68.5184813  25.2981281  56.6683006
  69.7419357  25.5839372  56.6836500  68.0551338  24.6017432  55.6080103
  67.1705961  24.1392064  55.7621241  68.8005257  24.3416905  54.3967152
  69.7479868  23.8455105  54.6070051  68.0684948  23.3954716  53.4882450
  67.8856993  22.4468040  53.9929390  67.0557308  23.7489247  53.2946587
  68.8700056  23.1060457  52.2887230  68.7267637  23.8737917  51.1192417
  67.8453016  24.4977927  51.1264133  69.4033432  23.5767031  49.9563122
  69.3544102  24.1580439  49.0474367  70.1934481  22.3833442  49.9382448
  70.6894636  22.1531987  49.0068960  70.3702164  21.6028666  51.1183262
  71.0614634  20.7765388  51.0424519  69.7580624  21.9577217  52.2712612
  69.9758101  21.4676094  53.2086897  69.1612625  25.6863260  53.7146902
  68.3100891  26.4288783  53.1561279  70.4680681  25.8129239  53.7132788
  71.0452747  25.2824736  54.3501186  71.0971403  27.0361400  53.2184458
  72.1234941  26.8156528  52.9250526  70.5366755  27.3917174  52.3538399
  71.2386894  28.1731200  54.1774893  71.8939304  29.1726303  53.7410879
  70.6982374  28.1921029  55.3998280  70.0259781  27.4810982  55.6501150
  70.7337475  29.3459105  56.3378525  71.6878653  29.8397136  56.1536789
  69.6523762  30.4553294  56.0573292  69.8155880  30.7451630  55.0193262
  68.2311440  29.8705769  56.1175442  68.2169962  28.9329982  55.5618048
  67.9791498  29.5951343  57.1416235  67.3893452  30.4619122  55.7572699
  69.8247719  31.7461944  56.8542624  69.0606356  32.4846697  56.6116714
  69.6372223  31.5322709  57.9064846  71.0848808  32.5444412  56.7185163
  71.9090128  31.9263458  57.0747042  71.3437605  32.6952481  55.6704998
  71.0392618  33.4785342  57.2784281  70.8580685  28.9790750  57.8343773
  70.0421095  28.2355571  58.3891726  71.7760849  29.6778297  58.5396051
  72.4348927  30.2660966  58.0496931  72.1196508  29.3919158  59.9480104
  71.3216352  28.7939048  60.3880835  73.4727669  28.6037087  59.8835278
  73.3055019  27.6421356  59.3982410  74.1157007  29.2735314  59.3125010
  74.0531588  28.3318162  61.2238073  74.2925072  29.3087912  61.6437244
  73.3106375  27.9290414  61.9126749  75.3915071  27.5644326  61.1577749
  76.2702179  27.8253913  60.3234196  75.5519390  26.5407658  61.8455887
  72.1397209  30.7260108  60.6741285  72.7918005  31.6844726  60.2810669
  71.2573957  30.8888268  61.7252445  70.7422304  30.1132846  62.1166992
  71.0645103  32.1279454  62.3694944  71.7950630  32.8435802  61.9923162
  69.6690941  32.7820635  62.1475554  68.9104414  32.0851779  62.5037861
  69.5100546  34.1090584  62.9293776  68.4566689  34.3739367  62.8382254
  69.7173166  34.0328884  63.9967775  70.0715065  34.9460149  62.5141907
  69.5679331  33.0045605  60.6622696  70.4206181  33.6108637  60.3566170
  69.6634674  32.0649719  60.1180696  68.2196808  33.5663819  60.1811123
  68.1451559  33.7027192  59.1022444  67.3900127  32.9170489  60.4606009
  68.0883932  34.5706606  60.5839777  71.4505768  31.8490553  63.8330507
  71.0362244  30.8327031  64.3665552  72.3232555  32.6479411  64.4509840
  72.6326704  33.4890246  63.9852142  72.5136089  32.5534105  65.8903742
  72.1259069  31.5929127  66.2298393  74.0232706  32.5803447  66.1568069
  74.4505119  33.2977200  65.4561424  74.5648289  32.9977202  67.6355362
  73.9805746  32.4591756  68.3816719  75.6547260  32.9843307  67.6285839
  74.3722725  34.0663600  67.7305603  74.5494747  31.2542224  65.7976246
  74.1403913  30.4297686  66.3815975  74.4168663  31.0523129  64.7347260
  75.6385612  31.2506819  65.8420420  71.7031527  33.6467433  66.6129494
  71.8495178  34.8722148  66.2928009  71.0462332  33.3114505  67.7626467
  70.9854031  32.3298144  67.9924250  70.4868603  34.1713452  68.7888288
  70.4953527  35.1930141  68.4090662  68.9630127  33.8157654  69.0503550
  68.7844610  32.7780604  69.3321276  68.5744953  34.3912268  69.8905993
  68.0837488  33.9462757  67.8391027  67.9719210  35.0139928  67.6504898
  68.4359407  33.4705186  66.9238377  66.6650057  33.5144734  68.0555105
  66.7109156  32.4711895  68.3678532  66.2785482  34.2334342  68.7778997
  65.8224154  33.5512710  66.7956066  65.8516741  34.5892930  66.4643145
  66.2631035  32.9171491  66.0263300  64.4175339  33.0372334  67.0862150
  63.8101101  33.6195207  67.6448536  63.8711452  32.7972698  66.2713671
  64.5756197  32.1075559  67.4478817  71.2421703  34.0673304  70.0852680
  71.4288902  32.9881978  70.6011152  71.6226673  35.1928759  70.6796741
  71.3714075  36.0972071  70.3066349  72.6255083  35.1982689  71.7297649
  72.5529337  34.2700672  72.2965765  74.0553045  35.2020168  71.1341143
  74.0961933  34.5595384  70.2545404  74.6733809  36.5356135  70.6170654
  73.9014482  37.0210862  70.0199604  74.9323988  37.2075653  71.4352942
  75.5018568  36.3128400  69.9446869  75.1140547  34.7778082  72.1625090
  76.0647583  34.6186924  71.6536331  75.2235651  35.5328488  72.9409790
  74.8917341  33.7919354  72.5708437  72.3032093  36.3107610  72.7169514
  71.6143084  37.2965527  72.3699331  72.7432537  36.1925793  73.9639187
  73.1579256  35.3029180  74.2019367  72.8048086  37.2450423  74.9772692
  72.4799299  38.1773710  74.5154047  71.7529106  37.1158671  76.0888338
  71.8123102  36.2413335  76.7367268  71.6900778  38.0102801  76.7086554
  70.3844023  37.0781565  75.4498911  70.2001953  37.9876328  74.8780298
  70.3331470  36.2748122  74.7149658  69.2593956  36.8736219  76.3837862
  69.2769718  37.6768661  77.1203899  68.3042908  36.8628526  75.8586550
  69.4036102  35.5144215  77.0862007  69.6897888  34.7334743  76.3816929
  70.1961708  35.5654407  77.8327513  68.1661510  35.1173449  77.7710629
  67.4996710  34.6491528  77.1738195  68.3290243  34.5426154  78.5854721
  67.7337599  35.9803247  78.0683947  74.1860008  37.3585224  75.6396389
  74.6598721  36.3700056  76.1963892  74.7262478  38.6011362  75.6403065
  74.2217827  39.4008541  75.2852535  75.9794092  38.9184880  76.3287687
  76.2186718  38.0859351  76.9903708  77.1073389  39.1063428  75.2836514
  76.9362354  39.9736714  74.6460295  78.0880880  39.3780684  75.6740236
  77.1420527  38.1074214  74.8488522  75.8800697  39.9906993  77.3851442
  74.9028730  40.6998920  77.3619556  76.8878698  40.2795506  78.2445335
  77.6781702  39.6517396  78.2816696  76.9298267  41.4555407  79.1105556
  76.3265324  42.2486019  78.6687422  76.3435841  41.0377979  80.4874039
  75.3400230  40.7189512  80.2058029  77.0999384  39.9003983  81.1840153
  78.1326532  40.2461338  81.2294102  76.6321850  39.6996284  82.1478653
  77.0484638  39.0520716  80.5015278  76.2284374  42.3084354  81.4137173
  77.1886873  42.5249338  81.8818474  76.0389519  43.1411886  80.7364273
  75.0810385  42.2782612  82.4596500  74.1630745  42.1143532  81.8952274
  75.2828360  41.6036987  83.2917213  74.9645615  43.2510900  82.9372978
  78.3909464  41.9596624  79.2868328  79.3825388  41.2621450  79.0769768
  78.4968996  43.2828569  79.5125866  77.5719881  43.6756039  79.4107008
  79.6914911  44.0898228  79.5168447  80.3046894  43.6714315  78.7186956
  79.4159746  45.1419926  79.4452715  80.4266834  43.8377476  80.8773422
  79.7465324  43.7977791  81.8611526  81.7703724  43.6476851  80.8526802
  82.1663570  43.5237312  79.9318504  82.6449680  43.4159994  81.9840145
  82.0958710  43.4576130  82.9246902  83.4321022  42.0768690  81.8781471
  84.1362381  42.0818424  81.0461235  84.0627193  42.1191597  82.7661991
  82.5529575  40.8186722  81.6242409  82.1875286  40.6499004  80.6112957
  83.2070541  39.9467731  81.6169548  81.4633369  40.7175922  82.5972939
  81.8356419  41.1065769  83.5450172  80.6952000  41.3666296  82.1768188
  81.0417366  39.3059349  82.7597141  81.5845680  38.6526012  82.2132874
  80.1091766  38.7284517  83.4801102  79.2721605  39.4293261  84.2107201
  79.2384815  40.4332066  84.1049290  78.4747839  38.9636874  84.6199417
  79.8861980  37.4601507  83.3659554  80.3969860  36.8778801  82.7177525
  79.2839050  37.0633197  84.0729618  83.6453438  44.6256542  82.1963120
  83.5100365  45.4349852  83.1275940  84.6745586  44.7026873  81.3281155
  84.7813797  44.0322018  80.5803585  85.8915043  45.4098558  81.7272282
  85.7567406  45.9988070  82.6344585  87.1256447  44.5401144  81.8503571
  87.2499466  44.0334797  80.8932972  87.9165077  45.2393723  82.1217918
  86.9948673  43.5592079  83.0058956  87.9491043  43.6814165  83.5183430
  86.2854671  43.9304543  83.7455082  86.8952751  42.1226120  82.6053715
  86.9464588  41.6096687  81.5294266  86.6802502  41.3080740  83.6337757
  86.3858509  40.3702688  83.4015083  86.5773487  41.6382837  84.5827103
  86.1742496  46.4682865  80.5889130  85.9755421  46.1125517  79.4066954
  86.5460205  47.6812458  80.9631252  86.5520668  47.8566790  81.9577503
  87.1008492  48.7746191  80.0868511  86.4898300  48.8490438  79.1872883
  87.0552349  50.1970339  80.7672691  87.4373531  50.0507021  81.7775536
  87.7057457  50.8760548  80.2160263  85.6233406  50.8479166  80.7709503
  85.3606510  51.3713551  79.8516560  84.9795818  49.9848366  80.9405708
  85.3583050  51.8499422  81.9056225  84.3782806  52.2986317  81.7433739
  85.3122139  51.3219595  82.8580952  86.4021111  52.9111004  82.0123959
  86.1686897  53.6723518  81.3910198  87.3576260  53.0529690  82.8649807
  87.4968529  52.2503042  83.9196205  86.7063427  51.6881227  84.2009640
  88.2966518  52.4001122  84.5179272  88.1803322  54.0798092  82.8741074
  88.1418514  54.6875429  82.0683289  88.9258575  54.1871881  83.5469818
  88.4407711  48.3097267  79.5017147  89.1416836  47.4510431  80.0623798
  88.8021851  49.0236759  78.4995270  88.0501556  49.6229172  78.1905270
  90.0473690  48.8988400  77.8434896  90.8084583  48.8584995  78.6227417
  90.1562786  47.5535154  77.1059179  91.1434174  47.6679373  76.6580582
  90.2581406  46.7603970  77.8466511  89.1121578  47.1852160  76.0292101
  89.0509415  47.9349804  74.8580647  89.7134209  48.7572193  74.6312618
  88.1924725  47.5288105  73.8333941  88.0509281  48.0243969  72.8843117
  87.2811985  46.5087986  74.0521955  86.5076256  46.2823915  73.3333540
  87.2858715  45.7661676  75.2539873  86.5451717  44.9826241  75.3157949
  88.2394218  46.0639811  76.2259960  88.3831978  45.5517864  77.1658850
  90.3652191  50.1249170  76.9603300  89.4556236  50.8145905  76.5468740
  91.6470051  50.3852224  76.6675377  92.3203564  49.6683264  76.8972445
  92.0843410  51.5287113  75.7900476  91.2268734  52.1044588  75.4416847
  92.9270458  52.5541353  76.5713787  93.3974648  53.2799196  75.9080172
  92.1564388  53.0438709  77.1667051  93.9934444  51.9228554  77.4788761
  93.5720921  51.3898182  78.3311844  94.6209431  51.2652254  76.8773127
  94.9186516  52.9750681  78.1160927  95.3768826  53.4777403  77.2643614
  94.3539715  53.6618900  78.7465858  96.0306358  52.3098087  78.9349174
  95.6351185  52.0745850  79.9230146  96.4114857  51.3832521  78.5053301
  97.1728516  53.1956244  79.0885973  97.6606369  53.2444572  78.2055473
  96.9688988  54.1524744  79.3394756  97.9588127  52.9212379  79.6605206
  92.7235413  50.8249569  74.5770025  93.6869431  50.0975704  74.7672749
  92.2427940  51.1083508  73.3824158  91.5247822  51.8058157  73.2478857
  92.7780247  50.5897522  72.1578503  92.7692223  49.5052862  72.2671890
  91.8731117  51.1122274  71.0070086  91.7088032  52.1532965  71.2849808
  92.3608875  51.0273361  69.5795345  92.4992657  49.9784756  69.3171501
  91.6127777  51.3557100  68.8579988  93.1940842  51.6823053  69.3247795
  90.5463886  50.3525019  71.1967468  90.4233265  50.0232697  72.2285175
  89.7338772  51.0371017  70.9533596  90.5002594  49.5324850  70.4801226
  94.2401505  51.0267353  72.0109272  94.6149635  52.1411180  72.4028206
  95.0497150  50.1285219  71.4551592  94.6588802  49.2149162  71.2743855
  96.4718437  50.3063059  71.0459518  96.7694092  51.2615681  71.4784241
  97.3353100  49.1278553  71.6300678  96.9364834  48.1762314  71.2787104
  98.3657646  49.3014479  71.3200092  97.2358990  49.1122770  73.2127619
  96.1795902  49.1532183  73.4785175  97.7736187  47.8266048  73.8384724
  97.4958992  47.7439785  74.8892546  97.2941399  46.9527483  73.3973598
  98.8598824  47.8955221  73.7801743  97.9962540  50.2472019  73.8736296
  99.0416336  50.1660347  73.5758162  97.4808311  51.1570644  73.5660553
  97.8935242  50.0580168  74.9421597  96.5244961  50.4172277  69.4794607
  97.1098423  51.3223743  68.8988686  95.9350967  49.3768263  68.9385033
  95.6019878  48.6155272  69.5125818  95.6697178  49.2494202  67.4680853
  95.3092575  50.2530766  67.2426033  96.9199944  48.9022827  66.7040443
  96.5651417  48.9081907  65.6734419  97.6535320  49.6912003  66.8702555
  97.4452972  47.5441217  67.0365238  98.0383778  47.5525713  67.9510164
  96.7061043  46.7435312  67.0639086  98.4691048  47.1499205  65.9125376
  98.2896614  46.1162996  65.2065516  99.4878674  47.8639984  65.7062483
  94.5106125  48.3917999  67.1795368  94.2397785  47.4346066  67.8863287
  93.6460114  48.7925196  66.2290621  93.8926792  49.6286440  65.7190037
  92.5571346  48.0463839  65.5627871  92.1674538  47.2912693  66.2454605
  91.4928436  49.0181351  65.0613022  92.0193481  49.7952604  64.5072603
  90.7815838  48.4939909  64.4229507  90.6933403  49.5775270  66.2940502
  91.3771534  50.2621460  66.7958403  89.5151901  50.5196238  65.9794378
  88.6673927  49.8863220  65.7181597  89.2674732  51.0706997  66.8866587
  89.6815395  51.1756611  65.1250124  90.2655220  48.5691595  67.2925663
  89.5388126  48.9955902  67.9840469  89.8877335  47.6888943  66.7724562
  91.1495304  48.1851387  67.8016424  93.1436825  47.1799946  64.4561195
  94.0145397  47.6930237  63.7182856  92.8121853  45.8803606  64.4161701
  92.2184181  45.6025982  65.1845360  93.2762527  44.8732090  63.5181522
  93.8254738  45.3689528  62.7177095  94.2686367  43.8675785  64.1836357
  93.7741184  43.3382463  64.9981022  94.7080421  43.1219482  63.5210180
  95.4059029  44.5619106  64.8957443  96.1089134  44.9226046  64.1448927
  95.0974464  45.4939270  65.3693485  96.1375237  43.6493778  65.9280252
  96.8380737  44.1756201  66.5764046  95.3853226  43.2531023  66.6101265
  96.7602444  42.5123310  65.2571011  96.1609077  41.7146730  65.1001120
  98.0476761  42.2481728  64.9544525  98.4201527  41.0654593  64.7271919
  97.6584911  40.4036713  64.6824551  99.3646812  40.9451485  64.3903065
  98.8658905  43.2628298  65.1094389  98.4379101  44.1681242  65.2412844
  99.8240471  43.2420254  64.7907019  92.1500397  44.2410803  62.8121281
  90.9842587  44.5581341  63.0529499  92.3578930  43.2867432  61.9522476
  93.3089256  43.1675720  61.6337490  91.3545799  42.4024391  61.3081646
  90.3872490  42.5229692  61.7958546  91.2702942  42.9670334  59.8389530
  92.2136784  43.4098053  59.5194578  90.8963108  41.9344425  58.7662888
  90.7998848  42.5190592  57.8513956  91.6140366  41.1142349  58.7815952
  89.9353600  41.4689541  58.9853668  90.4031944  44.0405893  59.8348236
  90.7687378  44.8932457  60.0817204  91.8885994  40.9828424  61.4302874
  93.0688095  40.7132387  61.2040043  91.1004353  39.9768496  61.7722797
  90.1237869  40.2308130  61.8142223  91.4175701  38.5519528  61.8444443
  92.4234676  38.4701967  62.2562790  90.3653812  37.8316188  62.7587605
  89.4013214  37.7768731  62.2531080  90.6180859  36.7867756  62.9391623
  90.1230431  38.4770870  64.1775608  91.0379982  39.0514994  64.3225241
  89.3111134  39.2034578  64.2127848  89.8218536  37.3436165  65.1972675
  90.5329037  37.0904112  66.1275387  88.7565708  36.6671538  65.0236893
  88.6602879  35.9807825  65.7583475  88.1493568  36.7288160  64.2189598
  91.4458466  37.8629065  60.4598141  91.2344742  38.6241388  59.5146132
  91.6966152  36.4998245  60.3638411  92.0292568  36.0057855  61.1795473
  91.8421745  35.7757473  59.0540409  92.3244953  36.4382625  58.3353281
  92.7244949  34.4957256  59.2734098  93.5972691  34.8092961  59.8461628
  92.1414566  33.7616420  59.8295546  93.1884098  33.9198661  58.0530643
  94.0286160  33.5062504  58.2642031  90.4040527  35.5067706  58.6099386
  89.6310806  34.9674964  59.3959045  89.8422432  35.9223032  57.4748230
  88.8643742  35.6906748  57.3737049  90.2973747  37.1003461  56.7593002
  91.0701942  37.6341224  57.3124123  90.8230209  36.8054271  55.3563404
  91.4687920  35.9281969  55.3956509  89.9349594  36.5148711  54.7950554
  91.4114094  37.9875469  54.6214151  91.8257141  37.7197862  53.4655857
  91.5930748  39.0987515  55.1656628  88.9458847  37.9085326  56.7052507
  87.9967022  37.5880623  56.0025930  88.8245964  38.8333440  57.6421213
  89.6113300  39.0309381  58.2438755  87.6206970  39.4872260  58.1619501
  87.6031780  40.5649185  57.9995680  86.7606544  39.0371728  57.6660919
  87.4550056  39.3046045  59.6451616  88.1550217  38.5565472  60.2536678
  86.4365101  39.9052310  60.1302099  85.8571434  40.2809668  59.3931484
  86.2259674  40.2767563  61.5826225  85.2493572  40.7548141  61.5064669
  86.1312008  39.0581441  62.5558901  86.9837666  38.4083128  62.3584986
  86.1640167  39.4598675  64.0606499  85.6184387  40.4021168  64.1117430
  85.5997467  38.7444067  64.6588278  87.1738148  39.6093988  64.4428301
  84.9482918  38.1952524  62.2535276  85.0298882  37.7331400  61.2697124
  84.9367905  37.3234606  62.9077101  83.5523319  38.8919806  62.3470736
  83.3558178  39.6325445  61.5718031  82.8524590  38.0696249  62.1986866
  83.4515095  39.3321776  63.3391237  87.2625160  41.2828779  62.1174526
  88.4505558  41.0194206  62.0146179  86.8661308  42.4205923  62.6503134
  85.9161568  42.7172852  62.4781418  87.6885414  43.3477688  63.4038734
  88.5439968  43.5843515  62.7711582  86.9046402  44.6519995  63.6378479
  86.4024162  44.9580622  62.7201414  86.1872387  44.3176937  64.3873072
  87.6117134  45.9135485  64.1506910  88.0208302  45.7347155  65.1450443
  88.3503151  46.2728310  63.4341145  86.6226292  47.1422815  64.3398809
  85.4277611  47.1042824  64.6383858  87.0800877  48.3010006  64.1711378
  86.4241123  49.0544128  64.3200541  87.8980160  48.5508299  63.6338472
  88.1934929  42.7554512  64.7069693  87.4247265  42.0521069  65.3391790
  89.4403744  42.9874039  65.0862551  90.0342751  43.4437275  64.4086456
  90.0314999  42.5928545  66.3954782  89.3324566  42.2071838  67.1375799
  90.9926414  41.3877678  66.2066364  90.4010773  40.5565405  65.8229637
  91.7510986  41.5647793  65.4440641  91.7568779  40.9951496  67.4601984
  92.4124146  41.7896128  67.8168583  91.1397076  40.5386829  68.2340431
  92.7008629  39.9063015  67.0778942  93.7240314  40.1576424  66.3409805
  92.4344444  38.7295270  67.4045706  92.9965115  37.9704618  67.0468092
  91.6284180  38.4375739  67.9386091  90.7892323  43.7860441  67.0521736
  91.6983509  44.2433834  66.3439560  90.3940487  44.2957687  68.2361221
  89.7887325  43.7051535  68.7882662  91.2615204  45.3073406  68.8346910
  91.6073799  45.9851980  68.0543137  90.3996468  46.1259317  69.7714758
  90.9222507  46.8681240  70.3749084  89.6587563  46.7186022  69.2348814
  89.8185253  45.4368258  70.3842735  92.4150753  44.6597719  69.6210146
  92.1163082  43.7498999  70.3269005  93.6606598  45.1360083  69.5439339
  93.9212418  45.7992220  68.8281536  94.6097946  45.0651646  70.5547380
  94.5968723  44.0820408  71.0252714  95.9807205  45.3867388  69.9166203
  96.0685349  44.8916435  68.9495230  95.9792423  46.4515781  69.6837711
  97.1602631  44.9860096  70.7786942  97.0841599  45.4156828  71.7775345
  97.1015358  43.9242935  71.0183096  98.4536362  45.4162931  70.0779819
  98.4671974  44.8199320  69.1656876  98.4032536  46.4310694  69.6832848
  99.6624947  45.1633215  70.9265423  99.7393703  45.9949017  71.6270161
  99.5069313  44.1905546  71.3930464 100.9552383  45.0161314  70.1477289
 100.8215904  44.3624258  69.3895006 101.3030815  45.9366846  69.9203539
 101.6588020  44.6475983  70.7716560  94.4301605  46.1749792  71.5644503
  94.2569733  47.3420811  71.2315702  94.2840290  45.7596588  72.8342915
  94.5071220  44.8026180  73.0675411  93.7173080  46.5463161  73.9088011
  93.7098026  47.5800133  73.5630989  92.1984291  46.1823416  74.0927792
  91.7594147  46.9705629  74.7043896  91.3999748  46.4138889  72.8647184
  91.4990330  47.4491596  72.5383615  91.7417049  45.7484150  72.0719576
  90.3359318  46.3043594  73.0742741  91.8647671  44.8874855  74.8344231
  90.9338760  44.5688438  74.3653822  92.5863266  44.1534233  74.4757843
  91.9517040  44.9734211  75.9175444  94.5010757  46.3489199  75.1520109
  95.2073860  45.3511906  75.3189898  94.5263577  47.4223518  76.0244179
  94.0945053  48.2950592  75.7561159  94.9296570  47.2878027  77.4160957
  95.3610420  46.3005161  77.5812483  96.1046505  48.2023621  77.6073599
  96.9076252  47.8265142  76.9732666  95.8850670  49.2153597  77.2701263
  96.5653133  48.2682085  79.1457891  95.7457733  48.5074186  79.8234558
  96.8099117  47.2226906  79.3333101  97.8488731  49.1198301  79.3956041
  98.6280918  49.4831896  78.5205364  98.1999683  49.5246172  80.6130791
  99.1411400  49.8869801  80.6678295  97.5714588  49.4125795  81.3957119
  93.7632179  47.5639963  78.3559036  93.1099319  48.5539055  78.0918646
  93.6188221  46.6951513  79.3183756  94.2657089  45.9231138  79.3931627
  92.5411224  46.7755699  80.3560448  91.5965080  46.9706678  79.8483801
  92.4595356  45.4698944  81.1631107  93.3619308  45.4231167  81.7727089
  91.3755608  45.5154133  82.2077370  90.4440784  45.7809448  81.7078114
  91.3734627  44.5983934  82.7969456  91.5095997  46.3084793  82.9433918
  92.3353004  44.1004515  80.3549385  93.2294846  43.9659262  79.7462988
  92.3719692  43.3434439  81.1383152  91.0016060  43.9760971  79.5935726
  90.2847004  43.9789820  80.4146385  90.8703518  44.8596525  78.9689016
  91.0493374  43.0396509  79.0377998  92.7401066  48.0525875  81.2858868
  93.7984943  48.2415342  81.9099808  91.7656326  48.9505816  81.4316559
  90.8514786  48.5569811  81.2599087  91.6287518  50.0994968  82.3062515
  92.5986385  50.5966759  82.3215485  90.6405640  51.1236382  81.6947365
  89.7068405  50.6874514  81.3397694  90.4445934  51.8716860  82.4629307
  91.2731075  51.7847729  80.4748821  91.7826653  51.1006784  79.7963047
  90.2108955  52.5618649  79.6744728  90.5066967  53.3288670  78.9587164
  89.5865154  51.9158602  79.0572786  89.5060158  53.0424452  80.3529072
  92.2265339  52.9039478  80.9355736  92.5428867  53.4004784  80.0182533
  91.7681980  53.7689781  81.4148998  93.0875301  52.7291918  81.5807438
  91.2292671  49.7306871  83.7862778  90.2651978  48.9662790  83.8934326
  91.8359470  50.3684282  84.8135757  93.0804920  51.0832405  84.8838806
  93.0167580  51.8453693  84.1072178  93.8850117  50.3568983  84.7686195
  93.1742287  51.8276119  86.1942482  92.8051853  52.8531694  86.2061310
  94.1823959  51.9731188  86.5822124  92.2795677  50.8774853  87.1358395
  91.8117332  51.4770031  87.9167461  92.9674053  50.1924753  87.6315594
  91.2411880  50.3181267  86.1845398  91.1534500  49.2510462  86.3888741
  89.8679161  51.0756779  86.2098980  89.0139198  50.4364872  86.9109154
  89.7603989  52.1836424  85.6374550  79.6561861  57.7545357  99.0342712
  80.1909351  58.2426739  99.7384453  79.7346687  58.3104467  98.1946850
  80.0666523  56.8383503  98.9237213  78.2440138  57.6399899  99.5519352
  77.7952051  56.9396877  98.8474941  78.1866646  56.9914961 100.9070110
  77.2289467  56.4717293 100.9338379  79.0648985  56.3691854 101.0788822
  77.9335594  57.9114914 102.0940971  77.0786142  58.5407543 101.8467236
  77.6906490  57.2607803 102.9341412  79.1428852  58.7244225 102.4800110
  79.9972486  59.0346622 101.6629314  79.1597080  59.1948748 103.6170197
  77.3271799  58.8892651  99.3635273  76.1286640  58.8134909  99.0167332
  77.8870106  60.0746775  99.5202446  78.8561916  60.1197386  99.8008919
  77.1275663  61.3361311  99.5752716  76.3723469  61.1524487 100.3394794
  77.8782225  62.5289536 100.1385307  78.2749367  62.2749043 101.1214733
  78.8985682  63.0874109  99.2060947  79.4953394  62.2666502  98.8082027
  78.2685089  63.6066580  98.4839344  79.5090485  63.8374233  99.7089863
  76.9567394  63.5392046 100.4529190  76.6014719  63.2916451 101.3097191
  76.5367603  61.7413378  98.2107162  75.3575754  62.0867014  98.1829643
  77.2347450  61.7154789  97.1106720  78.2014513  61.4762115  97.2789955
  76.7152357  61.8775654  95.7591343  76.1811829  62.8265953  95.8063984
  77.8382015  62.0041370  94.7195911  78.1292582  61.0000229  94.4111538
  77.4949598  62.6206636  93.8888168  79.0529776  62.7473927  95.1288605
  79.4793797  62.2818136  96.0174084  80.2081013  62.7373123  94.0222645
  81.1031723  63.2622576  94.3560123  80.6802750  61.7568350  93.9603519
  79.7710228  63.0594730  93.0771351  78.8162613  64.1543293  95.4629230
  78.6470556  64.7462749  94.5634270  77.9951429  64.2804289  96.1685848
  79.6914482  64.6229076  95.9130096  75.6443071  60.8841467  95.4019547
  74.5513630  61.1880064  94.9011803  75.9052658  59.6184540  95.6242085
  76.8446875  59.4101143  95.9311104  75.0643873  58.4845304  95.3325176
  74.8837280  58.3800983  94.2626762  75.7934332  57.2586441  95.9108829
  76.7501831  57.2169399  95.3903008  75.9226847  57.3464775  96.9896221
  74.9951172  55.9260798  95.5812168  75.5755711  55.1181364  96.0266399
  74.0430927  56.0574245  96.0955143  74.6669865  55.5238676  93.9229298
  75.8102036  54.1429758  93.7639904  75.5848598  53.5600710  92.8709412
  76.8623781  54.4259357  93.7330437  75.8273172  53.4778547  94.6273708
  73.7137175  58.6621809  96.0567188  72.6524591  58.2366371  95.5460930
  73.6630249  59.1963816  97.2700882  74.5377874  59.4153214  97.7250099
  72.4268389  59.4322729  98.0528545  72.0429564  58.4939432  98.4531784
  72.8555632  60.3104162  99.2419052  73.5971022  59.9104261  99.9334431
  73.2848930  61.2304592  98.8452911  71.7989731  60.7627344 100.1878071
  70.8611012  60.0281668 100.6305695  71.8459797  61.8762302 100.6974506
  71.3822412  60.1826620  97.2064304  70.1762676  59.8143148  97.2714806
  71.8968105  61.2373018  96.5775299  72.8982115  61.3287544  96.6720295
  71.2092638  62.1320200  95.6723309  70.3583717  62.5363684  96.2205887
  72.1244335  63.3552647  95.3697014  73.0652761  63.0485535  94.9127007
  71.5963030  63.9787865  94.6483135  72.4171782  64.1709757  96.6321278
  71.4789677  64.3805456  97.1458817  72.9903936  63.5538626  97.3239994
  73.0219412  65.5005741  96.2001610  73.4742641  65.9798813  97.0683575
  73.9556932  65.3706694  95.6530380  72.1000624  66.4176464  95.4415798
  71.1459208  66.0942411  95.3699684  72.5563097  67.4994707  94.8080730
  73.8295603  67.7473259  94.6730614  74.4019318  67.2181702  95.3153038
  74.1692781  68.6735821  94.4568539  71.6803646  68.2214355  94.1462135
  70.6995153  68.1653595  94.3805122  72.0044422  69.0017986  93.5929489
  70.7772589  61.2586164  94.4270897  69.6076870  61.1370277  94.1669655
  71.7181492  60.4972363  93.7500763  72.6897049  60.5793428  94.0135860
  71.3999224  59.6314955  92.6146221  71.0663986  60.2346516  91.7701912
  72.5863361  58.6906290  92.2195911  72.9633093  58.3055115  93.1670475
  72.3361969  57.4771976  91.2635708  71.7295218  57.7965117  90.4161739
  73.3170033  57.0647097  91.0269833  71.7344332  56.7244053  91.7727757
  73.8183975  59.4599152  91.5848827  74.1628075  60.1534605  92.3520088
  74.6683645  58.7824249  91.5032482  73.4932280  60.1512718  90.2925396
  74.4163084  60.6632185  90.0206089  73.2878828  59.4897699  89.4509029
  72.7394104  60.8906460  90.5630684  70.1873350  58.6728716  92.8854084
  69.2491770  58.4608126  92.1397400  70.1923084  58.0996323  94.1153717
  70.9297085  58.3379221  94.7631073  69.1265965  57.2783566  94.6228504
  68.8588142  56.6100883  93.8044357  69.6731997  56.5812874  95.8607769
  70.0961924  57.2832012  96.5794468  68.8720322  56.0065460  96.3254356
  70.6487465  55.4827213  95.4562378  70.0351763  54.7174406  94.9808693
  71.5511799  55.7127333  94.8898411  71.0749292  54.7285652  96.6715622
  71.8282080  55.2161694  97.2903633  70.2167511  54.5558834  97.3210335
  71.7529774  53.4412527  96.0962105  71.0883665  52.9540443  95.3827572
  72.6490545  53.7585926  95.5628681  72.0512390  52.5482273  97.2034264
  72.7256060  51.8170404  97.0282364  72.3989916  53.0794811  97.9888821
  71.2483549  52.0356226  97.5391579  67.8436852  58.1076241  94.7471523
  66.7874622  57.5681210  94.3796253  67.8415585  59.3589926  95.1791763
  68.6863518  59.7698736  95.5501270  66.5663671  60.1853514  95.2760220
  65.8170176  59.5430803  95.7386875  66.8138361  61.3477850  96.2257099
  67.8431511  61.5623951  95.9383774  66.1864138  62.2131062  96.0120201
  66.7098999  60.9831762  97.7013874  65.6786633  60.9020758  98.0450153
  67.2969151  60.0747776  97.8367329  67.1037626  62.0839119  98.6651039
  68.1900406  62.1444225  98.5984612  66.6657257  62.9869604  98.2399845
  66.5979767  61.8984985 100.1123142  65.5249023  61.7189360 100.0461864
  67.0526600  61.0306549 100.5900288  66.8563175  63.1108522 100.8899879
  66.5120268  62.9846001 101.8310738  67.8649330  63.1468773 100.8512688
  66.4419889  63.9477205 100.5051804  66.0763597  60.7294178  93.9275455
  64.8585653  60.8574963  93.6531734  66.9452715  60.9699297  92.9171276
  67.9198694  61.0808754  93.1578732  66.6803885  61.2913084  91.4696026
  65.8635235  62.0090628  91.3943195  67.9387760  61.8391705  90.7953453
  68.7157583  61.0935163  90.9638596  67.7117205  61.8249369  89.7293568
  68.3343506  63.2900286  91.2480545  68.4562969  63.4220505  92.3231411
  69.3126106  63.4974718  90.8143806  67.2847176  64.4144964  90.8747387
  66.8187904  65.1355839  91.7595768  66.9317532  64.5778942  89.5944881
  66.4856005  65.4781389  89.4914627  67.6163244  64.3426609  88.8901234
  66.2015438  60.0247002  90.7086277  65.4496431  60.1701069  89.7679138
  66.6390562  58.8153076  91.0748005  67.4167109  58.7177324  91.7118645
  65.9349823  57.5681019  90.6556511  65.6925392  57.5496435  89.5931149
  66.8317652  56.3244343  90.9623051  67.7939224  56.3493633  90.4507065
  67.0837831  56.2723351  92.0214844  66.0678673  55.0442219  90.5938053
  65.0616598  55.0333738  91.0127735  66.1463833  54.6751404  89.1365051
  67.1847391  54.5419121  88.8329029  65.5434418  53.8077641  88.8677597
  65.6453753  55.4685831  88.5819340  66.7889690  53.8748074  91.3044167
  66.2032938  52.9767609  91.1079216  67.8439188  53.7564373  91.0570908
  66.8080711  54.0705585  92.3765182  64.5206070  57.4487257  91.3200855
  63.5457420  57.1338940  90.6613922  64.2803240  57.8112936  92.5748539
  65.0527143  57.9448080  93.2117844  62.9169989  57.8918123  93.1584072
  62.4822950  56.9002390  93.0322552  63.0283642  58.1260729  94.6572399
  64.0513754  57.8762436  94.9385548  62.8182840  59.1600704  94.9307632
  62.1367741  57.2693014  95.5569267  62.2724342  56.2160301  95.3113365
  62.3784113  57.5393438  96.5849304  60.6221581  57.5299263  95.3288651
  60.5702734  58.5639715  94.9880314  60.4238033  56.9970512  94.3989182
  59.7446203  56.9666243  96.4072418  59.5572042  55.9822845  96.2805843
  59.1432762  57.5908566  97.3446751  58.4262419  57.0588923  98.2648373
  58.2716227  56.0610580  98.2877731  57.9333973  57.6536894  98.9155388
  59.2197323  58.8404131  97.3596382  59.5854521  59.3292046  96.5550137
  58.8230515  59.4217968  98.0840302  62.0456266  58.9396858  92.5372601
  60.7869816  58.7576151  92.5809574  62.5856781  59.9942207  91.9876957
  63.5410643  60.1799250  92.2576046  61.9063854  60.8820152  90.9898281
  60.8975935  61.0551596  91.3646221  62.6345587  62.2430277  90.8150673
  63.6473751  61.9633102  90.5251408  62.1029329  62.7668762  90.0206661
  62.6976681  63.1543922  92.0600414  63.5611963  62.8808403  92.6663399
  62.8280735  64.1691685  91.6841125  61.4385653  63.1448078  92.9571724
  61.6631937  63.0048466  94.1557026  60.3103113  63.3603430  92.4823284
  61.5587902  60.2462435  89.6304989  60.5101490  60.6130362  89.0668297
  62.4139786  59.4054651  89.1029453  63.1869268  59.1140366  89.6840858
  62.1727514  58.5454130  87.9588509  61.8500137  59.2944670  87.2357559
  63.3606529  57.8392220  87.3124027  63.8548470  57.2796202  88.1065845
  62.9766321  57.1136665  86.5953255  64.4329357  58.6703396  86.5731907
  64.4665289  59.9877262  86.5502548  63.8542032  60.6248093  87.1712112
  65.4740286  60.3767776  85.7196808  65.7790518  61.3230038  85.5415821
  66.1315489  59.3079615  85.1396179  67.2185326  59.1811609  84.3217754
  67.6371431  60.1287699  84.0164948  67.6339960  57.9557896  83.8792706
  68.4559011  57.8930569  83.1814671  66.9164419  56.8152761  84.2268753
  67.3470783  55.8973074  83.8550186  65.8361149  56.9151878  85.1064110
  65.2706480  56.0489321  85.4166603  65.4274893  58.1682253  85.6510544
  61.0349512  57.5325871  88.1640434  59.9497271  57.6332474  87.5777149
  61.2405777  56.6121769  89.0645599  62.0060778  56.7839098  89.7006512
  60.2667189  55.5072832  89.3876743  59.3026257  55.9610605  89.1580868
  60.4199743  54.4132137  88.3342361  60.4676294  54.9093866  87.3648834
  61.4123487  53.9688349  88.4105587  59.2825222  53.3607435  88.3383369
  58.2209921  53.6358261  88.9651489  59.5251465  52.2680616  87.7633286
  60.4192066  55.1327896  90.8350182  61.5582752  54.9062014  91.3377285
  59.3486786  55.1160955  91.6336918  58.5195446  55.4524422  91.1651802
  59.2742348  54.3906927  92.9439354  59.7931814  54.9790621  93.7006474
  57.8444958  54.3132591  93.4434032  57.6073313  55.2500153  93.9477253
  57.1637583  54.1047812  92.6180363  57.6116133  53.2551670  94.5095921
  56.5240622  53.2603931  94.5825005  57.8288031  52.2432041  94.1677380
  58.2199287  53.4291172  95.8826828  57.5836325  53.0506182  96.9258595
  59.2234850  54.1614342  96.0254478  59.9203062  52.9707336  92.8525066
  59.7403812  52.3918009  91.7360497  60.6222725  52.5030947  93.8904476
  60.4977655  53.0698681  94.7171116  61.6445971  51.4612770  93.8807297
  61.2667990  50.5183458  93.4854221  62.7837276  51.8398142  92.9261112
  63.2938433  50.9363699  92.5919533  62.2566843  52.1858263  92.0369530
  63.7725019  52.9465199  93.4116364  64.7192955  52.6437807  94.1463661
  63.6633205  54.1715384  93.0075169  64.4705629  54.7673655  93.1235123
  62.8771448  54.4627094  92.4442768  62.3242664  51.0726738  95.2113628
  62.4070644  51.9429779  96.0478878  62.7238703  49.8340273  95.3596401
  62.4731827  49.1063404  94.7056389  63.5590982  49.3860817  96.4918804
  63.0641651  49.8601389  97.3394680  63.3975649  47.9056311  96.6607094
  62.3752022  47.7566004  97.0080662  63.4384108  47.4992800  95.6501102
  64.4092941  47.2349215  97.6188374  65.4102135  47.4103737  97.2245312
  64.3793964  47.7775764  98.9896584  63.3505487  47.7101231  99.3432522
  64.9932194  47.0811319  99.5608711  64.7664261  48.7963581  99.0094948
  64.1724634  45.7469940  97.8388786  65.1258755  45.2623653  98.0492306
  63.4803009  45.4033756  98.6076069  63.8844824  45.4360199  96.8346596
  65.0400305  49.8888350  96.3070107  65.8596563  49.2814398  95.6384277
  65.4495192  50.9553671  97.0100117  64.6779156  51.4466667  97.4382114
  66.7589092  51.5152836  97.0494652  66.9809771  51.8072414  96.0230350
  66.8124533  52.6747084  98.0010891  66.4639568  52.4718332  99.0137577
  67.8456354  53.0051327  98.1081009  66.0566950  53.9145517  97.4382973
  66.3867760  54.2007256  96.4396763  65.0178576  53.5939217  97.3600960
  66.0404968  55.1438570  98.3878326  66.9477987  55.1724911  98.9912224
  66.1361361  56.0982656  97.8700829  64.8282766  54.9925041  99.2814922
  63.9836311  55.1115513  98.6028957  64.7923470  53.9810133  99.6860790
  64.7685480  56.0362673 100.3678703  65.4972219  55.8493423 101.0418129
  64.9576759  56.9197083  99.9163532  63.9503288  56.0075092 100.9593010
  67.8866196  50.5311871  97.2334576  68.9727116  50.8175659  96.7327118
  67.6919317  49.4297457  97.9071712  66.8141508  49.2683125  98.3799648
  68.7644720  48.3993387  98.0406284  69.7470951  48.8502169  97.9018784
  68.8372898  48.0343962  99.5565510  67.9455471  47.4622250  99.8125172
  69.7655392  47.5244093  99.8141575  68.9261675  49.2777967 100.5372810
  68.1969500  49.2793894 101.5823174  69.6581316  50.2471924 100.2569962
  68.6155701  47.1303177  97.0878601  69.0797043  46.0608053  97.4512863
  67.9743195  47.2899914  95.9480286  67.4389458  48.1288528  95.7754421
  67.7836132  46.2596703  94.9123955  68.5624743  45.5330133  95.1435566
  66.3471794  45.6784344  95.0297832  66.2173510  45.5543470  96.1048889
  65.6150198  46.4279699  94.7293854  66.2715197  44.3497515  94.2659473
  65.1247883  43.8743973  94.0351868  67.3001194  43.6588860  94.0059280
  68.0319738  46.8363380  93.4443569  68.5457039  46.1778593  92.5638485
  67.4761629  48.0310488  93.1993866  66.7823648  48.2933855  93.8848972
  67.4572897  48.9103460  91.9786549  66.9021368  48.3873367  91.1999607
  66.7849827  50.2349043  92.2463799  67.3004341  50.8670187  92.9694653
  66.6514206  50.8020067  91.3251591  65.4635811  50.0443411  92.8003311
  65.2922964  50.8059502  93.3590984  68.7956142  49.0321159  91.2240410
  68.7832975  49.0507793  89.9785995  69.9095392  49.2995358  91.9561100
  69.9661207  49.3234015  92.9642487  71.2433338  49.2344952  91.2967300
  71.1641836  49.5344877  90.2518177  72.1992111  50.2621412  91.8210220
  72.6671553  49.9661827  92.7599335  72.9686451  50.2774096  91.0491180
  71.6681290  51.6852283  91.9640732  70.8356619  51.4840937  92.6383400
  72.7103901  52.6204538  92.5403404  73.0143166  52.2092104  93.5029507
  73.5317326  52.6274252  91.8237877  72.3523521  53.6406088  92.6788616
  71.1500788  52.3111916  90.7244587  71.9455051  52.5145054  90.0074863
  70.4666090  51.6297197  90.2179241  70.6782150  53.2808685  90.8831024
  71.8569851  47.8441191  91.2364388  71.6464758  47.0747662  92.1441650
  72.7374458  47.5236702  90.2418232  73.1620169  48.2611561  89.1039371
  73.8120317  49.1002464  89.3519402  72.2885466  48.6341190  88.5691071
  74.0049553  47.2986174  88.2082272  74.8708296  47.7651596  87.7384472
  73.3237362  46.9048119  87.4539375  74.3837786  46.1300564  89.0448761
  75.3696203  46.2101460  89.5029163  74.3954849  45.1585293  88.5508060
  73.3072758  46.1509132  90.1665401  72.4541807  45.5356503  89.8805618
  73.8282633  45.5039597  91.5124607  74.2596006  46.1613178  92.4606419
  73.8821507  44.1526890  91.5211010  73.3498430  43.6882544  90.7992649
  74.3106413  43.5059786  92.7461815  73.9850330  44.1676140  93.5488701
  73.3970881  42.3046350  92.9316998  72.6602221  42.5966167  93.6799526
  72.8467846  42.1311045  92.0069599  73.9269352  41.1463118  93.5453796
  74.4928026  40.6834555  92.9231644  75.7979012  43.2855177  92.9449844
  76.3060808  43.3506870  94.1234016  76.4725018  43.2095623  91.8304539
  75.8838844  43.2063818  91.0097122  77.9518890  43.1697369  91.8069458
  78.3043051  42.5992155  92.6662540  78.4048033  42.4253368  90.5054855
  78.0118656  41.4088058  90.5243492  78.1392479  43.0335140  89.6407890
  79.8866796  42.2668743  90.3871918  80.4924488  43.1602383  89.7895718
  80.4258347  41.1985350  90.8595085  81.4317799  41.1081171  90.8592033
  79.8461485  40.5644560  91.3905621  78.6434984  44.5202255  91.8389988
  78.2725811  45.4503345  91.0654926  79.7046328  44.7488976  92.6960087
  80.1467133  43.8884830  93.7641239  80.6518841  43.0163193  93.3491039
  79.3066692  43.5891819  94.3908882  81.0899448  44.6690273  94.5934677
  81.7698574  43.9344454  95.0249958  80.5311012  45.0967169  95.4258633
  81.7079258  45.6334352  93.5911274  82.5458717  45.1968145  93.0477142
  82.1472549  46.5142536  94.0593719  80.5197716  45.9901381  92.7103424
  79.9070978  46.7184448  93.2416725  80.9806156  46.7009974  91.3840961
  80.9067154  47.9330444  91.2460995  81.5665340  45.9545279  90.4054260
  81.7860317  44.9766445  90.5305767  81.9047260  46.5354681  89.0972328
  82.3995781  47.4964905  89.2374420  82.7379227  45.6220531  88.2144451
  82.1509361  44.7749186  87.8596115  83.3141994  46.3386488  86.9659996
  83.6726379  45.7042980  86.1553192  82.5830078  47.0081520  86.5129757
  84.2085266  46.8853664  87.2649765  83.9496708  45.0405121  88.9697742
  83.6059380  44.2148113  89.5928001  84.6177578  44.5885563  88.2366276
  84.8691654  46.0452461  89.6752930  85.4304981  46.6027021  88.9254665
  84.2659187  46.7682934  90.2242756  85.5642509  45.4394579  90.2566624
  80.5791759  46.9212389  88.2765484  80.4470348  48.0389881  87.9014587
  79.6381998  45.9947729  88.1013584  79.7734451  45.0823927  88.5129070
  78.4550095  46.2863541  87.2682762  78.7104559  46.3645601  86.2115192
  77.4626780  45.0343466  87.3130608  77.2442865  44.8015261  88.3552742
  76.5778208  45.1634264  86.6897964  78.0324507  43.7201023  86.9458103
  77.2452164  42.7296877  87.0135784  79.2803526  43.5609293  86.7024517
  77.7585506  47.5484085  87.7198315  77.3344469  48.3954954  86.9176865
  77.5876951  47.6677942  89.0393829  77.8904819  46.8481064  89.5458603
  76.9870853  48.7842560  89.8215294  75.9181786  48.9319801  89.6675301
  77.2179747  48.3369875  91.2696171  76.4407301  47.6118755  91.5108871
  78.2003593  47.8907013  91.4240456  77.1395731  49.3411493  92.3799229
  78.3618259  49.8988628  92.8380871  79.3553972  49.6244764  92.5157070
  78.3393431  50.7968235  93.9433670  79.3056393  51.1719704  94.2465591
  77.1617889  51.1177301  94.6334934  77.1783733  51.7362738  95.5186653
  75.9784222  50.5004358  94.2087269  75.0789547  50.7216358  94.7640991
  75.9224272  49.6434927  93.0358887  75.0609064  49.0484762  92.7710438
  77.8056192  50.1168013  89.5899105  77.4159479  51.1907005  90.0238991
  79.0167141  50.1518106  88.9488125  79.3411541  49.3009758  88.5118675
  79.8311567  51.3291311  88.6591911  79.6848774  52.0490170  89.4644642
  81.3472939  51.0451508  88.6246872  81.5669060  50.3198051  87.8412724
  81.8522549  51.9970226  88.4601879  81.6708851  50.4149055  89.8214340
  81.2845993  49.5371532  89.7774792  79.4661283  52.0656490  87.3630714
  79.6962357  53.2300520  87.1798897  78.7670040  51.3783741  86.4527607
  78.6267614  50.4118109  86.7100334  78.5235262  51.8834829  85.0096321
  78.7158394  52.9557467  84.9726677  79.4943285  51.1918926  84.0942860
  79.1668844  50.1595497  83.9711952  79.3725586  51.8126440  83.2066154
  81.0003853  51.3118076  84.4960880  81.6428757  52.5554848  84.3458462
  81.1038208  53.4622574  84.1143322  83.0342960  52.5985718  84.7342587
  83.5587978  53.5365963  84.6274471  83.7643051  51.4371252  85.1332092
  85.1367760  51.4876080  85.2357674  85.4174805  50.5734348  85.3199959
  83.1165504  50.1734781  85.3595066  83.5905457  49.3220949  85.8252144
  81.6898632  50.1763344  85.0519466  81.0018539  49.3767977  85.2838612
  77.0847416  51.7646360  84.5841599  76.7768383  52.3405409  83.5684967
  76.2040424  51.1845207  85.4337025  76.5489435  50.8827353  86.3337517
  74.7662592  50.9432411  85.1132488  74.6880293  50.4612589  84.1387367
  74.2724848  49.8805380  86.0925102  74.9588108  49.0493727  85.9305668
  74.4654369  50.2563763  87.0973015  72.8607607  49.4718552  85.8007812
  72.4798393  48.4498501  85.0295067  73.2290554  47.7409458  84.7093105
  71.0793972  48.4251404  85.0191212  70.5573606  47.9117346  84.3234348
  70.5473185  49.4028616  85.8290195  69.2139053  49.7386646  86.0054588
  68.4343433  49.1535616  85.5403328  68.9548016  50.9114933  86.7557621
  67.9171038  51.1989307  86.8391895  70.0334883  51.6426659  87.3623562
  69.7174311  52.5238323  87.9009247  71.3921690  51.2455463  87.0804882
  72.2104502  51.8515825  87.4404144  71.6317844  50.1241589  86.2841892
  73.9478445  52.2000217  85.0668526  73.1920624  52.4017715  84.1232204
  74.1606045  53.1772518  86.0056496  74.7972202  52.8929234  86.7363930
  73.6428022  54.5125198  85.8337688  72.5729418  54.5646191  85.6318092
  73.7410641  55.4149771  87.1234131  74.6704674  55.1295280  87.6161957
  73.7242937  56.9048214  86.8989563  73.7769651  57.3886156  87.8742790
  74.5737696  57.1483374  86.2608433  72.8037548  57.2604227  86.4360809
  72.5592375  55.1102877  88.0987358  72.5106812  54.0605974  88.3883667
  72.7202511  55.7279825  88.9822674  71.6352367  55.3291416  87.5635338
  74.3116808  55.1496315  84.6390152  73.5626793  55.7750845  83.8641548
  75.5383348  55.0613165  84.3554115  76.0778379  54.5043755  85.0026035
  76.1342859  55.7983065  83.2067299  75.7970285  56.8340826  83.1676483
  77.6531506  55.7626009  83.2783985  78.0514050  56.0900021  82.3180294
  78.0717945  56.4202166  84.0402222  78.0778122  54.7617340  83.3560085
  75.5586624  55.1563358  81.8546772  75.2162838  55.8252287  80.9198475
  75.2791166  53.8439989  81.7975044  75.6030989  53.2031536  82.5077534
  74.3745947  53.3240461  80.8011532  74.8049402  53.4806252  79.8120165
  74.3699217  51.8015146  80.9848404  75.3759909  51.4156294  81.1492157
  73.8047981  51.5986109  81.8945408  73.9528656  51.4364100  80.0462914
  72.9171848  53.8373804  80.7252121  72.4820375  54.0970039  79.5662785
  72.2027826  54.0793419  81.8193245  72.6726389  53.9714479  82.7068520
  70.7538271  54.4667053  81.8167782  70.3466272  53.8613844  81.0069180
  69.9786568  54.0647078  83.0796719  70.5573797  54.2704296  83.9801502
  69.0347719  54.6083260  83.1204033  69.6190691  52.6044273  83.0334473
  68.4536266  52.2381973  82.9828072  70.5590868  51.7231226  83.1312180
  70.2538204  50.7925129  83.3779526  71.5463686  51.9041681  83.2434464
  70.5172825  55.9775543  81.4736271  69.4758129  56.3497591  80.9883022
  71.5296555  56.8590307  81.6337109  72.3753786  56.5169048  82.0670795
  71.2154388  58.2927036  81.5206242  70.3270769  58.4502363  82.1322536
  72.3677969  59.0555668  82.1406174  73.3140421  58.8195848  81.6537571
  72.0905781  60.0824738  81.9024563  72.4793530  58.9489079  83.6470127
  72.3543882  57.8968334  83.9031887  73.9182472  59.3078661  84.0276241
  74.6449709  58.5370541  83.7710762  74.2476702  60.2037477  83.5013390
  74.0026903  59.5097256  85.0954342  71.5347815  59.7975874  84.4539738
  70.5373096  59.7881460  84.0145779  71.5009069  59.5144701  85.5060196
  71.8867922  60.8245277  84.5518684  70.8209753  58.6922169  80.0531769
  71.5030718  58.2600880  79.0877914  69.8170137  59.4972515  79.7363520
  68.9762592  60.2417231  80.6885338  69.6505499  61.0201931  81.0455036
  68.5765362  59.5666122  81.4452076  67.8915882  60.8128595  79.8380423
  68.2934999  61.7509651  79.4552565  67.0047092  60.9537363  80.4558659
  67.7339315  59.8355913  78.6458540  67.2575140  60.2777910  77.7708721
  67.2184610  58.9733553  79.0688705  69.1835833  59.5692968  78.3691311
  69.3554020  58.6038113  77.8933001  69.8808336  60.5941105  77.4120474
  69.4879866  60.7842112  76.3423157  71.0871887  61.1791039  77.7932358
  71.4770842  60.9054470  78.6838531  71.8292093  62.1056414  76.9744921
  71.1941671  62.9195261  76.6246176  72.8288889  62.7933788  77.9292536
  73.1401968  63.6925888  77.3976469  72.2036791  63.3258581  79.2448854
  71.3403559  63.9511585  79.0173340  71.7506695  62.6448059  79.9653387
  72.9070520  63.9411020  79.8059988  74.1795349  62.0850563  78.2833958
  74.8027754  61.8856955  77.4116564  74.7694159  62.7992964  78.8578558
  74.0488386  60.7704496  79.0111017  73.5313654  60.0556612  78.3712482
  75.0269461  60.4433727  79.3638420  73.3692169  60.9126472  79.8513317
  72.5692940  61.4805365  75.7418871  72.6406002  60.2808094  75.6517315
  73.1390667  62.3657703  74.8808002  72.9167318  63.3112812  75.1576948
  73.9593506  62.0736980  73.7006378  73.3125734  61.5843582  72.9723978
  74.2906857  63.3744001  72.9872513  73.3376646  63.8888836  72.8641176
  74.9585819  63.9578772  73.6209440  75.0203228  63.2187033  71.6003084
  74.2968988  62.7696276  70.7038593  76.2837553  63.3466387  71.5148067
  75.2483082  61.3246346  73.9060068  75.9699869  61.5628290  74.9206638
  75.5975866  60.5230951  72.9077053  74.9477816  60.4823971  72.1355629
  76.7041826  59.6418333  72.8773642  76.6251612  58.9612961  73.7251377
  76.7173529  58.8242912  71.5695095  76.7790508  59.5168114  70.7300425
  77.6212502  58.2787657  71.2984610  75.3854036  58.1154823  71.2429619
  74.3568754  58.7821484  71.0764694  75.2484941  56.8447161  71.2544918
  78.0896854  60.2741623  73.0981016  78.8950157  59.7402668  73.8116550
  78.3151960  61.5885115  72.8588820  77.6068354  62.1411371  72.3974371
  79.5841122  62.1934700  73.2408667  80.4236412  61.5944576  72.8880501
  79.6752882  63.5136366  72.4762440  80.6169987  63.9967012  72.7368784
  79.6569920  63.2593441  71.4164782  78.7107086  64.4166994  72.8612232
  77.8432178  64.0508604  72.6735544  79.7015715  62.3414230  74.7118664
  80.8256912  62.2668839  75.2459192  78.5576868  62.5599909  75.4706383
  77.7209854  62.4643469  74.9130630  78.6020851  62.5253630  76.9894028
  79.5376968  62.9915953  77.2982025  77.4988270  63.4239531  77.6169443
  76.6891193  63.2773447  76.9021177  77.3301935  63.0369425  78.6218739
  77.6312113  65.0210094  77.5627375  78.2552147  65.3544521  78.3919144
  78.2000494  65.6387329  76.2526464  79.0718317  65.0470448  75.9733438
  77.4119473  65.6234694  75.4998159  78.5160923  66.6795492  76.3228035
  76.2719536  65.5885077  77.8532696  75.8748007  65.3912354  78.8489866
  76.1642885  66.6141081  77.5001955  75.5934381  65.2175474  77.0850849
  78.7489939  61.2103796  77.6254272  79.5020247  61.0516596  78.5854387
  78.1424522  60.2244806  76.9543362  77.6603317  60.4250097  76.0897827
  78.1894112  58.7633133  77.3403978  77.9771328  58.6048698  78.3977270
  77.1852684  57.9833317  76.5062904  77.4947119  58.0196905  75.4617691
  77.3334789  56.9281244  76.7358017  75.6947660  58.4377718  76.6969538
  75.4508924  58.4213734  77.7591991  75.6996298  59.4734335  76.3571358
  74.6571064  57.6946878  75.7708645  73.6346292  58.0607224  75.8639145
  74.9622011  57.8631449  74.7380829  74.5896721  56.3045835  76.1133194
  75.1134348  55.6654549  75.5325508  73.9712000  55.7973433  77.1286011
  73.2654476  56.3865519  78.1177950  73.0213261  57.3661470  78.1479263
  72.8486824  55.6976938  78.7276173  74.0491247  54.5438862  77.1795940
  74.6591091  53.9700699  76.6150045  73.3630943  54.0335417  77.7171898
  79.5888472  58.1861973  77.1238852  80.1300335  57.6707792  78.0766630
  80.3032494  58.5504532  76.0202217  79.7764063  59.0272617  75.3024530
  81.6773033  58.1724596  75.7745886  81.7649460  57.0965481  75.9257078
  81.9951916  58.3795929  74.2607450  81.7850494  59.4363451  74.0957451
  83.4857464  58.2192230  73.9386606  83.6163235  58.1536627  72.8584957
  83.9992332  59.0959835  74.3332720  83.8617039  57.2625113  74.3012285
  81.0841751  57.4962664  73.2829332  81.5581226  56.5166712  73.2207346
  80.0539207  57.4479389  73.6355782  80.9576130  58.2400560  71.8919754
  81.9408512  58.3642387  71.4381838  80.2669239  57.7446890  71.2095785
  80.5553436  59.2300701  72.1068048  82.5440979  58.8662672  76.7742300
  83.3710861  58.0810404  77.3487282  82.2637844  60.1181889  77.0966434
  81.5419102  60.6136894  76.5931845  82.9568768  60.7713556  78.1712675
  84.0248871  60.7306290  77.9572630  82.5823689  62.2594786  78.1607008
  83.0956745  62.6792526  77.2955894  81.5192699  62.4898243  78.0910110
  83.1892300  63.0239630  79.3812132  82.7968884  64.0370417  79.2926502
  82.7964497  62.5573444  80.2845860  84.6597672  63.1115627  79.4407606
  85.4473686  62.6568794  78.6582899  85.0767899  63.8765240  80.4319477
  86.0698891  63.9217663  80.6102562  84.3774319  64.1014814  81.1250591
  82.8839970  60.0702715  79.5039272  83.9437199  59.8412371  80.0972462
  81.6653156  59.6615601  80.0161266  80.9090328  59.8618984  79.3773746
  81.5135956  58.8961458  81.2496567  81.9882107  59.4411564  82.0656300
  80.0451756  58.6469078  81.5845966  79.6070814  57.9500437  80.8700657
  80.0381756  58.0307436  82.4837017  79.1348839  59.9203444  81.7716408
  78.9990377  60.4613590  80.8351803  77.7269697  59.3628597  81.9585609
  77.0649719  60.2282143  81.9266796  77.4944735  58.6653709  81.1538506
  77.6118422  58.7989426  82.8842163  79.6172523  60.7431269  82.9548454
  80.4842186  61.2960005  82.5931740  78.8630199  61.5094995  83.1334877
  79.7159386  60.0668859  83.8039970  82.2551441  57.5486374  81.0871410
  82.6571655  56.9707394  82.0631027  82.4066734  56.8999958  79.9204206
  81.9677830  57.3171854  79.1120720  83.1692123  55.5923557  79.8467112
  82.8965950  54.9470425  80.6817913  82.7153969  54.8605156  78.5458803
  81.6269207  54.8031521  78.5522509  83.1265545  55.3403139  77.6577091
  83.2448959  53.4066820  78.4981775  84.3201542  53.2337904  78.4531403
  82.5167465  52.5483370  79.5197344  81.4707851  52.4075174  79.2472792
  83.0454254  51.5951395  79.5167017  82.6143360  52.9660034  80.5217934
  82.9617119  52.7825022  77.1396160  83.3584595  53.4705067  76.3930559
  83.2649708  51.7385006  77.0609093  81.8792534  52.7362204  77.0202637
  84.6623611  55.8315039  79.9368334  85.3273773  54.8833275  80.2827168
  85.1771545  56.9733381  79.5204306  84.5666409  57.6885605  79.1518688
  86.6629505  57.1993637  79.3422127  87.1977711  56.2621450  79.4960928
  87.1617126  57.7707720  77.9846811  88.2409763  57.8031158  77.8354979
  86.7195702  57.0811415  77.2656488  86.5506077  59.2119932  77.7270603
  85.4624653  59.1539240  77.7530575  86.8935299  59.9018669  78.4981489
  87.0123005  59.7312403  76.3138866  88.0611801  59.4749594  76.1646652
  86.4037514  59.3266058  75.5051661  86.8281364  61.2649155  76.3418341
  85.7590008  61.4761400  76.3624191  87.2833443  61.7423534  77.2095585
  87.4589825  61.9413614  75.1363134  86.8031502  61.8734360  74.3712187
  87.6084328  62.9275036  75.2953625  88.3356571  61.4771891  74.9463558
  87.2457027  58.2230902  80.4061794  88.4776592  58.3680534  80.5659866
  86.3844299  58.8570452  81.2014103  85.4236603  58.9745808  80.9129524
  86.9215775  59.4570827  82.5526810  87.6023865  60.2752781  82.3178101
  85.7682228  60.0080395  83.3287144  84.9095726  59.3404198  83.2573128
  86.0278225  60.2906084  84.7900486  86.7883396  61.0497808  84.9727249
  85.1566505  60.6619024  85.3297710  86.3064384  59.3658447  85.2953053
  85.2706146  61.3613939  82.7864933  85.8649445  62.1849489  83.1822586
  85.2977943  61.4539242  81.7007637  83.8346863  61.7752123  83.2018089
  83.0833244  61.0474586  82.8953457  83.7853909  62.1244049  84.2331791
  83.7223816  62.6387930  82.5462723  87.6826477  58.3579445  83.3047771
  87.2949123  57.1698904  83.3481216  88.7664127  58.7361050  83.9998531
  89.0693665  59.6838284  83.8262558  89.7210503  57.8254557  84.6148968
  89.4686508  56.7718458  84.4952869  91.0536671  58.0032730  83.8822651
  91.8553829  57.3588133  84.2428684  90.9546852  57.8372717  82.8095341
  91.6523361  59.4041872  83.8109112  92.7308273  59.5697117  83.1783581
  91.1205864  60.3960323  84.3188572  89.8306274  58.0301428  86.1142349
  90.9166336  57.9709196  86.7469120  88.7067986  58.4443140  86.6435242
  87.8449154  58.4226608  86.1174297  88.6540699  58.7903261  88.0528545
  89.3091011  58.2402039  88.7284279  89.1506004  60.2735138  87.9830551
  90.1440430  60.2922964  87.5349236  88.4425926  60.8933401  87.4329281
  89.2690945  60.7437611  89.3292904  89.5926380  61.6388893  89.2041302
  87.2558117  58.7288523  88.6365128  86.5402603  59.6958065  88.3522701
  86.8572712  57.6332474  89.3196678  87.5769806  56.9412613  89.4721985
  85.5513763  57.3389435  89.6924973  85.0185680  57.0613146  88.7830162
  85.4632092  56.1149168  90.6323338  84.3978024  55.9922552  90.8271980
  85.9835911  55.2028704  90.3399849  85.9800053  56.4400959  91.5352631
  84.8320293  58.4746265  90.3835773  83.6316776  58.5775185  90.2897930
  85.5252361  59.2431259  91.2769032  86.5256119  59.1909504  91.4058399
  84.9249458  60.4312658  91.9360828  84.0683842  59.9971437  92.4517822
  85.8434582  61.0298920  92.9929447  85.8150673  60.2633047  93.7673092
  87.3398399  61.2754440  92.6945591  87.2918606  61.9788599  91.8632889
  87.9194164  61.6778803  93.5253620  87.8611565  60.3905153  92.3295403
  85.1096249  62.2771788  93.7101650  85.8611774  62.8438568  94.2598438
  84.8136044  63.0116940  92.9611969  83.9036465  62.0330429  94.5244980
  83.1892776  61.5448809  93.8615799  84.2397213  61.3564968  95.3102779
  83.4942150  62.9274654  94.9940491  84.2689323  61.4416265  90.8860397
  83.1033134  61.7922163  90.8678150  85.1234150  61.9051266  90.0004578
  86.1106586  61.7590857  90.1557732  84.7605991  62.8596067  88.9745331
  84.2379475  63.7077475  89.4167995  85.9899998  63.3604097  88.2192612
  86.3259602  62.6388454  87.4745655  85.6654930  64.1367245  87.5263405
  87.2196770  63.8035011  89.0722179  87.7321815  62.9164362  89.4444466
  87.9434299  64.2228079  88.3733177  86.9844723  64.8373985  90.1409149
  86.0211277  65.6570292  90.1138306  87.7265072  64.8293877  91.2156582
  87.4945545  65.4292011  91.9944572  88.4450626  64.1313314  91.3441181
  83.8072014  62.2771692  87.8843975  83.1460190  63.0540848  87.2009277
  83.8032246  60.9614277  87.6698780  84.4526863  60.4135561  88.2158947
  82.6953697  60.2884865  86.9644928  82.4751663  60.8019257  86.0285473
  83.1225681  58.8396978  86.6714191  84.1753674  58.7337494  86.4096928
  82.9270267  58.2184982  87.5454807  82.4462509  58.4086275  85.3608608
  81.3637733  58.5229158  85.4180717  82.8719425  58.8618422  84.4656086
  82.5266361  56.9572496  85.1305103  81.9268799  56.6387367  84.2779064
  83.5565567  56.6596460  84.9335957  81.9521999  56.1801624  86.2550545
  80.9520817  56.1880875  86.3957977  82.6399326  55.3695631  87.0663166
  83.8878441  55.0523472  86.9672680  84.3368053  55.4296207  86.1449528
  84.2092705  54.2246342  87.4485970  82.0483494  54.7583485  88.0470371
  81.0685921  54.8893118  88.2544518  82.5466537  54.0993261  88.6279678
  81.3599014  60.3976679  87.6821136  80.4171658  60.8588028  87.0700359
  81.2538719  60.0656414  88.9566326  82.1555614  59.8926640  89.3775177
  79.9887466  60.1180601  89.7128963  79.2430925  59.5801592  89.1274452
  80.1773357  59.4639349  91.0699654  80.4859829  58.4339762  90.8910465
  80.9643936  59.9032307  91.6828823  78.9543390  59.4145966  91.9139671
  78.7349749  60.4531622  92.1616745  77.6628876  58.8453388  91.2485886
  77.3767853  59.4107866  90.3617287  77.8423405  57.7932453  91.0272312
  76.7967367  58.9421797  91.9031811  79.2313004  58.6266756  93.2346630
  79.8865938  59.2691040  93.8228512  78.2270050  58.6567068  93.6572647
  79.7565746  57.6815462  93.0971241  79.4565105  61.5006447  89.8558712
  78.2750845  61.7378378  89.9388027  80.3328037  62.4909735  89.8878860
  81.3047504  62.2267914  89.9629021  80.0403500  63.9200687  89.8917198
  79.1951847  64.1083002  90.5538177  81.2275028  64.7729158  90.3689384
  82.0874023  64.5445538  89.7392368  80.9911156  65.8202410  90.1809883
  81.8241501  64.6311331  91.7905235  81.0900784  64.9399567  92.5347519
  82.0477962  63.5880899  92.0144367  83.1047916  65.5414963  91.9663715
  83.5006237  65.3255558  92.9587364  83.8619804  65.3638077  91.2026978
  82.7599049  66.9692802  92.1696281  81.9593430  67.1391821  92.7615166
  83.5337925  68.0488682  92.1289825  84.7935867  67.9152393  91.8365288
  85.2379608  67.0190907  91.6966629  85.3388500  68.7653017  91.8229008
  82.9559994  69.2139578  92.5159550  81.9599152  69.2516279  92.6787281
  83.5279655  70.0133371  92.7482128  79.5716095  64.3911171  88.5349178
  78.6168671  65.1359558  88.5610008  80.1086521  63.9397144  87.4531174
  80.9275818  63.3537483  87.3750019  79.5792103  64.1356325  86.0981274
  79.3916559  65.2037525  85.9883881  80.6128120  63.8210583  84.9552155
  81.0081291  62.8093195  85.0458622  80.1273346  63.9372635  83.9862442
  82.0235252  64.9471331  85.1501942  82.7929020  64.0042877  85.7015610
  78.2443762  63.3495331  85.6850338  77.3259211  63.9340782  85.1133156
  78.1196833  62.1656466  86.1950111  78.9115095  61.9172525  86.7706871
  76.7977524  61.4870596  86.3639164  76.2601376  61.4129257  85.4186344
  76.9657135  60.1264334  87.0660686  77.5554276  60.2131224  87.9786587
  75.9785366  59.7877359  87.3805046  77.7050829  59.1577244  86.1348534
  77.1458960  58.9933872  85.2137661  78.5740995  59.7300720  85.8103085
  78.0521154  57.8753138  86.8538952  77.1322536  57.0678902  87.1321583
  79.2535496  57.6118851  87.0389748  75.7162380  62.3833609  87.1256065
  74.6031761  62.5411081  86.5966988  76.0610962  62.8056908  88.3237553
  76.8422937  62.3872471  88.8082504  75.0461674  63.5747766  89.0757275
  74.1355276  62.9815817  88.9922810  75.6226540  63.6815166  90.5134201
  75.9131050  62.7649307  91.0268497  76.5586996  64.2400026  90.5101109
  74.8022604  64.4370317  91.4687061  74.4427299  65.4029751  91.1140347
  73.4995699  63.7557888  91.8443680  73.1445169  64.3440151  92.6905441
  72.7179289  63.7930489  91.0855770  73.7066317  62.7049685  92.0468521
  75.5644035  64.6690226  92.7978611  75.0399303  65.3639507  93.4536839
  75.6064796  63.7277937  93.3459663  76.5829134  64.9412680  92.5210571
  74.8179626  64.9737358  88.5096645  73.7107134  65.4669237  88.7011623
  75.6699371  65.6359720  87.7677727  76.5650320  65.2073097  87.5802898
  75.2846336  66.8923044  86.9761372  74.8705196  67.5933695  87.7007866
  76.5764856  67.5159788  86.3814545  77.3953104  67.2373486  87.0447826
  76.8985701  67.1981239  85.3898239  76.6169405  69.0845060  86.3651466
  75.6127310  69.7241211  86.4872646  77.6740694  69.7340012  86.3868427
  74.1166687  66.6944075  86.0053921  73.0559826  67.2889757  86.1522579
  74.2629242  65.6484795  85.1348877  75.1700592  65.2044630  85.1424122
  73.3168173  65.1280785  84.1723156  72.9765081  65.9090042  83.4922791
  74.0789127  63.9877510  83.3945084  74.3428898  63.3337307  84.2255783
  73.1581879  63.2793093  82.3887062  73.6492109  62.4999523  81.8059540
  72.3427629  62.7734327  82.9056835  72.7011156  64.1161919  81.8606758
  75.3016758  64.6484375  82.6449585  74.9424028  65.4766417  82.0341396
  75.9518576  65.1502323  83.3615971  76.1836195  63.6859560  81.8212891
  75.5716848  63.1445408  81.0998249  76.9926119  64.1883802  81.2909985
  76.5482235  62.8973818  82.4795532  72.0477295  64.6592379  84.8450184
  70.9493780  65.0091600  84.4294834  72.1041203  63.9316559  85.9530258
  72.9997921  63.9283514  86.4197922  70.9489870  63.3385229  86.6500664
  70.3420782  62.8525877  85.8861065  71.3498402  62.2727966  87.6146126
  72.2478580  61.8276310  87.1862507  71.5279818  62.6434088  88.6240768
  70.1308155  61.3036728  87.7082825  69.3103361  61.6338587  88.3453846
  69.8616838  60.9848690  86.7012978  70.6551027  59.7189140  88.5560989
  69.1307163  58.7683487  88.6602306  68.4268522  59.3439817  89.2613316
  68.7118530  58.6698723  87.6587582  69.2248106  57.8203678  89.1899204
  70.0390911  64.4703674  87.3087692  68.8106823  64.4049406  87.2042656
  70.6690264  65.4907179  87.8397369  71.6470051  65.4000854  88.0752087
  70.0231218  66.7289352  88.2876110  69.1203165  66.4912224  88.8502216
  70.9450340  67.5300503  89.2591286  71.9192553  67.6644897  88.7891102
  70.6754732  68.5830832  89.1781044  71.2082243  66.9433212  90.6026936
  72.3033619  66.8247843  91.0929871  70.0968075  66.5891933  91.2723255
  70.2542114  66.1427307  92.1645164  69.1619730  66.7367029  90.9195900
  69.5656538  67.6268959  87.1440125  68.5556459  68.3120966  87.3026752
  70.3399849  67.7160120  86.0602951  71.2441063  67.2699118  86.1208344
  70.0307560  68.6931038  84.9555492  69.7050762  69.5925856  85.4780102
  71.3049030  68.7969780  84.0367413  72.1139097  69.2323494  84.6233082
  71.4983654  67.7887917  83.6703587  71.1269760  69.6400070  82.8227043
  70.3885078  69.2788696  82.1069145  70.8715391  70.6500435  83.1431293
  72.4853516  69.7955894  82.1049404  73.2212114  70.0054264  82.8812027
  72.6770639  68.7809563  81.7558384  72.5151300  70.7762718  80.9563828
  71.8414259  70.4824400  80.1514626  72.1407604  71.7400026  81.3015842
  73.8978815  70.7503986  80.4705715  74.2994356  69.8991346  80.8369255
  73.8101101  70.6827402  79.4666672  74.5054293  71.5372515  80.6490231
  68.8187599  68.1887150  84.0918255  67.8854465  68.9455462  83.8317680
  68.8203573  66.8793154  83.6662674  69.6483755  66.3324165  83.8543987
  67.7436781  66.2515116  83.0055046  67.6826715  66.8375349  82.0884609
  68.0759478  64.8467875  82.5271511  68.1967926  64.1690063  83.3722019
  67.2413492  64.5375633  81.8979263  69.7154236  64.7951174  81.6911030
  70.4586172  65.2112818  82.7203655  66.3681841  66.4219570  83.7827873
  66.2292194  66.2297487  84.9393654  65.3720951  66.7373657  83.0266380
  65.5679035  66.9045687  82.0500088  63.8844776  66.6410065  83.3119678
  63.7930965  65.7526112  83.9368820  63.3561802  67.6521921  84.3876076
  63.5415316  68.6705256  84.0459251  61.8419218  67.6496172  84.6076679
  61.3905334  68.1590605  83.7563133  61.5319729  66.6060829  84.6631336
  61.5683794  68.1365108  85.5437374  63.9283895  67.4377632  85.6245708
  64.8731899  67.6075029  85.6368351  63.0536509  66.3400364  82.0815468
  62.6709604  65.1292324  81.9532204  62.5320053  67.3004103  81.2701225
  62.7805996  68.2593775  81.4667892  61.8853855  67.0038843  80.0308800
  61.1695957  66.1879969  80.1312447  61.1570358  68.2162046  79.5265722
  60.3688574  68.5494137  80.2017403  61.8857002  69.0247297  79.4679499
  60.4928923  67.9759836  78.3066511  59.5364618  67.9637432  78.3884668
  62.8121519  66.4171648  78.8702774  64.0293503  66.5974617  78.8569069
  62.2061634  65.7003880  77.9308939  61.2066889  65.6462431  78.0658722
  62.8780699  65.0732756  76.7743015  63.9125013  65.4041052  76.6815329
  62.7992487  63.5474300  76.8316221  61.7441797  63.2955313  76.9388008
  63.0651903  63.0523491  75.8976650  63.6496019  62.7229309  77.7685499
  63.4941339  61.6524839  77.6341391  65.1374578  62.8667212  77.3618317
  65.4115200  63.9183474  77.2777033  65.7717466  62.4005842  78.1158161
  65.3281498  62.4421358  76.3762045  63.5265017  62.9397058  79.2136812
  62.4871254  63.1003380  79.5000553  63.9919567  62.0993137  79.7286510
  64.1606092  63.7644911  79.5388412  62.2155333  65.6220484  75.4413843
  61.0442114  66.0225677  75.4362345  62.9704237  65.6901884  74.3764353
  63.9547014  65.5452299  74.5504475  62.6947117  66.1993265  73.0263853
  61.6209888  66.2229919  72.8402090  63.1458187  67.6850462  72.9399776
  63.0351448  68.2982874  73.8342857  64.2309523  67.5823689  72.9334879
  62.4670267  68.4907436  71.4896011  61.2644911  68.5470963  72.0689392
  63.3829451  65.3258514  71.8881750  64.2690897  64.5544863  72.1202803
  62.7686405  65.5102587  70.6969976  62.1444035  66.2770891  70.4910851
  63.3489847  65.1359081  69.4182110  63.6215830  64.0845633  69.3262386
  62.2451687  65.4870701  68.4320307  62.1523428  66.5712118  68.4962320
  61.2921953  65.0101137  68.6610842  62.7428293  65.0694799  66.7650223
  64.6755838  65.8079100  69.0743208  64.7676659  67.0264435  69.0864372
  65.7532740  65.0085449  68.9111137  65.5362082  64.0226078  68.9412165
  67.1592522  65.4710722  68.5025454  67.4004507  66.2995052  69.1686010
  68.2248163  64.3643713  68.8211727  68.0723047  64.1985798  69.8876429
  68.2281590  63.4920692  68.1675911  69.6025944  65.0135994  68.7351131
  69.9259090  65.3097773  67.7371931  69.6252489  65.9642458  69.2678928
  70.5936909  64.0249205  69.3616056  71.5097141  64.5494127  69.6334839
  70.2214146  63.7080288  70.3358173  70.9213066  62.6987648  68.6651945
  70.0386286  62.0786190  68.5089922  71.2897205  62.8905010  67.6574183
  71.8294716  61.8021202  69.4609690  72.1373749  61.0281229  68.8898039
  72.6783133  62.2763777  69.7341824  71.4435577  61.3871861  70.2970314
  67.0479107  65.9199667  67.0218992  67.7956343  66.7909813  66.6823053
  66.0976410  65.3341055  66.2669992  65.4806280  64.6725178  66.7160988
  65.9625149  65.6151295  64.8627710  66.9659472  65.5979967  64.4374132
  65.2512980  64.4650602  64.1617870  64.2216587  64.4410181  64.5186710
  65.0234556  64.8227644  63.1576777  66.0056353  63.1419373  64.2453575
  65.6308937  62.4292850  63.5106468  67.0189571  63.3590889  63.9075279
  66.1305285  62.4616146  65.6058407  67.1757412  62.0938110  66.0767984
  65.1772451  62.4851751  66.5044928  65.3337288  61.8720055  67.2916651
  64.2841291  62.9045439  66.2886810  65.3499794  67.0333099  64.5161104
  65.7056332  67.5385094  63.4749603  64.5956087  67.6645470  65.3982544
  64.2248440  67.1589899  66.1901140  64.0493250  68.9748049  65.0608349
  64.6944904  69.4490814  64.3212891  62.6843882  68.7791729  64.3224096
  62.8503752  67.9714584  63.6095619  62.2785187  69.7006750  63.9050341
  61.3122606  68.3532572  65.4893494  63.8860369  69.9831104  66.2344313
  63.9681911  71.2251949  66.0586691  63.9350033  69.4497013  67.4607801
  63.8312483  68.4454918  67.4308920  64.1124868  70.0113392  68.8238907
  64.1118670  69.2387915  69.5928335  65.4799461  70.7189608  68.8886023
  65.3878880  71.6526985  68.3338404  65.7544613  70.9578943  69.9160480
  66.6379499  69.9450874  68.3151770  66.6608715  68.9650345  68.7916946
  66.4643908  69.8233747  67.2459841  67.9465389  70.6978512  68.4161377
  68.5103655  70.8333158  69.4801092  68.6100006  71.1050320  67.3464155
  69.5544624  71.4233828  67.5099468  68.3070707  70.8786821  66.4098787
  63.0336905  71.0517693  69.1789818  63.4060144  72.1281242  69.6432686
  61.7985153  70.7360411  68.9784765  61.5986300  69.7849655  68.7035131
  60.8320189  71.8203068  68.7162876  61.2156296  72.7523136  69.1313982
  60.7201290  72.0656300  67.1868515  61.6541529  72.5458908  66.8952227
  60.7077694  71.0990238  66.6832542  59.4485998  72.8340054  66.6239166
  59.5633268  72.8528261  65.5401373  58.5276270  72.2797012  66.8046141
  59.3371439  74.2535877  67.0626211  58.2194376  74.8186779  66.9286060
  60.3708887  74.7508001  67.5494623  59.4222641  71.5507603  69.3132877
  58.4921837  72.3602009  69.2175961  59.3013716  70.3837681  69.9179220
  60.1228762  69.8089266  70.0395203  58.2045412  69.9760723  70.7649803
  57.7907991  70.8958721  71.1783600  57.1522141  69.3919039  69.7999620
  57.2124624  69.8569775  68.8159990  57.2451973  67.8587151  69.5433283
  58.2942057  67.6354074  69.7377825  56.7439795  67.4022532  70.3968716
  56.8306303  67.6738787  68.5523319  55.8244181  69.5573950  70.2532673
  55.8392239  70.1359987  71.0191727  58.5434103  69.0249968  71.9486618
  59.5363045  68.2733202  71.9310141  57.7712965  69.0339756  73.0640984
  57.0426273  69.7284174  73.1471682  57.9322863  68.1340742  74.1692114
  59.0127182  68.0862331  74.3051195  57.2943974  68.6744547  75.5089664
  57.8111696  69.5929241  75.7872915  56.2612724  68.9970875  75.3798723
  57.4504280  67.6198673  76.6204262  56.7317629  66.8543386  76.3278627
  58.4277201  67.1371937  76.6149426  57.0507574  68.1197977  77.9634094
  55.8529711  68.3717442  78.2500029  57.8174734  68.1891870  78.9443445
  57.6142120  66.6877604  73.7860250  56.6588974  66.4897728  73.0219316
  58.3159113  65.6227779  74.2603302  58.9951897  65.8511400  74.9720335
  57.9968166  64.1910934  74.0491486  57.0098734  64.2354918  73.5886288
  59.1157866  63.5283995  73.1857300  60.1609850  63.5792398  73.4908152
  58.8079262  62.0688772  73.1124640  59.3413258  61.6628695  72.2529650
  59.0661669  61.5452909  74.0329409  57.7542162  61.9462395  72.8619576
  59.2239952  64.4001150  71.8706179  59.4267225  65.4466867  72.0979691
  60.0992346  64.0250254  71.3401842  58.1440496  64.2978096  70.7866573
  57.9269743  63.2455587  70.6029701  57.2316599  64.6929550  71.2333202
  58.4865236  64.8661423  69.9218941  57.5897741  63.4639263  75.3672504
  56.5381575  62.8559542  75.3819370  58.3570194  63.6415815  76.4016104
  59.1098213  64.3136024  76.3594532  58.0470943  63.1417704  77.7408075
  56.9774103  63.1943655  77.9435587  58.3506870  61.6209745  77.7395105
  57.8457689  61.1967897  76.8716192  59.8484230  61.2387657  77.6078796
  60.4610538  61.5054893  78.4690666  59.7295856  60.1621914  77.4855232
  60.2445745  61.5941858  76.6566515  57.7779341  60.9791183  78.8688803
  57.0043707  60.4650068  78.6262035  58.8191414  63.8424301  78.8431358
  59.4374132  64.8527193  78.5714531  58.7001896  63.4045458  80.1113605
  58.4834290  62.4186039  80.1435089  59.2624521  64.0375566  81.3530731
  60.2268839  64.4748259  81.0946751  58.3498383  65.1703596  81.8550301
  58.1080866  65.8238888  81.0168457  57.0118093  64.7227097  82.5139141
  57.0846128  64.1570950  83.4428215  56.3963985  65.5553198  82.8547001
  56.4475489  64.2578220  81.7054653  59.0944481  66.0338593  82.6766205
  58.7706804  66.8794012  82.3575020  59.5970249  63.0718136  82.4338341
  59.1691160  61.9810104  82.2772408  60.3838253  63.4604931  83.4156418
  60.4139185  64.4689178  83.4633732  61.1349869  62.7551460  84.3553162
  61.8845034  62.1935558  83.7976933  61.8575478  63.7428284  85.3203583
  62.3800468  64.4080973  84.6329594  61.1328125  64.4705677  85.6854153
  62.8952074  63.1894398  86.2469864  62.3004055  62.6085329  86.9518757
  63.6161327  62.6334238  85.6476498  63.5624218  64.3413973  87.0927906
  64.1431141  63.9226675  87.9147243  64.0971375  64.9450397  86.3594532
  62.6138449  65.3506565  87.7752972  61.8247175  65.6336975  87.0786858
  62.1089363  64.8563385  88.6052513  63.2880974  66.5371609  88.3122158
  63.5971832  66.3166666  89.2481327  64.1208887  66.7270994  87.7732468
  62.6382160  67.3100090  88.3335018  60.2776480  61.7275858  85.2064228
  60.6879473  60.5953693  85.4089737  59.0958405  62.1139002  85.6852055
  58.8058996  63.0575037  85.4715538  58.2960844  61.2025166  86.5259075
  58.9763021  60.5925083  87.1203041  57.4363089  62.0596647  87.4429035
  56.5346193  62.3749399  86.9178677  57.1385479  61.3674212  88.2304573
  58.1574821  63.1584549  88.1234169  57.6576519  64.2623043  87.9284000
  59.1646767  62.9307556  88.8590527  59.4832516  63.5985518  89.5465565
  59.5157099  61.9839716  88.8807106  57.3669815  60.1697969  85.7745361
  56.4976740  59.4999075  86.4119625  57.4289179  60.1939726  84.4668388
  58.1833601  60.6643820  83.9876461  56.8229198  59.1711617  83.6011600
  55.9002018  58.8538504  84.0869713  56.4391088  59.7587204  82.2237968
  57.2654629  59.8293114  81.5165043  55.7522917  59.1170168  81.6718960
  55.8567429  61.2536478  82.1444416  56.6366625  61.8956041  82.5539780
  55.8219767  61.3683462  81.0610485  54.4834232  61.5682840  82.7114391
  53.7999010  62.5070572  82.2307014  53.9449263  60.8143234  83.5531998
  57.6844072  57.9032421  83.3543205  57.0983696  56.8906069  82.9307461
  58.9497900  57.8892326  83.7191105  59.2807913  58.7029457  84.2175198
  59.7709751  56.7031860  83.4038544  59.6387053  56.4630270  82.3488998
  61.2609053  57.0747328  83.5821056  61.3099861  57.5414085  84.5659351
  62.2099066  55.8689737  83.6732006  62.3210096  55.4220963  82.6852512
  63.2319546  56.1645842  83.9101219  61.8048239  55.1555586  84.3908787
  61.7491198  58.1619406  82.5790215  61.8235302  57.6953316  81.5967655
  60.9713554  58.9140701  82.4467945  63.0121899  58.8986778  83.0555916
  63.8394928  58.2157803  83.2487965  63.2775593  59.6747684  82.3377037
  62.8384829  59.3677330  84.0240479  59.2065191  55.3703737  84.1008663
  58.7848043  55.3864765  85.2458858  59.2676163  54.2496014  83.3853340
  59.8382425  54.2879868  82.5528622  58.8654852  52.9869747  83.8125706
  58.5159874  53.0091667  84.8447800  57.7053165  52.6291847  82.9008198
  56.9471836  53.3763599  83.1354713  58.0923414  52.7256393  81.8864155
  56.9715118  51.2647152  83.1215572  56.5289259  50.6981182  81.8993187
  56.5931606  51.2595701  80.9789658  55.9029055  49.4504786  81.9585896
  55.3696489  49.1422701  81.0714340  55.6379509  48.8309622  83.1934547
  55.1019859  47.8958511  83.2620144  55.9468317  49.4421482  84.3925667
  55.6556177  49.0140200  85.3403568  56.5899324  50.7180738  84.3300629
  57.0063829  51.2219000  85.1897907  59.8457050  51.7961597  83.6755180
  60.4985619  51.6721916  82.6399326  60.0517511  51.1717987  84.8497963
  59.5322990  51.4414597  85.6729317  61.1866093  50.2475405  84.8928261
  61.9257593  50.6449413  84.1972542  61.8345118  50.3485250  86.3086319
  61.1222267  49.8545170  86.9694614  62.7777910  49.8135853  86.4189434
  62.1150970  51.6768074  86.6965675  61.2684679  52.1112108  86.8235207
  60.7446623  48.8555145  84.5884895  60.6630135  48.0372334  85.4665470
  60.3750467  48.5581493  83.3530617  60.4209423  49.3831730  82.7722549
  59.9236727  47.2458315  82.7979374  59.1021872  46.7842865  83.3458805
  59.4617796  47.6066017  81.4229870  58.8837481  48.5299301  81.4608955
  60.3123856  47.9311895  80.8236408  58.8228512  46.4908218  80.5768871
  59.5233393  45.7542562  80.1833248  57.7583551  45.7483530  81.3737869
  58.2956696  45.1898766  82.1402740  57.0586014  46.4640522  81.8053246
  57.2668600  45.1552486  80.6025887  57.9659510  47.1266317  79.3906736
  57.5360870  46.3922739  78.7094688  57.1245146  47.6711464  79.8191547
  58.6454391  47.6723003  78.7359715  61.0335398  46.1624146  82.7912331
  60.7117081  45.0128508  82.8929234  62.2668219  46.5518999  82.9771519
  62.4752331  47.5393105  83.0181980  63.3389521  45.6419659  83.1875038
  62.8631973  44.7023153  83.4682369  64.0911150  45.4794788  81.8597412
  63.3741856  44.9921131  81.1989880  64.3393755  46.4523172  81.4354134
  65.2010298  44.6309090  81.9211864  65.3520298  44.4289875  80.9948921
  64.3423414  46.1035728  84.2526054  64.2869854  47.3160219  84.5719814
  65.0213861  45.1634264  84.9067688  64.8941994  44.1869354  84.6822834
  66.2049961  45.3729153  85.7615948  66.0611916  46.2938261  86.3266945
  66.4481020  44.1980553  86.7584133  66.7274904  43.2909298  86.2225437
  67.2934246  44.4724083  87.3894978  65.3058720  43.7863731  87.7289772
  65.0580120  44.5930862  88.4188175  64.4194651  43.5412025  87.1439266
  65.6262350  42.5172949  88.5595131  64.7210360  42.2992182  89.1262245
  65.6366491  41.6979218  87.8407574  66.8719721  42.5199938  89.4266510
  67.7412176  42.1986914  89.0250492  66.8682337  42.9903603  90.6444073
  67.9017210  42.7274275  91.3852215  68.6744022  42.1450186  91.0956287
  67.8792191  42.9243469  92.3755836  65.8755827  43.6705542  91.1882973
  65.2997446  44.3536997  90.7173252  66.0212326  43.9363956  92.1517372
  67.4484873  45.6502056  84.9242401  68.3371878  46.3018608  85.3831768
  67.5298834  45.2531672  83.6454010  66.7479801  44.7235441  83.2873154
  68.5917711  45.6545448  82.7877045  69.5439577  45.5423212  83.3062077
  68.7295103  44.7955132  81.5723228  67.7586842  44.8518562  81.0799599
  69.4384146  45.2471590  80.8783722  69.0198565  43.3416796  81.7142677
  68.2444525  42.9854870  82.3924828  68.8427639  42.7919388  80.7898617
  70.4946041  42.9527092  82.2354889  71.2273884  43.9295101  82.3150253
  70.8108759  41.7327118  82.4512005  68.4563112  47.1338320  82.5572491
  69.4859457  47.8493309  82.5808811  67.2523355  47.6693964  82.4129105
  66.4678240  47.0346212  82.4541569  67.0596266  49.0618896  82.7385902
  67.1752119  49.1127968  83.8212490  67.6684189  49.8091888  82.2296429
  65.6224632  49.5761251  82.3723888  65.0690317  49.0952587  81.4083481
  65.1538467  50.6819010  83.0839634  65.6723690  51.2549639  84.3606472
  66.7226362  51.0119438  84.5218372  65.1140356  50.8196688  85.1894283
  65.3772306  52.7247334  84.4480419  66.1334848  53.3660269  83.9953518
  65.1327324  53.0216122  85.4679394  64.0883780  52.7994537  83.6798191
  63.9909029  53.8339090  83.3504295  63.3500528  52.4738169  84.4125748
  64.2288923  51.7510843  82.5643444  63.2583427  51.3555288  82.2648907
  64.7520876  52.3654556  81.2231636  63.9082146  52.9649019  80.4762554
  66.0575199  52.3695230  80.9194374  66.6133595  51.8688774  81.5980339
  66.6814804  52.4331999  79.6242666  65.8496523  52.2991896  78.9327431
  67.2772694  53.8658094  79.5737886  66.5458488  54.5514917  80.0015354
  68.1217146  53.9955711  80.2506733  67.6036978  54.4503307  78.1562948
  66.6996908  54.7315884  77.6161385  68.1902075  55.3383636  78.3918810
  68.5987616  53.4596348  77.0427132  70.2072763  53.5863495  77.7706385
  70.4814529  52.6644230  78.2834530  70.9400082  53.8228703  76.9991016
  70.2154350  54.3067837  78.5885668  67.7420759  51.2943792  79.3570995
  68.7329912  51.0703611  80.0407887  67.5336933  50.5636835  78.2648420
  66.7093706  50.7442856  77.7098846  68.2374859  49.3642044  77.9476690
  69.2550325  49.5006275  78.3138561  67.6967478  48.2515478  78.8132048
  67.8059340  48.6006927  79.8399830  66.7009735  47.9708624  78.4700584
  68.3448744  47.3859024  78.6765337  68.1953764  48.9690018  76.4485168
  67.3281670  49.4771910  75.7595396  69.1424370  48.1682110  75.9955597
  69.8442650  47.8138781  76.6295862  69.1960430  47.6199102  74.6730709
  69.0716410  48.4421873  73.9684534  70.6189156  47.0533133  74.5752096
  70.8027887  46.6533089  73.5780668  71.3837385  47.8099203  74.7503996
  70.7667017  46.3006115  75.3496075  68.1080580  46.5699816  74.3651390
  68.0805397  45.6261587  75.1341820  67.5288677  46.6162872  73.1880951
  67.6124716  47.4228668  72.5859785  66.5855408  45.5364084  72.7316141
  66.9317961  44.5828676  73.1303263  65.1096058  45.8745718  73.0303049
  64.8280859  46.7703390  72.4767256  64.4235277  45.0954723  72.6980352
  64.7269249  46.0098410  74.5342493  64.1587734  44.9568701  75.2795887
  63.9944172  43.9868116  74.8342037  63.9101934  45.1408720  76.6394234
  63.5080957  44.3597746  77.2675991  64.1852093  46.3478422  77.2762108
  63.8900948  46.4824390  78.6388206  64.0804338  47.3727369  78.9433527
  64.7417784  47.3877859  76.5683651  65.0181246  48.2765007  77.1162891
  65.0564194  47.2313166  75.2038670  65.5154848  48.0949783  74.7458935
  66.7087841  45.2687168  71.1980581  67.0057964  46.2187958  70.4750538
  66.5121222  44.0037060  70.7161283  66.1972523  43.2153034  71.2632847
  66.9163513  43.7405586  69.2899990  67.1750641  44.6795702  68.8006926
  68.1355047  42.8214407  69.3278790  68.8824081  43.3658600  69.9056816
  68.0431652  41.4536381  69.9391413  67.3610497  40.7825565  69.4171476
  69.0282154  40.9938383  70.0188684  67.5631571  41.5603542  70.9119225
  68.6891556  42.7527475  67.8595352  68.1509733  42.0623207  67.2100925
  68.6051321  43.7642050  67.4620485  69.7571278  42.5524759  67.7733850
  65.7965565  43.0561018  68.5378218  65.2650738  42.0021915  68.9130449
  65.5508280  43.5945320  67.3740149  66.2056875  44.3237352  67.1300411
  64.5289135  43.2045889  66.3645744  63.6338139  42.8642654  66.8852282
  64.2245293  44.4468975  65.5532122  63.1768894  44.5340538  65.2651930
  64.5361948  45.2547407  66.2152958  65.0145483  44.6390295  64.2643118
  65.9957600  43.9349604  63.8772106  64.5086288  45.6182289  63.5823774
  64.9318933  45.7739973  62.6786709  63.6576223  46.1318922  63.7613773
  64.9655533  41.9592953  65.6496096  66.1660194  41.5080452  65.6781864
  64.0723372  41.3013887  64.8689270  62.7171564  41.6473532  64.6116114
  62.6170206  42.6422596  64.1777515  62.1700096  41.6659832  65.5541563
  62.1689653  40.5694962  63.7210369  62.3139000  40.8180046  62.6696873
  61.1140966  40.3855610  63.9248085  63.0765295  39.3156075  64.1055441
  63.0766344  38.5577369  63.3221340  62.8247309  38.8251019  65.0458145
  64.3869209  40.0158596  64.2965984  64.8697853  39.3846393  65.0425911
  65.1304531  40.1002741  62.9812765  65.3097725  39.1390371  62.2736073
  65.5124283  41.2932968  62.6299477  65.3982973  42.0391703  63.3013248
  66.3804150  41.5931654  61.4800692  66.4489508  40.7036448  60.8538485
  65.6333447  42.6598787  60.7108927  65.6092787  43.5484838  61.3416815
  66.0739565  42.7776432  59.7208929  64.1642666  42.2625208  60.4215813
  63.7664890  41.2387037  59.5855236  62.4362516  41.4709139  59.3593025
  61.7110968  40.8285093  58.8819408  61.9950056  42.4918222  60.1511860
  61.0756779  42.9056215  60.0903368  63.0572987  43.0128670  60.8180475
  63.1277657  43.9474726  61.3546562  67.7211952  42.0278883  62.0293331
  68.6032438  42.4096775  61.2319279  68.0068922  41.8372154  63.3678484
  67.2597122  41.6883039  64.0309143  69.3080330  42.1084976  63.9558506
  69.4566584  41.4076042  64.7772884  70.0860739  41.9370651  63.2119656
  69.4621801  43.5176992  64.6206617  70.4707241  43.7129307  65.3206396
  68.7012339  44.5114183  64.2910576  67.8096819  44.3217564  63.8560104
  69.0037966  45.8954573  64.7060394  70.0636005  46.0813475  64.5318079
  68.2273340  46.8561029  63.8405800  67.1587181  46.9003344  64.0508127
  68.5850906  47.7913904  64.2710972  68.5158920  46.7124176  62.4019098
  69.6293354  47.3476791  61.7756224  70.3547239  47.8676367  62.3837852
  69.8924303  47.1406460  60.4194784  70.8187056  47.4834490  59.9825478
  69.1062689  46.2585735  59.6430540  69.5318365  45.9582663  58.3628607
  68.8142490  45.7837200  57.7495050  67.9089451  45.6809998  60.1902294
  67.2083998  45.1196194  59.5898199  67.6249218  45.9279394  61.5912390
  66.7016506  45.5708170  62.0230246  68.6036682  46.0137129  66.2186003
  67.4362183  45.8252478  66.6933203  69.5989561  46.4434958  66.9903231
  70.5527735  46.5053988  66.6639805  69.4307566  46.7523909  68.3906412
  68.6950636  46.1597157  68.9343357  70.7805347  46.4990520  69.1354275
  71.4841795  47.1596766  68.6289024  70.8254814  46.8076420  70.6200838
  70.7116079  47.8559494  70.8960867  70.0898027  46.2155008  71.1643696
  71.7950487  46.5277147  71.0319948  71.3496542  45.1301718  68.8580036
  70.9565544  44.8005199  67.8962803  72.4331474  45.0769854  68.9643526
  70.8760452  44.5103264  69.6193123  69.0606785  48.2466888  68.5003614
  69.6323919  49.0606785  67.7945471  68.2394028  48.6235237  69.4605255
  67.6502323  47.9346371  69.9059629  67.8873014  50.0167894  69.7844219
  68.6178255  50.7479143  69.4381762  66.4482355  50.3108692  69.3252802
  65.7765961  49.5103264  69.6353292  66.0293293  51.2648964  69.6453428
  66.1884499  50.2495241  67.8886795  66.2851572  51.3071537  67.0038700
  65.8378458  50.8774614  65.8399582  66.0457897  51.4598417  64.9545193
  65.4414988  49.6416855  65.9020138  65.1253319  49.1347742  65.0876570
  65.6431627  49.1593218  67.1938753  65.4386568  48.1702900  67.5764990
  68.0454445  50.2387381  71.2994528  67.7410936  49.2871046  72.1177149
  68.5323620  51.4214039  71.6709328  68.7938023  52.1111584  70.9810162
  68.5352373  51.9049454  73.0848455  68.7311935  51.0643291  73.7504911
  69.7062492  52.9268742  73.2751274  69.6650982  53.7110853  72.5192070
  69.6592569  53.3457804  74.2803192  71.1103964  52.3666906  73.1281710
  71.2395334  51.7345476  74.0067005  71.2907839  51.8290138  72.1973276
  72.2234392  53.4594011  73.2773209  73.3193064  53.3888578  72.6964331
  71.9141769  54.4770432  73.9160395  67.1521091  52.4728537  73.5230064
  66.8735313  53.5856533  73.1098461  66.2393713  51.6967535  74.1926336
  66.4622402  50.7175541  74.3003035  64.8877573  52.1130514  74.5159864
  64.5157480  52.8878880  73.8456535  63.8609505  50.8635426  74.3880415
  64.0140009  50.1211452  75.1713181  62.4804783  51.4160013  74.4940996
  62.2113228  51.5062952  75.5464792  62.3060608  52.3412228  73.9448738
  61.7740870  50.6738424  74.1222048  64.0068102  50.0527811  73.0313158
  64.9907303  49.5910740  73.1139088  63.3048630  49.2227173  72.9515362
  64.0385866  50.8791494  71.7510128  64.1655636  50.2894878  70.8431149
  63.0631113  51.3477516  71.6207600  64.7145081  51.7297554  71.8387699
  64.7798014  52.7350092  75.9352303  64.8076773  51.9857264  76.9253492
  64.5015764  54.0536642  76.1132383  64.5173073  54.7029161  75.3397226
  63.7882662  54.5475435  77.3435497  64.4389439  54.3340635  78.1915808
  63.7812948  56.0790968  77.2501898  64.8014975  56.3640070  76.9930601
  63.1727457  56.3994122  76.4045095  63.3506536  56.9274807  78.4520864
  62.4314308  56.5114737  78.8644743  64.3254471  56.8270969  79.6954250
  64.3570518  55.7735300  79.9730825  65.3803110  57.0275688  79.5078754
  63.8889790  57.2491312  80.6006718  63.1106186  58.3688450  78.1015301
  63.9383125  59.0780449  78.1094074  62.6053476  58.3182192  77.1370411
  62.4705124  58.7427711  78.9006186  62.3410940  54.0405750  77.3661947
  61.5670490  54.4312143  76.4572620  61.9441319  53.2129669  78.3346653
  62.6768112  53.0066013  78.9985085  60.5598497  52.7171469  78.6357689
  59.8868656  52.8025627  77.7825975  60.5226612  51.2375736  79.1939831
  59.4791698  51.0588884  79.4534016  61.0223103  50.1887321  78.2039261
  62.1108007  50.1554537  78.2506466  60.4996300  49.2580414  78.4246588
  60.7927704  50.5030966  77.1857977  61.2419796  50.9614086  80.3145695
  60.8753538  51.5427828  80.9847927  59.9750710  53.6575079  79.7032309
  60.5593443  53.7453651  80.7936954  58.7884283  54.2795181  79.4477654
  58.4065914  54.0299273  78.5466480  58.0203438  55.3442001  80.1665592
  58.4121037  55.3573084  81.1836433  58.2107639  56.7368889  79.4817591
  57.5107956  57.3948526  79.9967670  59.6502113  57.2984600  79.4972324
  59.6266508  58.2217073  78.9182997  59.9739313  57.3828030  80.5346298
  60.2995253  56.5957928  78.9749765  57.8241968  56.8876362  78.0404520
  58.2061911  56.0733461  77.4247265  56.7483377  56.7251730  77.9753971
  57.9239798  57.9129934  77.6843786  56.5986443  54.9421883  80.1524448
  56.1276102  54.4499159  79.1003990  55.8279037  55.2259493  81.1921406
  56.2810946  55.5592537  82.0309639  54.3490314  55.2074528  81.2028408
  54.1345978  54.1420221  81.1192989  53.8267565  55.7119131  82.5373268
  54.1013288  56.7433310  82.7584267  52.7369261  55.7211876  82.5202179
  54.1931391  54.7756624  83.7269497  53.5408592  53.4928560  83.7559509
  52.8492165  53.1404495  83.0050564  53.8728142  52.6747894  84.8803043
  53.2823420  51.7706156  84.8949051  54.8651743  53.0003500  85.7756805
  55.0900936  52.1134377  86.8068218  54.4190645  51.4277458  86.7728615
  55.6628084  54.1395092  85.6739616  56.4297438  54.3348265  86.4088535
  55.1861334  55.0667810  84.6691799  55.5546427  56.0749340  84.5498657
  53.6792517  56.0058117  80.0602436  52.6593733  55.4943562  79.4985819
  54.1274977  57.2318125  79.7029257  54.9771643  57.4899292  80.1841068
  53.3750820  58.3150482  78.9643145  52.4880743  57.9600286  78.4396505
  52.8704357  59.4077539  79.9498177  53.6198807  59.7940969  80.6405926
  52.5290155  60.2764034  79.3868065  51.5862656  59.0786600  80.8001900
  50.8478069  58.7747765  80.0582790  51.7616034  58.3102465  81.5531158
  51.0590458  60.3669739  81.4577675  51.8476868  60.7227707  82.1207619
  50.7720375  61.0549116  80.6624889  49.7901917  60.0199318  82.2606564
  48.9772654  59.6837664  81.6170406  50.0417185  59.2284584  82.9666328
  49.3542814  61.2264538  83.0077934  48.5685062  61.0393143  83.6141300
  50.1003838  61.6090107  83.5708904  49.1264629  61.9718122  82.3654175
  54.2701769  58.9613819  77.9518032  55.4538202  59.1418695  78.2498741
  53.6751223  59.4154692  76.8464184  52.6810646  59.2594576  76.7591858
  54.3360329  60.4303217  75.9792614  54.7782183  61.1949921  76.6178989
  55.3800154  59.7475624  75.2056980  56.2217665  59.4443607  75.8282900
  54.9826097  58.8817739  74.6759987  55.8386374  60.3742838  74.4408560
  53.2458782  61.1067009  75.1647806  52.0638466  60.8323383  75.2300262
  53.6744404  62.0463562  74.2596579  54.6623516  62.1423292  74.0727949
  52.8446007  62.8291512  73.3240843  52.1723127  62.0722389  72.9200983
  52.1268129  63.8748503  74.0248537  52.1407604  63.5784197  75.0736761
  52.7464771  64.7652245  73.9183617  50.3676796  63.8761568  73.5305262
  50.0201988  65.0541162  74.0564203  53.4756422  63.4483147  72.0173264
  54.7185516  63.2674456  71.8306208  52.6185846  64.0821505  71.1816168
  51.6531658  64.3202829  71.3586998  53.0490398  64.8890448  70.0270224
  52.2303057  65.3346968  69.4620705  53.8856125  66.0561514  70.4835320
  54.8349714  65.7347202  70.9119129  54.1339922  66.6819859  69.6263647
  53.1995058  67.0003557  71.4705515  51.9757795  67.0089245  71.4578867
  53.7856245  67.5714350  72.4371147  53.2069159  68.0688381  73.0987692
  54.7825193  67.4578428  72.5528622  53.6606693  63.9507198  68.9584398
  54.5754576  64.2982674  68.2073641  53.0257797  62.8047085  68.7701797
  52.1501446  62.5793648  69.2202711  53.5670328  61.7167139  67.9816675
  54.3612671  61.9401789  67.2693777  54.2304611  60.6312084  68.8725138
  53.5206604  60.2905560  69.6263266  54.4677734  59.8008776  68.2074308
  55.5564785  61.0083342  69.5461893  55.6035519  62.0802450  69.7383022
  55.8791780  60.3230333  70.8519745  55.8727360  59.2394495  70.7340097
  56.8167639  60.7088184  71.2522364  55.0660753  60.5556345  71.5396214
  56.8020868  60.7310820  68.6994743  56.9199705  59.6560240  68.5635805
  56.6130257  61.2181520  67.7428532  57.7605629  61.0515547  69.1077852
  52.4365664  61.0797501  67.1395302  51.3521051  60.8249950  67.5891113
  52.6975060  60.8753490  65.8230305  53.6224461  61.0643959  65.4640770
  51.7807961  60.1522398  65.0175095  50.7715940  60.4809380  65.2656460
  51.8791962  60.5136633  63.5014200  52.8705502  60.2292013  63.1487226
  51.1259937  59.9830055  62.9190159  51.7906761  61.9722462  63.1528187
  50.6973505  62.5323534  63.3787727  52.8282547  62.5475454  62.6381063
  52.7760458  63.4945250  62.2908258  53.5700846  61.9164848  62.3706198
  51.9831610  58.5932970  65.2253103  53.1189108  58.1169701  65.1203012
  50.8493662  57.8906822  65.3785753  49.9664927  58.3620834  65.2428532
  50.7954359  56.3818216  65.4980373  51.7796421  56.0253429  65.8019400
  49.7959423  55.9112406  66.6162968  48.9046288  56.4978027  66.3935709
  49.6048212  54.8528576  66.4391041  50.1771736  56.2399530  68.0415058
  50.6038094  57.2412109  68.1011963  48.9311695  56.1233091  68.9169979
  48.4369516  55.1518059  68.9220238  49.1658974  56.4156437  69.9404907
  48.1939983  56.8166637  68.5121059  51.1324787  55.1528454  68.6036968
  51.3253498  55.3965902  69.6484423  50.6629944  54.1732359  68.5139370
  52.0465469  55.2458429  68.0172443  50.4993582  55.8244991  64.1252851
  49.4769907  56.1883545  63.5321760  51.4616013  55.1396894  63.5328674
  52.3272085  55.0963783  64.0514660  51.4794397  54.4661760  62.2236395
  50.9389830  55.1071310  61.5270853  52.9570770  54.2997217  61.7432404
  53.3989763  53.4494162  62.2626686  52.8088760  53.8364983  60.2476168
  52.3782110  54.6795177  59.7072983  53.8161612  53.5260963  59.9698830
  52.2407389  52.9063940  60.2324915  53.7409973  55.5864906  61.9372416
  53.9540482  55.6655836  63.0032873  54.7180510  55.4147482  61.4856005
  53.1402826  56.8790483  61.4024162  53.8720226  57.6802301  61.2986231
  52.6460361  56.7621088  60.4379749  52.4650288  57.2212315  62.1866608
  50.7556820  53.1071663  62.2508192  51.1562157  52.1672964  62.8815269
  49.6641111  52.9792786  61.4665556  49.3775558  53.7606144  60.8942747
  49.2354488  51.7298746  60.9478569  48.2970381  51.8821049  60.4146528
  49.8635197  51.3444328  60.1446962  48.8912058  50.5881119  61.9684744
  48.1935310  50.7697058  62.9646873  49.2291164  49.3738174  61.5609503
  49.8622131  49.3370438  60.7748604  48.8070059  48.0598593  62.1991587
  47.7554226  48.0108643  62.4817610  49.0272474  46.7521429  61.2794876
  48.5444689  46.9034195  60.3140116  50.0789404  46.5900040  61.0433674
  48.4352112  45.4198456  61.8114758  48.7514210  45.2186489  62.8350163
  47.3522329  45.5164051  61.8884850  48.8364506  44.2516994  60.9587288
  48.2053900  43.4053087  61.2298107  48.5984039  44.4567156  59.9149847
  50.2009535  43.8326120  61.0828161  50.8753204  44.2880821  60.4845858
  50.7382107  42.8612661  61.8127155  51.9855499  42.5882006  61.7267847
  52.5808573  43.2403564  61.2364721  52.4030972  41.8136978  62.2226715
  50.1318169  42.1737766  62.7122164  49.1322565  42.2834015  62.8069210
  50.6513357  41.3984585  63.0983114  49.5638371  47.8706217  63.5019112
  50.7873011  48.0203962  63.4384775  48.8981771  47.4395514  64.5854998
  47.4146032  47.4526882  64.7375488  47.0367527  46.7981052  63.9521456
  46.9771290  48.4294081  64.5308256  47.0834780  46.9552135  66.1834431
  46.8915939  45.8826399  66.1539984  46.2012815  47.4456263  66.5949392
  48.3732033  47.4566698  66.8908072  48.5022831  46.8829632  67.8085756
  48.4055376  48.5145855  67.1513414  49.4835329  47.1292734  65.8432007
  50.3478384  47.7728987  66.0069656  49.9951696  45.6857109  65.8771086
  49.2248964  44.7691870  65.8393908  51.2903309  45.4227734  65.8611631
  51.9759226  46.1528158  65.9919310  51.8816423  44.1301870  65.5541897
  51.1347723  43.4537220  65.1386452  53.0081797  44.2611361  64.5188332
  52.5691938  44.6151543  63.5860634  53.7270689  45.0527954  64.7299480
  53.6949158  43.0812740  64.1958094  54.0751743  43.1835794  63.3202887
  52.4246359  43.4212065  66.8473768  52.7385521  44.0801907  67.8367996
  52.4505091  42.1040201  66.8827963  51.9952345  41.5338945  66.1843777
  53.2267427  41.3487053  67.9573965  53.5259867  42.0879221  68.7004423
  52.3543835  40.2433777  68.5698748  52.8720808  39.5379496  69.2198420
  51.1930943  40.8647633  69.4183779  50.7592869  41.7320538  68.9206648
  50.4343414  40.1260948  69.6767616  51.5865660  41.0645962  70.4150438
  51.7684650  39.5828938  67.5722885  51.1025381  38.9789414  67.9090166
  54.4647646  40.7340097  67.4516582  55.2261877  40.1764250  68.2392788
  54.7796440  40.9204340  66.1831427  54.1624784  41.5015554  65.6340361
  55.8661127  40.2903175  65.4555655  55.7431173  39.2223334  65.6355286
  55.8553886  40.4649830  63.8594866  54.8680592  40.4699945  63.3976841
  56.3001776  41.4481163  63.7055159  56.7228985  39.4884872  63.0657673
  56.8754387  39.7963810  62.0313454  57.7056170  39.3523598  63.5172415
  56.0839844  38.1497478  62.9471874  56.3794518  37.2729611  63.7946749
  55.3479910  37.8269219  61.9499493  57.3153782  40.5554342  66.0524368
  57.8688669  41.6692495  65.9164810  57.7981186  39.6761966  66.9413424
  57.1791935  38.8929987  67.0950651  59.0024376  39.6882296  67.7971506
  59.0860224  38.7352991  68.3196783  60.2643776  39.9186015  66.9977283
  60.2073574  39.3290138  66.0827208  60.3277302  40.9824514  66.7690086
  61.6155100  39.4883537  67.6091957  62.2285509  38.2630873  67.4867153
  63.5068655  38.4579039  67.8672695  64.2315674  37.6572776  67.8816462
  63.7136841  39.7369504  68.3744431  64.5936584  40.2102137  68.5220003
  62.4989367  40.3750277  68.1747913  62.3238182  41.4344168  68.2906437
  58.9181995  40.7008743  68.9257908  59.9474812  41.2724543  69.3933964
  57.6752186  40.9737539  69.5015860  56.9237137  40.6808138  68.8936996
  57.5454664  42.0205402  70.5439472  57.7664709  43.0081034  70.1390076
  56.1151409  42.0811987  71.0908937  55.4043055  42.4308062  70.3421688
  55.9332228  41.0767937  71.4732265  56.0270166  43.0461979  72.1795321
  55.1053524  43.1274652  72.4355364  58.5017586  41.8378687  71.7631578
  58.7308788  40.7437849  72.2607946  59.1948700  42.9363871  72.1223688
  59.1038704  43.8135386  71.6300058  60.2503395  42.8158140  73.1145048
  60.8837175  41.9824362  72.8105211  61.0488462  44.1427946  73.0485010
  60.4139614  45.0134373  73.2128239  61.8486261  44.0348005  73.7811613
  61.8264246  44.3912697  71.7554808  62.3290825  43.4220362  70.9445572
  62.1797752  42.3679686  71.1263609  62.9822016  44.0363312  69.8877192
  63.4195662  43.5132933  69.1425753  62.9561281  45.4002810  69.9758577
  63.4303761  46.3916683  69.1385412  64.0348244  46.1023712  68.2915783
  63.1641865  47.7358770  69.4777155  63.5165501  48.5944510  68.9253664
  62.3678970  48.0004644  70.6474686  62.2045946  49.0324879  70.9207249
  61.7524385  47.0089817  71.3984823  61.1037302  47.1715069  72.2465134
  62.0792103  45.6753302  71.0729027  59.6723700  42.3830843  74.4670963
  60.3011179  41.7926836  75.3684950  58.3453465  42.5712252  74.6790457
  57.8151989  42.9823208  73.9240313  57.6675272  42.4423361  75.9388638
  58.4142160  41.9289303  76.5446424  57.2363997  43.8270140  76.4991713
  56.4746332  44.2917061  75.8731699  56.8061161  43.5989380  77.4743319
  58.3850956  44.8379374  76.4481831  59.3759060  44.7967291  77.4774027
  59.3159580  44.0282249  78.2338524  60.4643106  45.7080412  77.4303818
  61.2549734  45.7365179  78.1655264  60.5218506  46.7033768  76.4752960
  61.2893248  47.4632120  76.4695024  59.6902561  46.6274071  75.3986740
  59.7666168  47.2146702  74.4955158  58.5818386  45.7598209  75.3812933
  57.9045153  45.7317495  74.5405531  56.3767052  41.5898705  75.7540417
  55.5613375  41.8117332  74.8344898  56.0225964  40.6219244  76.6877937
  56.7467642  40.3399515  77.9297018  56.8872404  41.0759211  78.7213516
  57.7254200  39.9119878  77.7124929  55.8717299  39.3356276  78.6267376
  55.1790190  39.8141265  79.3190432  56.4943981  38.6713004  79.2259502
  55.2101183  38.6116886  77.4967575  54.3410683  38.0098248  77.7624798
  55.9674644  37.9455447  77.0835066  54.9369383  39.6829057  76.4249468
  54.9475050  39.1678810  75.4643488  53.5781527  40.2600241  76.5242958
  53.2508659  40.9546089  77.4480200  52.7756166  39.9580407  75.5704975
  53.0710220  39.3682146  74.8056841  51.2803650  40.2392006  75.5795908
  50.7779312  39.6670461  74.7996569  50.8113098  39.9647546  76.5244579
  51.0214520  41.7395639  75.3117514  49.7950459  42.1278763  75.3280926
  52.0639992  42.4962950  74.8995066  53.0027199  42.1268559  74.8502779
  51.9664955  43.8619328  74.3255854  50.9670973  44.2499352  74.5224762
  53.0605841  44.7291470  75.0424576  54.0329266  44.2422485  74.9677753
  53.0782461  45.6803560  74.5104933  52.7186489  44.9875641  76.4496326
  53.1741762  44.1967535  77.4716473  53.6262083  43.2300758  77.3054886
  53.1428289  44.6315289  78.7838125  53.4438038  44.0229130  79.6236897
  52.4878597  45.8556318  79.0686893  52.3063183  46.3178444  80.3640556
  51.5338564  46.8784714  80.4670143  51.8322468  46.5854406  78.0801725
  51.4574909  47.5510693  78.3859873  52.0799494  46.1830568  76.7681026
  51.6928482  46.9245481  76.0849142  52.2029877  43.8961697  72.8396177
  53.0675602  43.2859278  72.2282600  51.2133646  44.5041513  72.1878195
  50.5004406  45.0008965  72.7026844  51.2726498  44.8648500  70.7695103
  51.8110609  44.1346550  70.1653337  49.9775648  44.6577835  69.9633551
  49.6941280  43.6059475  69.9260044  49.2130613  45.3544664  70.3072691
  50.1187468  44.9175882  68.9142275  51.9084454  46.2313080  70.6223440
  51.4027882  47.2481441  71.0239649  52.9065943  46.1833715  69.7656345
  52.9951906  45.3384113  69.2194700  53.6899614  47.3683357  69.4255161
  53.7677908  48.0635643  70.2613974  55.1238012  46.9020557  69.2102242
  55.7331467  47.7913046  69.0488911  55.5500031  46.4836597  70.1220322
  55.4759216  45.9352970  68.1333828  55.8023262  44.6049595  68.3023262
  55.7179594  44.1815996  69.2922974  56.1034060  44.0471697  67.0309925
  56.4466524  43.1037569  66.9203043  56.1456203  45.0347185  66.0556507
  56.3442945  44.9067593  64.6491098  56.5660286  43.9727068  64.1543579
  56.1858511  46.0130405  63.8091469  56.3121414  45.8417320  62.7503252
  55.6441212  47.1846724  64.4102716  55.4779005  48.0654573  63.8077879
  55.4143906  47.2700167  65.8227634  55.0578022  48.1375837  66.3580894
  55.6617403  46.2331963  66.7209291  53.1360483  48.0869913  68.2084990
  52.7902985  47.4602795  67.2238874  53.2952881  49.4514179  68.1658649
  53.6223412  49.9310398  68.9923668  52.8973770  50.3234720  67.0167875
  52.8685617  49.7697926  66.0783243  51.5475655  51.0090542  67.3071527
  51.4264536  51.3122988  68.3470917  51.1298132  52.2310734  66.3900995
  50.9016085  51.8458891  65.3962898  50.3487778  52.7828026  66.9132471
  51.9544411  52.9273844  66.2376451  50.5157328  50.0655127  67.1715117
  50.4619789  49.6685362  68.0439377  53.9630461  51.4279270  66.8856668
  54.2275190  52.1027040  67.8829432  54.6759415  51.5591908  65.7573557
  54.4574738  50.8348799  65.0882196  55.6932878  52.5941944  65.4914522
  56.3889933  52.4921083  66.3243246  56.3636065  52.2853756  64.1156054
  55.8913422  52.8696299  63.3258581  57.7525949  52.7936411  64.1056919
  58.2595539  52.5157118  65.0297356  58.2172441  52.3345804  63.2330751
  57.9069567  53.8725471  64.0902805  56.3901663  50.8178616  63.7155151
  56.6622543  50.0473261  64.4368649  55.4250908  50.4969883  63.3233690
  57.0451927  50.6551504  62.8596210  55.1150846  54.0014362  65.5724096
  54.0537691  54.3114519  65.0909567  55.8093977  54.9610615  66.1977577
  56.7651653  54.7367287  66.4349937  55.3843880  56.2593412  66.5075874
  54.4704103  56.3847399  65.9270477  54.9900484  56.4373207  67.9390383
  54.2633724  55.6524897  68.1490135  55.7580948  56.3808060  68.7104082
  54.5512486  57.4345732  67.9712296  56.3511658  57.3163652  65.9604454
  57.5726223  57.1727085  66.0635996  55.8776665  58.4796333  65.4140711
  54.8733234  58.5799980  65.4504204  56.5451145  59.3674517  64.4919205
  57.5978994  59.0851974  64.4833899  55.9790707  59.0274096  63.1258488
  56.0951042  57.9480505  63.0277824  54.9235344  59.2381573  63.2977438
  56.5925455  59.8261690  61.9804811  57.0185995  60.7297945  62.4164152
  57.3648453  59.2006874  61.5327930  55.6083679  60.2526760  60.8730841
  54.5253420  60.6745434  61.1442709  55.8520937  60.0963163  59.6176720
  55.3524303  60.6358910  58.9253569  56.6631603  59.5577002  59.3490458
  56.3390732  60.7829094  64.9466276  55.2297068  61.2398052  64.8696136
  57.4460554  61.5261936  65.2404308  58.3020258  61.0109854  65.0922012
  57.4356556  62.9633236  65.5134153  57.2878218  63.1712532  66.5731382
  58.8639212  63.5472012  65.3318644  59.1882801  63.2938671  64.3225527
  59.6241140  63.0726671  65.9523773  58.9423847  65.2561045  65.6568146
  56.4624357  63.6979294  64.5668364  56.6047907  63.7451315  63.3233690
  55.4447269  64.3196249  65.1774645  55.2247715  64.1453314  66.1476946
  54.6227694  65.2222586  64.3961620  54.2205906  64.6886158  63.5350132
  53.5106230  65.8097601  65.3217411  53.9789200  66.2726927  66.1903572
  52.9124260  66.5008783  64.7279310  52.4171257  64.7583055  65.6250429
  52.1007109  64.2716646  64.7024632  52.8507376  63.9142895  66.1614370
  51.2543058  65.2742004  66.4318466  51.5465450  65.6793737  67.4006271
  50.6568241  66.0033035  65.8845615  50.3232718  64.0520668  66.6412020
  50.2073288  63.6254406  65.6448889  50.8298826  63.3931541  67.3463821
  48.9955616  64.5315027  67.0618343  48.2862473  63.8153982  67.1263885
  49.0319729  65.0207615  67.9446745  48.6585426  65.1353741  66.3257265
  55.3454638  66.3599730  63.7509632  54.7987986  66.7051888  62.7170324
  56.3010979  67.0295668  64.3867731  56.6868496  66.7148924  65.2655697
  56.9697332  68.2567835  63.7646294  56.2389183  69.0194941  63.4957695
  57.9657173  68.8891363  64.7979546  58.6890888  68.0953455  64.9843025
  58.6684799  70.1206303  64.1579771  59.2752695  70.5831718  64.9364138
  59.2536831  69.9025536  63.2646227  57.9437971  70.8334160  63.7644577
  57.3604441  69.2629242  66.1584330  57.0912552  68.3306122  66.6548538
  58.1322002  69.7751236  66.7330170  56.1625338  70.1765919  66.0611391
  56.5275669  71.1154222  65.6446743  55.3006315  69.7497368  65.5482817
  55.8540201  70.4836130  67.0604706  57.7799940  67.9051781  62.5279379
  57.5375557  68.5221815  61.4842272  58.6554766  66.9103670  62.4635267
  58.9890814  66.5251255  63.3355331  59.6557140  66.7006493  61.3726759
  59.4528198  67.3606396  60.5292606  61.1286831  66.9488382  61.9509792
  61.0723639  67.7395391  62.6991224  61.8065214  67.1325779  61.1173868
  61.6505289  65.4777527  62.8970337  59.5758867  65.2970076  60.7598400
  60.3009558  65.0425339  59.8212957  58.6570835  64.4438410  61.2118292
  58.1960964  64.7007227  62.0729923  58.4141827  63.1182194  60.6264210
  57.4684668  62.8259993  61.0828447  58.2737923  63.2719421  59.0786171
  57.6209164  62.4409342  58.8116598  57.8183889  64.1693687  58.6598825
  59.2590332  63.0220747  58.6849642  59.3644857  61.9877577  61.0270405
  59.1883564  60.8736229  60.5240965  60.3710032  62.2164440  61.8746614
  60.2894306  63.0931759  62.3694277  61.2548399  61.1332655  62.3731899
  61.5388298  60.6842327  61.4214373  62.5951672  61.7516994  62.8981972
  63.1013489  62.2927284  62.0987225  62.4606705  62.3507595  63.7988377
  63.4123945  60.7202482  63.2764244  63.9776802  60.6317711  62.5055599
  60.5972672  60.1923370  63.4001398  59.9493933  60.6290340  64.3641949
  60.8933115  58.9049339  63.2646036  61.5695572  58.7289333  62.5353479
  60.4069567  57.8050756  64.0989828  59.3484020  57.9808378  64.2904615
  60.4553843  56.4888287  63.2635307  61.4757442  56.2878847  62.9370642
  60.0201464  55.6832886  63.8549471  59.6806669  56.5380287  61.9498873
  60.1090384  56.9263506  60.6467152  59.0386915  57.0243979  59.9060011
  59.1064310  57.2891188  58.8611364  57.9503775  56.6150284  60.5711460
  57.0310545  56.4514637  60.1861858  58.3707428  56.3371468  61.8567467
  57.7496815  55.9708929  62.6608276  61.1995220  57.6826954  65.4494238
  61.9187880  56.7024612  65.6474781  60.8939266  58.5352945  66.4296246
  60.2368402  59.2808437  66.2493610  61.2887716  58.5872650  67.8555012
  62.3577261  58.7799883  67.9465389  60.7047367  59.8821783  68.5464239
  59.6151781  59.9125910  68.5406256  61.1653900  59.8901129  69.9581528
  60.7715750  60.7365990  70.5207109  60.8830738  58.9862680  70.4980326
  62.2391033  60.0621033  70.0334024  61.2355995  61.1845684  67.8742599
  62.3040152  61.3937092  67.9276180  61.0347176  61.0272598  66.8145418
  60.4344845  62.3327446  68.3191156  60.7338285  63.2406616  67.7954960
  59.3722343  62.1802568  68.1281328  60.5498314  62.4679899  69.3945217
  61.1280394  57.2489262  68.6070776  62.0582056  56.8746662  69.3009520
  59.9371576  56.6628742  68.4790516  59.2739105  57.1141815  67.8654385
  59.5305252  55.4739523  69.2413092  60.3682518  54.8102045  69.4552231
  59.2641640  55.9977770  70.1593256  58.3642387  54.6045065  68.7960005
  58.2011747  54.3624067  67.5637007  57.6060247  54.1576624  69.7964668
  57.8758335  54.4184589  70.7341719  56.6262579  53.0847597  69.5745611
  56.0373354  53.2869434  68.6799192  57.3112726  51.6237020  69.5155811
  57.7591515  51.4473581  70.4935408  56.5659857  50.8321142  69.4378328
  58.2644415  51.2996864  68.3655357  57.9306984  50.7779312  67.1570015
  56.8872118  50.6235981  66.9252205  59.0915728  50.4215670  66.4698601
  59.0017366  49.7305250  65.7387686  60.2110767  50.8506203  67.1745348
  61.5987253  50.7768440  66.9237661  61.9777918  50.2825689  66.0414934
  62.4766254  51.3479042  67.8422451  63.5379648  51.3678598  67.6433086
  61.9988346  51.9329834  68.9958000  62.7428436  52.3599291  69.6519756
  60.6636953  51.9692183  69.2370558  60.2697086  52.6018715  70.0186682
  59.7008514  51.4265490  68.3662748  55.7016802  53.1006718  70.7956076
  56.2383413  53.1312752  71.9519758  54.3264103  53.0236530  70.6005621
  54.0539980  52.9002047  69.6358585  53.3419085  52.7387905  71.7320251
  53.7488985  53.2291985  72.6163101  51.9405556  53.3079147  71.5396738
  52.1154928  54.3804502  71.4550591  51.5388346  53.0106831  70.5709791
  51.0274267  53.1355381  72.7025080  50.8250856  52.0719576  72.8288174
  51.4417601  53.5364294  73.6275530  49.6964693  53.8913727  72.5651646
  49.1403294  53.8626480  73.5021687  49.8649836  54.9527597  72.3830700
  48.7739897  53.2581854  71.4562130  49.1616678  53.4805250  70.4620409
  48.8093758  52.1728659  71.5507078  47.4505568  53.8449049  71.5317583
  47.0423841  53.5444117  72.4053717  47.5422239  54.8437834  71.6498280
  46.8399954  53.5856247  70.7701206  53.2390785  51.2297249  71.8784094
  53.2981634  50.4602671  70.8879375  53.0437994  50.6611776  73.0323839
  53.0437517  51.3547897  73.7665510  52.9217911  49.2892027  73.4658432
  52.9684782  48.6479664  72.5856543  54.1562796  48.9277172  74.3096161
  54.1884470  49.5735979  75.1870537  54.1054010  47.9191637  74.7199011
  55.4537582  48.9804459  73.5481882  56.3339663  50.0767136  73.7053728
  55.9560728  50.9223080  74.2608595  57.5742388  50.1545143  73.0819654
  58.2866192  50.9353065  73.3039427  57.9972458  49.1203690  72.2099447
  59.0031528  49.2277956  71.8317747  57.1149349  48.0397558  71.9444704
  57.3157358  47.3025322  71.1812019  55.8407879  48.0017757  72.6276922
  55.1721907  47.1657038  72.4849892  51.6491270  49.1277266  74.2261362
  51.3913536  49.9832869  75.1221991  50.7657003  48.2161236  73.7866592
  50.9755039  47.7907705  72.8949404  49.4123030  48.0636263  74.3980074
  49.5154238  48.5913563  75.3461456  48.4268856  48.7762403  73.5608006
  47.4184084  48.7779522  73.9744139  48.8036394  50.2030516  73.1953239
  47.9920435  50.6589603  72.6282692  48.9517021  50.7268381  74.1396904
  49.7528458  50.2806520  72.6651478  48.2355356  48.2044363  72.3114347
  47.6629972  48.7814045  71.8006420  49.0656185  46.6052008  74.6989012
  49.2968845  45.7575798  73.8771963  48.4992027  46.3255787  75.8685875
  48.4431601  47.0940113  76.5216351  48.0478334  44.9800587  76.2878704
  48.9298487  44.3441725  76.2117434  47.4946785  45.1308775  77.7310467
  48.2984686  45.5317211  78.3485842  46.6072464  45.7506084  77.8595066
  47.2168589  44.1428566  78.0981064  46.9588041  44.3705273  75.3614140
  46.1542988  45.0238991  74.7642899  47.0012951  43.0681658  75.3224134
  47.7493238  42.5224924  75.7258844  46.2342834  42.2681427  74.3695831
  45.5008221  42.8983402  73.8666010  47.1225643  41.5209436  73.3101034
  46.4447689  40.8889389  72.7362871  47.7350807  42.5319767  72.3320150
  46.9821644  43.1673431  71.8656158  48.4034061  43.2045412  72.8696918
  48.2888126  42.0100546  71.5515804  48.0319500  40.7222366  74.0217161
  48.7637043  41.2603045  74.3325663  45.3288889  41.1462021  75.0239229
  44.6917057  40.3383589  74.3775988  45.3666878  41.1259937  76.3684988
  45.7359552  41.9789982  76.7636347  44.7641802  40.2014065  77.3064280
  43.7831545  39.9335575  76.9140625  45.6819057  38.9903617  77.5521660
  46.6087437  39.3165112  78.0240822  45.2516842  38.3449817  78.3179951
  45.9949398  38.2501602  76.2774420  45.0426769  37.8928995  75.8854485
  46.6216183  38.8330245  75.6024265  46.8429184  36.9902420  76.5414333
  46.8631887  36.5612173  75.5396223  47.8054953  37.1807837  77.0160341
  46.0556173  36.0697937  77.4765062  45.9614801  36.5939164  78.4275818
  45.0703049  35.7670236  77.1221256  46.7962313  34.7966671  77.7615309
  47.0053101  34.2587543  76.9326544  47.7519274  34.9156928  78.0657864
  46.2946558  34.2669368  78.4600353  44.4056845  40.9959316  78.6077595
  45.0326681  42.0485306  78.8951111  43.2507706  40.6234550  79.1923809
  42.7626514  39.8362422  78.7897205  42.7757359  41.3634491  80.3973484
  42.6160908  42.3918915  80.0734329  41.3300514  40.9180880  80.7792282
  41.1142492  41.4762783  81.6902447  40.7451057  41.3637638  79.9746752
  41.1683416  39.4351602  81.0953522  41.3514757  38.8564038  80.1900291
  41.8501091  39.2826176  81.9320297  39.8085785  39.0369511  81.6497517
  39.6371245  39.5476198  82.5973415  39.0292048  39.1954398  80.9043884
  39.5002842  37.5539279  81.9786072  39.0658712  37.0828366  81.0968685
  40.4206657  37.0553994  82.2827053  38.4584785  37.3432493  82.9387093
  38.7076449  37.8075290  83.8003635  37.5886965  37.7409577  82.6140404
  38.3455229  36.3658595  83.1668663  43.7567425  41.4040804  81.5605259
  43.9782667  42.4491549  82.1460152  44.3328428  40.2649069  81.9898415
  44.1307068  39.4343615  81.4518547  44.9582243  40.1010132  83.3143997
  44.5405340  40.8247280  84.0143108  44.7286797  38.7098646  83.9555168
  43.7230444  38.3265281  83.7827396  45.4058933  37.9810524  83.5101795
  44.9700069  38.7716174  85.4516315  44.9995708  39.8989654  86.0518646
  44.9802351  37.6446104  85.9900475  46.4287806  40.4835558  83.2397747
  47.2621870  39.5861053  83.4173489  46.7089081  41.8539476  83.1070232
  45.9219599  42.4720812  82.9701900  48.0881214  42.4234295  83.0220509
  48.6412334  42.1389389  83.9171696  48.7059307  41.9997740  81.6700935
  49.7341585  42.3202515  81.8378639  48.6355448  40.9305763  81.4701843
  48.1563663  42.5439692  80.3889847  47.0765066  42.4032593  80.4359245
  48.3890295  43.6053276  80.3024769  48.7390280  41.7424965  78.9064026
  50.3994179  42.4625397  78.6272430  51.0259819  41.9331264  77.9094315
  50.2413177  43.5029745  78.3433390  50.8562613  42.5332069  79.6143627
  48.0573988  43.9837742  83.0659580  47.0059490  44.5732069  82.7675438
  49.1747236  44.5889711  83.3977699  49.9625635  43.9686871  83.5188580
  49.3088245  45.9464788  83.8763428  48.6715317  46.5624952  83.2419300
  48.8754463  46.0087156  85.3149033  47.8833055  45.5658197  85.4021263
  49.6008301  45.4440832  85.9006500  48.7940550  47.2302341  86.0062027
  49.1989517  47.0459366  86.8568993  50.7874632  46.3896132  83.7734413
  51.6844273  45.5734777  83.8340282  50.9988213  47.7241325  83.5490894
  52.4068928  48.2010794  83.4708405  52.9989576  47.4503374  82.9474354
  52.7578259  48.2556963  84.5013618  52.2985983  49.6124411  82.8288651
  52.2168350  49.3724155  81.7687702  53.1435728  50.2811432  82.9930782
  50.8861828  50.0322437  83.2095337  50.4885101  50.7228327  82.4658680
  50.9584951  50.4391432  84.2181492  50.0758457  48.7497663  83.1617260
  49.2624712  48.8497400  83.8804245  49.5381737  48.4280777  81.7335033
  50.2379751  47.8792715  80.8731842  48.3083916  48.8732672  81.4659023
  47.8358936  49.4760084  82.1243477  47.6556492  48.3674765  80.2864838
  47.6637030  47.2789574  80.2301407  46.1173487  48.6750841  80.6476593
  45.5372095  47.9336786  80.0982475  45.8933640  48.4540939  81.6912556
  45.6023788  50.0507212  80.2953053  45.9731579  50.4320002  79.3438578
  44.5258856  49.8850107  80.2528667  45.8366823  51.0679770  81.4226913
  46.4215422  50.8091354  82.4582481  45.3305960  52.2731733  81.3990307
  45.6723785  52.9317284  82.0842934  44.9678659  52.5629187  80.5020523
  48.1192207  48.9428616  78.9484119  47.9138470  48.3956385  77.8449106
  48.8900805  50.0367880  78.9992714  49.2117119  50.2962685  79.9208593
  49.7459745  50.5866957  77.9337406  49.9736881  49.7389126  77.2875881
  48.9330339  51.6273212  77.0470095  49.5815516  51.7800522  76.1843395
  48.0253649  51.1202002  76.7197943  48.4994411  52.9031038  77.8048325
  48.1380653  52.6639318  78.8049841  49.4225216  53.4801102  77.8603649
  47.3999834  53.6715555  77.1755791  47.7189255  53.9069223  76.1602020
  46.6099215  52.9486895  76.9722033  46.8309736  54.8411942  77.9195356
  46.3413143  54.4555569  78.8137484  47.7432632  55.3490400  78.2324600
  45.9723997  55.6865025  77.0892859  45.8640051  56.5146208  77.6572514
  46.3380861  56.0795403  76.2337780  45.1274490  55.2254820  76.7833090
  51.0573864  51.1967897  78.4835196  51.0574007  51.4396429  79.6784019
  52.1041489  51.3821459  77.6602602  51.9295645  51.1617517  76.6901827
  53.2296324  52.2109461  77.9097557  52.9276896  53.1660557  78.3395195
  54.2165661  51.5277052  78.8622189  54.8756647  52.3311520  79.1911077
  53.7009382  51.0669374  79.7047853  55.1051426  50.4956722  78.2442856
  54.5658827  49.1792393  78.1291676  53.5448647  48.8723278  78.3015776
  55.3938675  48.1855631  77.5427246  55.0942755  47.1561480  77.4125576
  56.7022181  48.5220575  77.0705223  57.2857618  47.8139830  76.5008640
  57.2286463  49.7845221  77.1955490  58.1486607  50.0891209  76.7188978
  56.3802290  50.7822609  77.7881622  56.7401838  51.7675447  78.0451632
  53.8319397  52.6109314  76.5760136  53.2864189  52.3669672  75.5144119
  54.8744011  53.4397793  76.6356802  55.2840614  53.6632872  77.5314045
  55.5523777  53.9397049  75.4106855  55.1401901  53.5105419  74.4974375
  55.1946545  55.3871632  75.4122400  55.2843046  55.8957720  76.3721275
  56.0899639  55.8071327  74.9538231  53.8349390  55.7290030  74.8055744
  52.6768923  55.7190752  75.5116701  52.6038027  55.3923130  76.5384531
  51.6987514  56.1518049  74.6777391  50.7670927  56.4118719  74.9684000
  52.1941137  56.6870546  73.4856701  51.4817619  57.2190475  72.4001932
  50.4274368  57.4391508  72.4799347  52.2397137  57.7186060  71.3670444
  51.7569780  58.3380508  70.6256580  53.6164093  57.4329233  71.3443995
  54.2311764  57.8583717  70.5650091  54.2446756  56.6998148  72.3442984
  55.2809238  56.4390230  72.1875334  53.5345125  56.2609053  73.4773970
  57.0779467  53.6994839  75.4731941  57.6539278  53.7994146  76.5653944
  57.7785110  53.4612083  74.3451929  57.2902679  53.2983971  73.4761620
  59.2611313  53.2645559  74.2586374  59.6558189  53.5776758  75.2252197
  59.7206926  52.2904587  74.0911818  59.8457956  54.2561865  73.3374977
  59.3177271  54.4543457  72.2366714  60.9358549  54.9716139  73.6922979
  61.3030577  54.7943354  74.6163321  61.4369297  56.0782576  72.9283857
  61.0930967  56.1239338  71.8950415  61.0964298  57.3812675  73.6430836
  61.5466547  57.2753382  74.6300888  61.4444542  58.1708384  72.9770851
  59.5552397  57.6407242  73.8700962  59.1076231  56.7297888  74.2675114
  59.4378138  58.7534809  74.8740911  59.9898291  59.6274185  74.5282269
  58.3935356  58.9901400  75.0779867  59.9382114  58.3984566  75.7750130
  58.7544441  57.9226303  72.6313925  57.7876854  58.1737947  73.0677366
  59.0527105  58.8137341  72.0790577  58.6941719  57.0580530  71.9703484
  62.9203176  55.8197260  72.8404522  63.6167097  55.5743456  73.8752604
  63.4125233  55.9291315  71.6089678  62.7441454  56.2205458  70.9100771
  64.7722483  55.5739498  71.2579775  64.9175501  54.6100569  71.7457294
  64.9729824  55.4117393  69.7622299  65.0339413  56.3230848  69.1673899
  66.3496923  54.7704506  69.6028042  66.5426207  54.6529388  68.5364676
  67.0947123  55.4675865  69.9862766  66.3912392  53.8249397  70.1435328
  64.0010452  54.5439434  69.2960978  63.2480431  55.1356030  69.3633747
  65.7984924  56.6417885  71.8473577  65.6076002  57.8505564  71.5467072
  66.7382240  56.2575388  72.6228523  66.6625452  55.2793360  72.8626299
  67.6819515  57.1854734  73.3743811  67.1283722  58.0220270  73.8007975
  68.4016705  56.3292933  74.4577217  67.6516485  55.8042431  75.0492382
  69.1334343  55.5963993  74.1178703  69.1377878  57.2768450  75.4912281
  68.4934616  58.0653572  75.8800554  69.4262743  56.6197014  76.3116217
  70.4220867  58.0264473  75.0597048  70.0789499  58.8539362  74.4387245
  70.9526634  58.3846569  75.9419060  71.3602734  57.2189903  74.3059301
  71.2737274  56.2143898  74.2477417  72.1529675  57.6353359  73.3356857
  72.4828386  58.8873720  73.1345892  72.1307421  59.6227121  73.7307501
  72.9388428  59.0211535  72.2433758  72.8039932  56.7305899  72.6215839
  72.6789045  55.7351065  72.7376175  73.5468578  57.0746613  72.0300865
  68.6311388  57.9118443  72.3864365  68.9437342  59.0894127  72.4764442
  69.0885115  57.2125387  71.2817574  68.8481665  56.2657738  71.0249043
  69.7746754  57.9275656  70.1750469  70.6316137  58.4369850  70.6157827
  70.2511692  56.8422890  69.1857910  70.8691978  57.3469019  68.4431553
  70.9107018  56.1672544  69.7311687  69.2621994  56.1350346  68.4668922
  68.9916134  56.6585875  67.7090788  68.9043045  58.9811039  69.3969154
  69.5817089  59.7640133  68.6666489  67.5486517  59.0487146  69.5532990
  67.1559525  58.4400129  70.2571249  66.5510559  59.8974323  68.8879013
  66.9462872  60.2610493  67.9393911  65.2970409  58.9823532  68.4995127
  64.6153545  59.5833778  67.8977013  65.6566954  58.0929804  67.9820585
  64.7365904  58.6319256  69.3662310  66.1958170  61.1069059  69.7515726
  65.3077269  61.8741322  69.3548298  66.8500948  61.1939859  70.8977318
  67.6076365  60.5733061  71.1446905  66.3878822  62.1633387  71.9340611
  65.6958485  62.7879906  71.3692617  65.7321310  61.4070654  73.0875254
  66.4905787  60.7853937  73.5633183  65.4509068  62.0952272  73.8846779
  64.4537592  60.6059551  72.7881670  64.6788359  60.0176668  71.8985796
  64.2000008  59.7305584  74.0018749  63.5186577  58.9111757  73.7727499
  65.1149321  59.2031288  74.2717266  63.8879061  60.2043438  74.9325848
  63.3244991  61.5978003  72.6669741  63.6300087  62.4119806  72.0098019
  62.4113083  61.1159897  72.3176289  63.1232357  61.9947815  73.6619616
  67.4781895  63.0483389  72.5269508  68.6840391  62.6994228  72.5019026
  67.0631075  64.1619778  73.1606293  66.0893679  64.3976498  73.0325985
  67.8720188  65.1659870  73.8699961  68.8332415  64.7876024  74.2178059
  68.2253695  66.2692499  72.8490543  68.8720369  65.8443832  72.0813227
  67.0079851  66.9463587  72.2127199  66.4914894  66.1596680  71.6627598
  66.3139009  67.3085642  72.9711151  67.4472857  67.6768208  71.5333557
  69.1114473  67.2682714  73.5656738  68.4658194  67.9410458  74.1301584
  69.7780895  66.7845154  74.2795849  69.9728489  68.1849718  72.7042103
  70.5368519  67.5987196  71.9787359  69.3973732  68.9900637  72.2473145
  70.7353115  68.6954165  73.2925940  67.1131516  65.6190205  75.1526403
  65.8723164  65.7633209  75.0486374  67.7141380  65.7402182  76.3487291
  69.0436745  65.3871107  76.7386580  69.7830772  66.1820936  76.6417360
  69.4412374  64.4939280  76.2567139  68.9257860  65.1022291  78.1871176
  69.9126244  65.2673674  78.6195278  68.7558460  64.0292978  78.2767963
  67.7812481  65.9572363  78.7480736  68.2090521  66.8378735  79.2272091
  67.2054863  65.3745127  79.4671202  67.0167398  66.3849020  77.4822426
  65.9936237  66.0117674  77.4364758  67.0637846  67.8472614  77.3320150
  68.0446386  68.4971762  76.8973160  65.9168911  68.4884214  77.6158714
  65.0740290  67.9730034  77.8256941  65.7467079  69.9142313  77.3935318
  66.2510538  70.2449846  76.4856005  64.2841482  70.4235458  77.1752214
  63.7032366  70.2097940  78.0724144  64.1159105  71.9266748  76.9077492
  64.2084312  72.4604797  77.8535795  64.9025059  72.1714544  76.1939859
  63.1141758  72.1064568  76.5174866  63.8617277  69.6991491  76.0569906
  64.3123722  70.1212168  75.3218889  66.3288069  70.7352972  78.5557032
  67.2749662  71.5189123  78.3460808  65.8976984  70.6285810  79.6853161
  61.1412668  66.0192680  65.1567221  62.2141933  40.4677916  47.5411129
  62.1093035  39.6262360  46.9925880  61.2474442  40.7346058  47.6607227
  62.5738764  40.2228975  48.4525728  62.9788351  41.5561914  46.9508028
  63.9209175  41.1252165  46.6119289  62.3743153  42.0934963  45.6574488
  62.0239162  41.3291121  44.9638796  61.4221621  42.5597000  45.9107590
  63.3631277  42.9457617  44.8874140  64.5252609  42.4094296  44.2935133
  64.7260761  41.3790274  44.5471716  65.3991890  43.2815933  43.6285210
  66.3874531  42.9580355  43.3369064  65.1366854  44.6625376  43.4456635
  65.8417797  45.3419018  42.9899073  63.8950443  45.1420879  43.8996744
  63.5413837  46.1408901  43.6905909  63.0495739  44.2558384  44.6693659
  62.2022915  44.7492599  45.1221848  63.1103754  42.7058983  47.9711390
  62.1650648  42.9393864  48.7342691  64.2440319  43.3962011  48.0043221
  64.9820280  43.0941534  47.3844576  64.5236826  44.5267868  48.8827705
  63.5575008  44.8921013  49.2308331  65.3700399  44.1530085  50.1511860
  64.8749447  43.2759333  50.5679846  66.8019247  43.6447668  49.7354317
  67.3830605  43.3186340  50.5979967  66.8003368  42.8997374  48.9398003
  67.3552084  44.4560528  49.2623615  65.4673958  45.2708149  51.1655045
  66.0840225  46.0485411  50.7149315  64.4481182  45.6089306  51.3522148
  65.9381437  44.8748779  52.5617075  65.6643867  45.5977392  53.3302307
  65.4091644  43.9803028  52.8903770  66.9638014  44.5341682  52.4201155
  65.2364492  45.7138681  48.0976629  66.0322666  45.4546165  47.2243404
  64.9181652  46.9396448  48.4534359  64.2654228  47.1812820  49.1853094
  65.6043005  48.1508970  47.9702520  66.4201117  47.8567076  47.3099470
  64.5651913  49.0232182  47.1564531  65.1819372  49.8117542  46.7252445
  63.8056755  48.2079077  46.0137463  64.4859123  47.4904060  45.5548668
  63.0722427  47.6218748  46.5675926  63.3678293  48.8649225  45.2622604
  63.4093666  49.6926165  47.9557991  63.7318897  50.3288412  48.7799978
  62.7519178  50.3250599  47.3592472  62.7757263  48.9367533  48.4197617
  66.1334753  49.0486574  49.1017199  65.6082439  48.8961840  50.2254725
  67.2172165  49.8162317  48.8542318  67.6208401  49.8702621  47.9299593
  67.8646040  50.5977392  49.9704218  68.8182163  51.0079336  49.6380472
  67.2693157  51.4794302  50.2078438  68.0883217  49.8985577  51.2775373
  67.8098631  50.4320621  52.3541975  68.6164665  48.6551523  51.1953592
  68.6551952  48.3406019  50.2363729  69.1210413  47.7338600  52.2758913
  69.2079306  46.7098808  51.9125509  70.0797081  48.1475878  52.5887680
  68.2645607  47.6199579  53.6000299  68.7148809  47.0775890  54.6264935
  66.9340038  47.9521656  53.5963821  66.6852570  48.3549929  52.7042198
  65.9434223  47.8205824  54.7151899  65.9974003  46.8132877  55.1281738
  66.2198496  48.7550735  55.8912849  65.5955076  48.5005379  56.7477369
  67.2425127  48.5462999  56.2054062  66.2799311  50.2796555  55.5753613
  66.8777084  50.6097126  54.7257614  65.2428675  50.5635738  55.3964996
  66.8048477  51.0681486  56.7593527  66.3115454  50.7639360  57.6825047
  67.8622341  50.8105612  56.8200588  66.6632557  52.6009274  56.5605021
  67.2739267  53.0071354  55.7541656  65.6151295  52.8608131  56.4122057
  67.0996666  53.3717108  57.7383375  67.0827866  54.3466187  57.4749517
  66.5913105  53.2276392  58.5991001  68.0801105  53.2008982  57.9105377
  64.4827032  47.9076862  54.2808914  63.5376930  47.7624750  55.0143147
  64.2088747  48.2396555  53.0743170  64.9771070  48.2541990  52.4187946
  62.8874159  48.5323286  52.5528908  62.1692705  48.5398722  53.3728361
  62.8586960  49.9414825  51.9257116  63.3174181  49.7894907  50.9486866
  61.8619490  50.3411388  51.7389774  63.6050177  50.9152508  52.7439070
  62.9219198  51.3914871  53.8950157  62.0911694  50.8372402  54.3061972
  63.4313822  52.5544930  54.5117855  63.0089474  52.8593254  55.4578447
  64.5269060  53.2005548  54.0465927  64.9797297  54.2422056  54.8051310
  65.5644417  54.8481560  54.3441105  65.2775383  52.7458143  52.9188299
  66.1502361  53.2152081  52.4893332  64.7312832  51.6309690  52.2564316
  65.1950550  51.2679482  51.3511467  62.3794937  47.3439932  51.6813040
  62.6329565  47.2623730  50.4814100  61.7598438  46.3546991  52.2875452
  61.4387560  46.4973593  53.2344580  61.4408207  45.0362206  51.7465591
  62.2223663  44.6700811  51.0808039  61.4114666  44.0010834  52.8894520
  62.2870970  44.1462517  53.5221434  60.5440044  44.1173458  53.5391378
  61.5306377  42.5520897  52.3230553  60.8386612  42.5279522  51.4812231
  62.5638485  42.5328827  51.9763565  61.2478638  41.5994883  53.4834194
  61.9675589  41.8126726  54.2737961  60.2101326  41.5744925  53.8159704
  61.6422176  40.2632475  52.9195166  61.0069513  40.0662327  52.0559692
  62.6720190  40.3103828  52.5654078  61.5420818  39.1154051  53.7922621
  61.8579245  38.2095075  53.4765053  61.9834328  39.2214608  54.6945190
  60.5708218  38.9367628  54.0040207  60.0702095  45.0886488  51.0527372
  59.0543747  45.5359507  51.5733862  59.9480581  44.6609879  49.8201752
  60.7891989  44.3414450  49.3613863  58.6583424  44.6502161  49.1406775
  58.3558035  45.6960726  49.1933250  58.9787531  44.4972658  47.6237202
  59.6633577  43.6554337  47.5201511  57.9787540  44.2380142  47.2760153
  59.3134308  45.8081532  46.8208504  58.4987354  46.5244198  46.9273376
  60.7410336  46.3462830  47.1228981  60.7334995  46.6796827  48.1606245
  61.5093040  45.5785608  47.0308924  60.9601021  47.2582150  46.5674877
  59.2866802  45.5844402  45.2794743  59.7518730  46.4261103  44.7663450
  59.7353649  44.6482849  44.9472141  58.2746172  45.4747725  44.8898602
  57.7550316  43.6751556  49.7549963  58.1665230  42.5262356  49.9156332
  56.5145969  44.0671396  50.0252247  56.1384821  44.9255705  49.6487379
  55.4947233  43.1841040  50.7086802  55.9330559  42.2385311  51.0278463
  54.7884178  43.8345432  51.9140148  54.1468525  44.6537781  51.5894461
  53.8564062  42.8426695  52.5986671  54.3632317  41.8888330  52.7450800
  53.4583044  43.2178164  53.5414696  53.0192089  42.6200390  51.9371271
  55.9047842  44.2411852  52.9615831  56.2177134  43.3865738  53.5614347
  56.7579031  44.6500778  52.4202013  55.4523849  45.0354147  53.5554123
  54.4585943  42.7649498  49.6129227  54.0910292  41.5634966  49.5462847
  53.8317585  43.7246704  48.9246845  54.0462399  44.6885538  49.1368914
  52.7243662  43.4249306  48.0202818  53.0879211  42.5782919  47.4379301
  51.4532566  42.9906321  48.7549114  51.7140055  42.2451162  49.5061255
  51.0644817  43.8992357  49.2146873  50.3635502  42.3859072  47.8213024
  50.0799656  43.0779648  47.0283699  50.7385969  41.5284872  47.2624826
  49.1314173  42.0769835  48.7087917  49.4041443  41.2743330  49.3939734
  48.7379360  42.9133081  49.2865705  47.9605055  41.7304182  47.8445005
  47.6483297  42.4842930  47.2492504  47.2487211  40.6338739  47.8497601
  47.6092672  39.5147848  48.3982563  48.4665298  39.4439220  48.9275789
  47.0890522  38.6536694  48.3090353  46.0458326  40.6418800  47.3309422
  45.7244015  41.5077972  46.9223213  45.6029463  39.7428489  47.2056627
  52.4411440  44.5781898  47.0113945  52.3405457  45.7608461  47.4005556
  52.3418999  44.2093801  45.7188940  52.5997925  43.2599592  45.4904413
  52.0360708  45.1472378  44.5772266  52.7385187  45.9796000  44.5343161
  52.1952391  44.4632959  43.2085991  53.1722927  44.0120173  43.0359268
  51.5974045  43.5613775  43.0773115  51.8216991  45.3635454  42.0361471
  50.7563019  45.4385376  41.8184233  52.2611380  46.3608265  42.0569181
  52.3439741  44.7721386  40.7255125  53.4325457  44.7534037  40.7780552
  52.0833683  43.7165403  40.8023453  51.8352032  45.4190302  39.4375181
  50.7544374  45.2829409  39.3984294  52.1902037  46.4474678  39.3712473
  52.4479055  44.7535753  38.2781100  52.4257278  43.7440968  38.2544231
  51.9280386  44.9362803  37.4316716  53.3856010  45.1282263  38.2567358
  50.6944942  45.7951498  44.7019720  49.7068834  45.0859261  44.7385693
  50.6207466  47.1298456  44.5820761  51.4545393  47.6809168  44.4364309
  49.3555212  47.8489399  44.7021484  48.5038805  47.2181511  44.4473696
  49.0663862  48.3539677  46.1472034  48.0232620  48.6545992  46.0491276
  49.0710545  47.3300409  47.3236084  50.0382233  47.0338535  47.7297544
  48.4468269  47.6481104  48.1586361  48.5441351  46.4411211  46.9767904
  49.9305582  49.6070957  46.4302874  51.0018110  49.4095039  46.4687490
  49.8866415  50.2838087  45.5769205  49.4688463  50.3254509  47.7164173
  48.3821392  50.3261328  47.8010941  49.9026537  49.9403620  48.6392498
  49.7546625  51.3761330  47.7661276  49.0906286  49.0110159  43.5872030
  47.9978943  49.5551777  43.5773802  50.0656557  49.2325735  42.6592302
  50.8497572  48.6019230  42.7462530  49.8351240  49.8898888  41.3917732
  48.7827158  49.7457218  41.1473227  49.8823786  50.9747505  41.4863920
  50.6829596  49.4562483  40.2176523  51.6010475  48.6476231  40.4393482
  50.3747225  49.9042749  39.0244007  49.4932985  50.3914642  38.9479804
  51.1324787  49.6482944  37.8142571  52.1992779  49.6961212  38.0328035
  50.8969688  48.2835388  37.2072196  50.8541155  47.5417995  38.0047703
  49.9335289  48.3646917  36.7039323  51.9217825  48.0287123  36.2342167
  52.6977301  47.8858566  36.7811179  50.8697081  50.8094025  36.8073368
  49.7342825  51.3274908  36.7769289  51.8992424  51.2287998  36.1203122
  52.8303432  50.9535551  36.3985133  51.7405796  52.1685505  34.8806238
  50.8644915  52.0291233  34.2472768  51.5100145  53.1729650  35.2357125
  52.9847383  52.2626591  33.9652729  53.8680124  51.3972330  33.9544892
  52.9771805  53.2882977  33.1214666  52.2162342  53.9519215  33.0955791
  53.8980055  53.4722853  31.9719100  53.6991644  52.6052332  31.3419986
  53.6241150  54.7624445  31.0881519  54.3171787  54.8210907  30.2489114
  52.6080465  54.7643375  30.6935596  53.7645149  55.9886932  31.8716502
  53.2405996  56.6858578  31.4703131  55.3900051  53.4792471  32.3892474
  56.3203239  53.3697367  31.5407157  55.6259489  53.6514854  33.6681437
  54.8780394  53.9027834  34.2986917  56.9910717  53.7089300  34.2584538
  57.7548742  53.8179398  33.4885049  57.2661972  54.8940706  35.0791955
  58.2495499  54.8533964  35.5476737  57.2600985  55.8098555  34.4880962
  56.2381697  55.1948452  36.2042952  54.9296761  55.7022095  35.9243774
  54.6586943  56.0377598  34.9342370  53.9852524  55.7292700  36.9887781
  52.9778957  56.0686445  36.7978454  54.3972874  55.5274296  38.2639527
  53.6750555  55.5260277  39.0669322  55.6564569  55.0909328  38.5795283
  55.8746386  54.9002552  39.6199322  56.5838146  54.8948097  37.5466084
  57.5853920  54.5349121  37.7302361  57.3084450  52.5182581  35.1504254
  58.5031557  52.3218584  35.3104544  56.3525009  51.7458057  35.6615496
  55.3816366  51.8832684  35.4194069  56.8001604  50.7169437  36.5335155
  57.1138620  49.8519325  35.9491825  57.6474619  50.9802103  37.1666551
  55.5802822  50.2704477  37.4279904  54.4315910  50.1390982  37.0109296
  55.8599043  49.9308777  38.6347342  56.8157768  49.9864292  38.9561772
  54.8507500  49.5171928  39.6100688  53.8485479  49.5829439  39.1865563
  55.0701618  48.0206966  39.8823428  56.1182165  47.8864145  40.1500034
  54.4643974  47.7543449  40.7484961  54.7206306  47.0479393  38.7246180
  54.0415668  47.4212551  37.7571106  55.2566814  45.9100342  38.7997341
  54.9005795  50.4079199  40.8576536  55.9167433  50.9636402  41.1872816
  53.7836981  50.4434538  41.5367603  53.0376911  49.8101330  41.2868071
  53.7398767  51.0254431  42.8655672  54.7054911  51.4826250  43.0815935
  52.6687193  52.0957327  42.9723406  51.7098331  51.6094732  42.7929020
  52.6097631  52.6655674  44.3952227  51.7484522  53.3185577  44.5360851
  52.4158907  51.8989944  45.1454735  53.5140228  53.2640028  44.5060778
  52.7431440  53.3216667  42.0367146  52.5019693  54.2920303  42.4706888
  53.8050985  53.3897734  41.8006611  51.8543100  53.1810808  40.8736992
  52.3001957  53.7568474  40.0626564  51.7092800  52.1646881  40.5076218
  50.8732700  53.5952282  41.1063910  53.4317493  49.8906374  43.9210033
  52.6100206  49.0387249  43.5910702  54.0284157  49.9026775  45.1012039
  54.5897388  50.7327604  45.2276087  54.0203762  48.8170338  46.0784817
  53.1706476  48.1653881  45.8749676  55.3734589  48.0470276  45.9156799
  56.2463140  48.6888123  45.7959414  55.6458616  47.5251961  46.8330622
  55.4569387  46.8668270  44.9204302  55.7016897  47.0527554  43.5769701
  55.7192326  48.1110716  43.3623505  55.7977533  45.9815168  42.6593733
  55.8727932  46.1743689  41.5993881  55.7240725  44.6823502  43.1876278
  55.9149599  43.6840343  42.3098135  56.1104488  42.8186607  42.6765728
  55.6302643  44.4525290  44.5890856  55.6974459  43.4644461  45.0198793
  55.5180979  45.5360079  45.4915953  55.6497765  45.3461552  46.5465879
  53.8239717  49.1701365  47.5484562  54.2824602  50.2566242  47.9756117
  53.2185745  48.2731915  48.3113432  52.6781178  47.5789595  47.8153133
  53.3202457  48.1498814  49.8127127  53.2634258  49.1235113  50.2994585
  52.0717192  47.3393536  50.2708054  51.2396717  48.0276585  50.1223612
  51.9380951  46.4986706  49.5900059  52.0143080  46.8473244  51.6942072
  52.9433346  46.3980627  52.0451689  51.7474318  48.0525017  52.6185894
  51.6498470  47.7002096  53.6454678  52.6037073  48.7110186  52.4728203
  50.8354998  48.5775423  52.3343086  50.8707714  45.8670759  51.8336773
  49.9701834  46.2983990  51.3966322  51.1709595  44.9894619  51.2611532
  50.7129574  45.7140255  52.9012775  54.6919441  47.4370527  50.1674080
  54.9325752  46.3818645  49.5855093  55.3127241  47.8804398  51.2492037
  55.0509644  48.7690067  51.6517448  56.7266369  47.4889946  51.6568136
  56.9515657  46.4492798  51.4191151  57.6738644  48.2570982  50.7551432
  57.8566313  49.2110586  51.2497616  58.6790562  47.8387737  50.8070898
  57.2780037  48.4556627  49.7591686  56.9680929  47.7984905  53.1317616
  56.0615635  48.3835268  53.7420177  58.0345011  47.3863697  53.7926292
  58.6751604  46.7785883  53.3024693  58.1438398  47.5297165  55.2582073
  57.6849079  48.4864712  55.5074072  57.5892639  46.2948561  56.0329866
  56.5352631  46.2725782  55.7560539  58.0954361  44.9229002  55.5457497
  57.4712801  44.1453409  55.9861183  58.1067896  44.7588587  54.4682217
  59.1023540  44.7706795  55.9344053  57.7003622  46.4561081  57.5630999
  58.7291336  46.1495733  57.7522039  57.6402378  47.4447680  58.0181170
  56.8087816  45.5979061  58.4844303  57.1095943  45.8083105  59.5107555
  55.7386684  45.6802320  58.2942104  57.0981169  44.5517683  58.3845186
  59.5887089  47.7205133  55.5657768  60.4591036  47.1682501  54.8731327
  59.8909712  48.5725832  56.4931345  59.2036581  49.0134478  57.0875597
  61.2398005  48.8326454  56.9909954  62.0321178  48.8828230  56.2441206
  61.3009548  50.2217865  57.6077652  60.9115839  50.9009981  56.8493700
  60.6949329  50.2187300  58.5137606  62.6515484  50.7034826  58.1902933
  63.6750174  50.0275612  58.2796478  62.6787853  51.9835949  58.6353016
  63.5172272  52.2934580  59.1055155  61.8611956  52.5675106  58.5318995
  61.7201281  47.8435564  58.0937195  61.1413813  47.7155542  59.1634989
  62.7526999  47.0992422  57.7901697  63.1602097  47.2181511  56.8737125
  63.3582544  46.0257244  58.5979652  62.6068020  45.3893137  59.0653086
  64.2476559  45.2226353  57.7632427  65.0715876  45.8478642  57.4192572
  64.7897100  44.5746088  58.4519672  63.6143064  44.5031500  56.5758181
  62.5685167  44.4389915  56.8763304  63.8580465  44.9897957  55.6314373
  63.9474630  43.0566120  56.3483810  63.0465412  42.1830940  56.5491152
  65.1534748  42.7266312  56.1745691  64.0786123  46.5594196  59.8189831
  64.3365145  45.7945347  60.7301140  64.4495678  47.8540516  59.9374533
  64.5175123  48.4764957  59.1449642  64.9772120  48.4149265  61.1690950
  65.5840588  47.6152706  61.5938187  65.9152031  49.5736265  61.0391665
  66.3889647  49.7831869  61.9981909  66.9377851  49.3675995  59.9002552
  66.3030434  49.1149998  59.0509033  67.6377726  50.1861477  59.7326231
  67.5991106  48.6015892  60.3051996  65.1208973  50.6249046  60.6500483
  64.8868465  50.3930950  59.7483349  63.9186049  48.6498880  62.2734547
  64.4105959  48.5878754  63.4108543  62.6729631  49.0223169  61.9579935
  62.4030542  49.0254068  60.9847307  61.7570734  49.5452023  63.0432272
  62.0450020  49.2387581  64.0488577  61.8145323  51.0559082  63.0301428
  61.3201666  51.5698004  63.8545370  62.8810644  51.2575531  63.1298780
  61.4093876  51.6894770  61.6648865  60.6821394  51.0921574  60.8434105
  61.5791845  53.0050230  61.4824963  61.1701918  53.2513666  60.5924749
  62.1289635  53.5482740  62.1326733  60.2844143  49.0758276  62.9562616
  59.5686769  49.3867159  63.8586569  59.9635696  48.3264017  61.9066143
  60.6011486  48.1915760  61.1349773  58.5899830  47.8151846  61.8283844
  58.4300184  46.7942190  61.4817762  58.2032156  47.6552153  62.8348207
  57.6339436  48.7564850  61.1595917  56.4371395  48.5360622  61.2901306
  58.0453587  49.8431301  60.5463505  59.0204000  50.1005363  60.6024027
  57.1973324  50.7827377  59.8251486  56.2644958  50.9075594  60.3750134
  57.8250980  52.2102833  59.6814823  58.2487488  52.6271582  60.5951738
  58.5999489  52.2792578  58.9179707  56.7227888  53.1590986  59.3929958
  55.9555054  52.5873232  58.8710260  56.1471272  53.3551550  60.2975798
  56.9972992  54.4887400  58.6950731  58.0863285  54.7062397  58.1440973
  56.1063004  55.3681898  58.7379074  56.8754053  50.3837633  58.3824396
  57.7965164  50.3516054  57.5638056  55.5997992  50.0430107  58.1158257
  54.9456501  49.9589777  58.8807678  55.1369524  49.8188734  56.7665195
  55.7986736  49.0775728  56.3185310  53.6886263  49.2902803  56.8003750
  53.0912495  49.8481941  57.5214672  53.3162642  49.2881680  55.7759571
  53.6536884  47.7463484  57.1810532  54.3732738  47.2857666  56.5041828
  54.0436792  47.6546431  58.1947613  52.2456026  47.2102118  57.1548367
  51.3064098  47.9911613  57.1340704  52.1498775  45.9846830  57.1159315
  55.2945518  51.1446524  55.8870173  54.9668741  52.2837782  56.3533545
  55.6378984  50.9616804  54.5990372  55.7724714  50.0190115  54.2623329
  56.0901928  52.0825291  53.7059689  55.6113005  52.9905272  54.0724468
  57.6278067  52.4016142  53.7122440  57.8304148  53.0576801  52.8657055
  58.0519438  53.1422853  54.9941540  59.0784836  53.5010052  54.9190712
  57.4871016  54.0745115  54.9925852  57.9220819  52.6202250  55.9421444
  58.5616589  51.2090015  53.6289978  58.1623650  50.5658960  52.8447294
  59.6006680  51.5041065  53.4824562  58.3560133  50.6215668  54.5238352
  55.6960964  51.7574787  52.2268200  55.7732248  50.5629778  51.8095112
  55.3240585  52.8092337  51.4662504  55.4522514  53.7485027  51.8147278
  55.0522089  52.6499605  50.0370312  54.5334196  51.7157269  49.8221636
  54.0445948  53.7021065  49.5671940  53.8642120  53.6144972  48.4957933
  53.1039000  53.7874794  50.1111650  54.5484114  54.6458721  49.7759533
  56.3394499  52.8593540  49.1670513  57.1390867  53.7129879  49.5563173
  56.4553738  52.0898294  48.0963802  55.7155275  51.4092064  47.9989672
  57.5872183  52.0646620  47.1205711  58.3047962  52.8300095  47.4162626
  58.3282042  50.6780100  47.1512127  57.6134920  49.8561668  47.1080637
  59.3166018  50.4892588  45.9839249  59.9350834  49.6130943  46.1786699
  58.7299442  50.1918602  45.1147366  59.9188232  51.3696051  45.7593775
  58.9416075  50.5748701  48.5222912  59.4387484  49.6154547  48.6653566
  59.7554445  51.2994671  48.4953594  58.2295895  50.7845354  49.3205166
  57.0684242  52.2683907  45.6884050  56.2405968  51.5381241  45.1341009
  57.6944590  53.2738876  45.0241184  58.3829546  53.7792110  45.5633068
  57.5839472  53.5807371  43.6093092  56.7955685  53.0032063  43.1265879
  57.3791122  55.0803947  43.3008003  57.6911736  55.6583595  44.1706753
  57.8856707  55.3686237  42.3796988  55.9709072  55.6598377  43.0772257
  55.6188297  55.4058743  42.0774031  55.1672411  55.3245926  43.7328386
  55.9395218  57.1804047  43.0736446  56.1318541  57.4883080  44.1014147
  56.5999651  57.6314402  42.3330498  54.5208073  57.5924206  42.8566170
  54.2902756  57.2869873  41.8359995  53.7700558  57.0757008  43.4545040
  54.4103193  59.0715981  42.8866863  54.9312687  59.6457052  42.2392941
  53.4804296  59.2836761  42.5543690  54.4854355  59.3570137  43.8526011
  58.8051128  53.0237770  42.9733467  59.9182129  53.3894920  43.3353901
  58.5798311  52.2191811  41.8748045  57.6860666  51.9638824  41.4796972
  59.6356106  51.6495895  41.0496378  60.5650759  51.8348980  41.5880251
  59.3661356  50.1435947  40.9439230  58.4262991  49.9891520  40.4138803
  60.1137400  49.6827459  40.2983093  59.2964697  49.3802309  42.2663403
  58.6796331  49.8735332  43.0175257  58.7934637  47.9085207  42.1810913
  57.7960062  47.9930687  41.7497826  59.3551683  47.3856354  41.4070177
  58.7837887  47.4096298  43.1501675  60.7131290  49.2980003  42.8324413
  61.3530159  48.6415005  42.2428226  61.3353777  50.1849794  42.9514933
  60.6640434  48.9234877  43.8549089  59.4423008  52.2577000  39.6119189
  58.3366442  52.1978664  39.1405368  60.5463743  52.8101873  39.0125299
  61.3965273  52.7542448  39.5549417  60.5522251  53.4334135  37.6599789
  59.6206951  53.1509161  37.1695185  60.6356764  55.0131226  37.7706552
  59.7361517  55.4156351  38.2364178  61.5480709  55.2417421  38.3214474
  60.7653618  55.8135128  36.4710760  61.0585308  55.1350784  35.6699014
  59.7631884  56.2284994  36.3636994  61.7829132  57.0476198  36.5031052
  63.0121994  56.8544626  36.6325212  61.4561558  58.2306623  36.1890960
  61.6675806  52.9276896  36.8005514  62.8243399  52.8740358  37.2242880
  61.4062405  52.3111105  35.6632447  60.5080748  52.4084330  35.2116561
  62.5369453  51.8227100  34.7652864  62.9117537  50.9420490  35.2868772
  61.8965483  51.4291286  33.4836364  61.1304951  50.7121134  33.7788534
  61.3358259  52.2164488  32.9798317  62.8491545  50.7637835  32.6159930
  62.5082493  50.4924393  31.7605639  63.6852789  52.7966881  34.5043349
  63.4475183  53.9674711  34.1754246  64.9497032  52.3063850  34.6144319
  65.1108408  51.3156891  34.7268939  66.1457491  53.1019878  34.1836286
  66.1305571  54.0899181  34.6439338  67.4283695  52.4041080  34.6817660
  67.4644947  51.4230871  34.2080569  68.2706356  52.9363680  34.2397380
  67.5621080  52.1368599  36.1917377  67.7610779  53.0105877  36.8123078
  66.6021776  51.8278074  36.6054010  68.6913204  51.1113167  36.5216255
  69.6070576  50.8611631  35.7814598  68.8148022  50.6169605  37.7241635
  69.3125820  49.7571421  37.9059219  68.0898476  50.7666492  38.4112787
  66.1821461  53.2399893  32.6447415  66.8776417  54.1595411  32.2371101
  65.3541517  52.5177717  31.8413353  64.7992134  51.7849827  32.2598767
  65.2853155  52.7735090  30.3671694  65.8649302  53.6845350  30.2182269
  65.8675289  51.6062593  29.5931578  65.3413868  50.6583118  29.7057271
  65.8978224  51.8420887  28.5294080  67.3580980  51.4402103  29.8812914
  67.5138569  51.1919069  30.9311390  67.5022125  50.4921818  29.3630528
  68.3326340  52.5587606  29.5301008  68.4064293  52.6176977  28.4441996
  68.0472612  53.5384083  29.9134469  69.6867514  52.2520256  30.1684761
  69.5486498  51.8461943  31.1706400  70.2016068  51.4420986  29.6517134
  70.5375242  53.4601498  30.2475309  70.0283289  54.1476154  30.7843828
  71.4409924  53.2432508  30.6435275  70.6078911  53.8334799  29.3117046
  63.8673019  53.2377052  29.8669171  63.5081768  53.0109549  28.7119341
  63.0473852  53.9155149  30.7141519  63.2818222  54.0623856  31.6855264
  61.6139030  54.2880630  30.3323746  61.1001492  53.3493900  30.1248622
  60.8493662  55.1007223  31.4028859  61.0291195  54.7269487  32.4108958
  61.0616398  56.1671162  31.3265157  59.7682571  55.0386763  31.2785745
  61.4706230  55.1787949  29.0403819  62.2846889  56.1205387  28.8399363
  60.3656769  55.0669622  28.2741117  59.7687531  54.2630959  28.4067249
  59.9687147  56.0974312  27.2763586  60.8151436  56.6101837  26.8194747
  59.1333103  55.4219151  26.1944818  59.7323465  54.6467924  25.7165217
  58.1907701  55.0834894  26.6248226  58.7426090  56.3993073  25.1146841
  58.0947399  57.1845102  25.5043364  59.6649647  56.8595219  24.7603321
  58.0756187  55.6872797  23.8770819  58.2021570  54.6241713  23.6724234
  57.0073605  55.7044601  24.0930128  58.1052780  56.5162706  22.6492882
  57.9088545  57.4885321  22.8396177  58.3204937  56.1539459  21.3835096
  58.8821602  54.9651003  21.1307383  59.3018913  54.4214392  21.8712521
  59.1402054  54.8322964  20.1633286  57.9930162  57.0204830  20.4205966
  57.4948168  57.8761148  20.6200671  58.0720043  56.6882229  19.4700921
  59.0584421  57.1779871  28.0363441  59.0969658  58.3539200  27.6170921
  58.4736586  56.7886400  29.1625595  58.4580517  55.7983494  29.3605042
  57.7161598  57.6801157  30.0371408  57.5618601  58.6753559  29.6202588
  56.1970663  57.1960258  30.0620008  56.1356974  56.3335800  30.7257175
  55.6111383  57.9842997  30.5346775  55.6716967  56.7669678  28.7604117
  55.9235287  55.5184507  28.2434988  55.2999878  55.4780483  27.1079373
  55.4176044  54.7034311  26.3646054  54.6641588  56.6629219  26.8194032
  54.1769695  56.9572973  25.9850836  54.8740721  57.4685001  27.9069042
  54.3884897  58.4255552  28.0279756  58.2554913  57.9169083  31.4766502
  57.5238276  57.6453543  32.4360800  59.3997002  58.5537815  31.6587806
  60.2788305  59.0844345  30.6320429  59.7470093  59.9144650  30.1669431
  60.5937576  58.3453178  29.8954058  61.4555454  59.7208738  31.2683415
  61.3283920  60.7977915  31.3787103  62.2306204  59.4083023  30.5685925
  61.5648794  59.0156603  32.6164961  62.1455669  59.7047091  33.2297730
  62.0485115  58.0478764  32.4838543  60.0488377  58.7915611  32.9669356
  59.9677515  57.8989887  33.5872936  59.4312525  60.0238514  33.7214899
  59.0329313  60.9811449  33.0941820  59.4195175  60.0500393  35.0656986
  59.9524689  59.2627668  35.4066849  58.9283276  61.0864019  35.9876680
  59.3207169  61.9847775  35.5111670  57.3847008  61.1050272  35.9589577
  56.9673586  62.0842457  36.1935949  57.0381594  60.8007193  34.9713302
  56.8416882  60.1006079  36.9075990  57.3003817  59.1300058  36.7188358
  56.9773388  60.3635979  37.9566622  55.3352261  59.8250914  36.7556763
  54.8826885  59.7644424  35.6072307  54.5566320  59.9339676  37.8517652
  53.5495758  59.9015188  37.7818084  55.0029087  60.2717018  38.6925197
  59.4711542  61.1284447  37.4200940  59.1275120  61.9971848  38.1787705
  60.1020622  59.9651670  37.7326322  60.2691603  59.2109442  37.0819950
  60.4707241  59.7381830  39.1946650  59.5161295  59.8631811  39.7057652
  60.6695604  58.1946611  39.4154167  59.9255800  57.6977253  38.7928009
  61.6929007  58.0661011  39.0627813  60.5396938  57.7162075  40.9226322
  61.2375069  58.1848383  41.6165638  59.1256571  57.7964497  41.5121698
  58.8448906  58.8325787  41.7011452  58.4376717  57.4283409  40.7510662
  59.1773319  57.1963406  42.4206257  60.9193420  56.1887980  40.8771467
  61.8916035  56.0809135  40.3963566  60.9841585  55.8351564  41.9061470
  60.1329517  55.5865002  40.4222441  61.5884686  60.6597424  39.7657704
  61.6051674  60.9351635  40.9616041  62.6428938  61.0164499  39.0299892
  62.6983929  60.7740974  38.0510688  63.6867476  61.9341898  39.4948030
  64.1018248  61.5415859  40.4230642  64.8612499  61.9663572  38.4633875
  65.3300571  60.9838963  38.4077883  64.5962286  62.1050835  37.4152374
  66.0563278  62.8914356  38.8145924  66.0521984  63.0647564  39.8907185
  67.3606730  62.1571922  38.3301663  68.2627296  62.7525282  38.4715295
  67.5245142  61.2246799  38.8702393  67.2749424  61.8998575  37.2744536
  65.8184338  64.2433882  37.9832077  66.7108393  64.8266077  38.2102895
  65.7338047  63.9743280  36.9303298  64.9535656  64.7883034  38.3615923
  63.1931496  63.3443403  39.8443460  63.5690832  63.8915396  40.8668375
  62.3111057  63.9877224  38.9975429  61.9745207  63.4616423  38.2037854
  61.6164446  65.2924204  39.2416406  62.3420763  66.0240746  39.5969605
  61.0766983  65.8000755  37.8991151  61.7837954  65.3202677  37.2224331
  60.1322699  65.3666162  37.5700712  61.0936785  67.3140669  37.7402925
  62.2582722  67.8310013  37.0962787  62.9839563  67.1552706  36.6682839
  62.2422695  69.2009258  36.8397713  63.0051565  69.6458006  36.2180901
  61.2565851  70.0606108  37.2735333  61.2404203  71.3566113  36.8401003
  62.1622658  71.6234016  36.8652272  60.1645231  69.5594740  38.0272484
  59.3371964  70.2375507  38.1760836  60.0962257  68.1834459  38.3099675
  59.1964197  67.8212023  38.7848616  60.5650759  65.1891375  40.3146553
  60.5863523  66.0545349  41.1640120  59.7271824  64.1405344  40.3687859
  59.7902346  63.4116077  39.6725082  58.9157248  63.8997889  41.5399647
  58.1539536  64.6523714  41.7434978  58.2141352  62.4747610  41.4087772
  58.8373756  61.6366291  41.0969782  57.9711151  62.2568178  42.4487495
  56.9345665  62.4070406  40.6083918  56.5481758  63.4187508  40.4849434
  57.1314716  61.9540501  39.6367264  55.8559895  61.4944220  41.2312269
  55.6415415  60.3898478  40.6470394  55.2725697  61.8556595  42.2796726
  59.7320700  63.8194275  42.8277397  59.3949223  64.5261335  43.7627459
  60.7727385  62.9443312  42.8999329  60.8427811  62.2348928  42.1844625
  61.7451859  62.9524708  43.9712143  61.1982679  62.6147842  44.8515224
  62.7558899  61.8966103  43.7018776  62.4334288  60.8555889  43.6820221
  63.1290960  62.0082045  42.6838589  63.8331795  62.0823240  44.5512819
  64.3930960  61.3136625  44.4199324  62.3845243  64.3086767  44.3864965
  62.4332952  64.7348976  45.5328703  62.7856255  65.0282621  43.3218384
  62.8539181  64.6215630  42.3998690  63.3686113  66.3691902  43.5503817
  64.0249157  66.1879396  44.4015646  64.0882015  66.7535591  42.2618246
  64.7694874  65.9747934  41.9191074  63.3747911  66.8862772  41.4484787
  64.9423981  68.0944586  42.3766851  65.1507139  68.3883905  41.3479424
  64.2297792  68.8210344  42.7670145  66.1753988  68.0300617  43.2535458
  65.9252882  67.6879406  44.2577839  66.8635225  67.2842073  42.8556776
  66.8301249  69.3769693  43.4265089  66.0929012  70.1003551  43.7748098
  67.6557016  69.4576788  44.1336250  67.3369169  69.8125887  42.0970869
  68.1584406  70.3996611  42.1205378  67.6435041  69.0075064  41.5698862
  66.6903305  70.3283167  41.5173912  62.3599815  67.3580122  44.0723372
  62.6550627  68.2539940  44.8666573  61.0834312  67.1909666  43.6495304
  60.8857203  66.5147448  42.9258299  59.9836588  68.0459738  44.0905714
  60.3208637  69.0815735  44.0465975  58.8902187  67.9012537  43.0253744
  59.2966938  68.1636763  42.0486355  58.4737635  66.8955374  43.0818987
  57.7500105  68.9650345  43.2672644  58.1930685  69.8589230  43.7063074
  56.9626284  69.1581392  41.9431162  56.6310978  68.1442595  41.7189884
  56.2076712  69.9431610  41.9864368  57.6687193  69.5060682  41.1891365
  56.7733574  68.4770250  44.3635225  56.3649750  67.4768829  44.2184544
  57.2576332  68.4403372  45.3393459  55.9085751  69.1221809  44.5185232
  59.6925831  67.7957249  45.5696249  59.7996378  68.7555742  46.3938236
  59.4720745  66.5521812  46.0351467  59.4146919  65.8091593  45.3534365
  59.2968559  66.1892748  47.4351549  58.4451532  66.7651558  47.7971840
  59.1543531  64.7017193  47.5526714  60.0283766  64.1699934  47.1765757
  59.2161083  64.4664049  48.6151743  57.9607391  64.1031837  46.8491554
  56.6547155  64.6055555  47.1088123  56.6212893  65.4611254  47.7670622
  55.5139399  64.0554619  46.4515734  54.5476770  64.5306301  46.5348864
  55.7160091  63.0459309  45.5471992  54.6184397  62.7367783  44.7773933
  54.7914648  62.3063040  43.9369440  56.9790077  62.4468470  45.4218817
  57.1337748  61.6052961  44.7629166  58.1250143  62.9310560  46.1152601
  59.0274000  62.3466778  46.0123110  60.4327202  66.6515493  48.2796574
  60.1982212  67.1701622  49.3833208  61.6662598  66.6049623  47.7171564
  61.7825651  66.0402822  46.8878698  62.8916502  67.0481539  48.4183598
  63.0004501  66.5665770  49.3901348  64.1481066  66.6923094  47.7073383
  64.0565062  65.7048273  47.2550297  64.3818378  67.3777008  46.8926573
  65.3680897  66.6087341  48.6191225  65.5755377  67.6638317  48.7975597
  65.1606989  65.9446192  49.4581938  66.6407681  66.0593939  48.0176687
  66.3079214  65.1222754  47.5714350  67.0440865  66.6920280  47.2269678
  67.6477957  65.7526302  49.1691685  67.7850389  66.6217136  49.8125696
  67.2360039  64.9253988  49.7472763  69.0756941  65.4513073  48.6775303
  69.7291231  65.7103968  49.4027948  69.3150902  64.4764471  48.5660458
  69.3167639  65.9387827  47.8264427  62.9425526  68.5548449  48.7598658
  63.1116438  69.0600348  49.8709106  62.7069235  69.3782854  47.7084494
  62.5117731  68.9025402  46.8391514  62.6168013  70.8495474  47.7387810
  63.5092831  71.2654018  48.2063723  62.5588274  71.4958096  46.3453579
  61.7571878  71.0557699  45.7522011  62.4124050  73.0624199  46.3709879
  63.1015921  73.5141182  47.0844889  62.6850653  73.5278320  45.4238081
  61.4304543  73.4754086  46.6018772  63.8772297  71.3015413  45.5604219
  64.0925360  70.2336073  45.5248499  63.6124277  71.6802168  44.5732021
  65.1177549  72.0323515  46.0446930  65.3239393  71.8308401  47.0958757
  65.9427834  71.6759872  45.4278994  65.0747299  73.1171036  45.9468508
  61.4895678  71.3228559  48.5495567  61.6044474  72.4253893  49.1506290
  60.3770590  70.5752754  48.5794926  60.2665710  69.8739243  47.8611612
  59.2027283  70.9451437  49.3853426  59.1937542  72.0312929  49.4764137
  57.8788853  70.5676556  48.6276865  57.9470778  69.5457029  48.2547712
  57.0273685  70.5943251  49.3076229  57.3321009  71.5139723  47.5721169
  57.2916555  72.5102043  48.0125570  58.3120728  71.6160631  46.3441944
  57.9531384  72.4103260  45.6896687  59.3271112  71.8901491  46.6317177
  58.3431578  70.6617546  45.8184338  55.9394312  71.0463476  47.1246481
  55.3184938  71.7632341  46.5874195  55.9823942  70.1844978  46.4587164
  55.3107643  70.8213711  47.9862022  59.1804218  70.2381420  50.8145142
  58.3075762  70.5412912  51.6274643  60.1592302  69.3882990  51.0882711
  61.0283756  69.3600225  50.5745745  60.1390076  68.4931278  52.3233128
  59.2286253  67.9079771  52.1933222  61.3532495  67.6113272  52.3052645
  61.2578154  67.0502567  51.3756418  62.2478008  68.2289505  52.2251034
  61.5231800  66.5259504  53.4373617  62.5542498  66.1880684  53.5414362
  61.3345861  66.8723631  54.4534922  60.7069349  65.2248049  53.2209206
  60.6936932  64.2854548  54.0547276  59.9478436  65.1277542  52.1565580
  59.1324377  64.5366383  52.0803928  59.9508572  65.8824825  51.4853811
  60.0773811  69.4091177  53.5372591  60.7368946  70.4842949  53.5436678
  59.1837120  69.0831089  54.4714880  58.6685419  68.2304382  54.3051815
  58.8868809  69.6501350  55.7998419  59.1452742  68.8726187  56.5187311
  59.5580578  70.4413652  56.1338806  57.4491024  70.0311613  55.9345961
  56.8324709  69.7093058  56.9750881  56.8845129  70.7525158  54.9251747
  57.4313116  70.8372259  54.0802288  55.5251026  71.2708378  54.9948740
  55.4454660  72.0263529  55.7765102  55.3006887  71.9160318  54.1454792
  54.4715738  70.2049494  55.0223207  54.7358799  69.1090107  54.5607996
  53.2393026  70.5566359  55.4059267  53.0928612  71.5261126  55.6483603
  52.0109129  69.7366714  55.4247379  52.1634054  68.9304256  56.1422443
  50.8120012  70.6110954  55.8879423  50.8584690  71.5274620  55.2995348
  49.4720364  69.7734642  55.8826876  48.6855412  70.3049946  56.4184141
  49.0748882  69.6547031  54.8745823  49.6584177  68.7319803  56.1447477
  50.9849215  71.0922241  57.3543024  51.8656921  71.6784000  57.6165009
  50.1869488  71.8011093  57.5752640  50.8865261  70.3043365  58.1010532
  51.6975069  69.0319681  54.0394974  51.7776918  69.6502495  52.9667854
  51.2436914  67.7602911  54.0934992  51.2859201  67.2090054  54.9387264
  50.6778526  67.0287561  52.9481554  50.2434540  66.1395931  53.4050894
  49.9207687  67.5949717  52.4056387  51.7090797  66.5681648  51.9194794
  51.2634420  66.0144281  50.9147930  53.0147648  66.9165993  52.1032619
  53.2415771  67.2898579  53.0139399  54.0920734  66.3675594  51.4039373
  53.9211321  66.0016441  50.3915262  55.0460911  67.5652599  51.0438538
  55.2318621  68.1505585  51.9444227  56.3211393  67.0255661  50.4627466
  56.8901634  66.3637400  51.1156654  56.2859678  66.5214682  49.4969559
  56.9189548  67.9339981  50.3888464  54.3632364  68.5207558  50.0779009
  53.4945345  68.8962221  50.6187153  55.0725222  69.3328667  49.9182272
  53.9382362  67.9894781  48.7518692  53.2462406  68.7425041  48.3747768
  54.7846317  68.0357170  48.0666113  53.2886457  67.1235514  48.8795710
  54.7361135  65.1736641  52.1707344  55.2486944  65.3909874  53.2843494
  54.7230673  63.9328146  51.6260338  54.2749596  63.5780048  50.2925014
  54.7883987  64.3030453  49.6609974  53.1850529  63.5677910  50.2824926
  54.7474337  62.1986485  50.0191832  55.7382584  62.1865129  49.5650673
  54.1136932  61.6477489  49.3242073  54.8324156  61.6222763  51.4707232
  55.5727720  60.8231449  51.5076590  53.8331747  61.3246202  51.7885637
  55.2034187  62.7778721  52.3315525  54.7239733  62.7487135  53.3100128
  56.7150640  62.7824783  52.5275040  57.4750996  63.4017086  51.7451620
  57.1975803  62.1385002  53.5721636  56.5585756  61.5501404  54.0875435
  58.5343742  62.0794630  54.0740395  58.8869476  63.1108093  54.0852404
  58.5884762  61.7484379  55.5617666  58.2416296  62.5491333  56.2149811
  57.9844284  60.8626938  55.7584524  59.9435568  61.5172768  56.1645555
  60.3812313  60.2684164  56.6152954  61.5362024  60.4433727  57.2169447
  62.0783138  59.6140385  57.6467419  61.7849112  61.8024969  57.3646832
  62.5698805  62.1402359  57.9030657  60.8071375  62.5060415  56.5801144
  60.7947874  63.5665274  56.3761187  59.3220568  61.0850573  53.1733370
  58.9239597  59.9287224  53.1507778  60.3897905  61.5105057  52.5159931
  60.7569456  62.4475574  52.6010370  61.1106205  60.4913378  51.7276192
  60.4471397  59.8937225  51.1025190  62.0639229  61.0710144  50.6619024
  62.7232885  61.7467165  51.2066698  62.9109621  59.9345016  49.9660683
  63.7043095  59.5407486  50.6014156  62.2264957  59.1378498  49.6745825
  63.3744717  60.2679491  49.0375900  61.4301014  61.9368505  49.5253706
  61.1527729  61.1772585  48.7944698  60.5626202  62.4720192  49.9115992
  62.2899532  63.0277109  48.9695883  62.7787828  62.6576328  48.0683804
  61.6498852  63.9026928  48.8563299  63.0525351  63.2010508  49.7288799
  61.9288063  59.6581173  52.6565695  62.8082275  60.1417685  53.3847237
  61.7638969  58.3326387  52.5927544  61.1280060  57.9769993  51.8932819
  62.5930309  57.3605156  53.3137655  62.8318119  57.8475189  54.2592335
  61.9640350  55.9981441  53.5645771  61.2368822  55.7304287  52.7979755
  62.6015997  55.1346159  53.3750248  61.2436676  55.9175920  54.9511528
  60.5483389  55.0782251  54.9425507  61.9658566  55.6566238  55.7247448
  60.3525352  57.0994329  55.4208994  60.9204340  57.6711512  56.1548805
  60.0961208  57.7213717  54.5632601  58.9909029  56.6066456  55.9430027
  58.9626551  55.7061577  56.3995314  57.9084873  57.3684978  55.9490442
  57.7275324  58.5018539  55.2325201  58.4618092  58.9540625  54.7067308
  56.9068050  59.0272045  55.4980564  56.9308138  56.9769859  56.6392756
  57.0912409  56.2463379  57.3178864  56.0376740  57.4371958  56.5362883
  63.9314365  57.1630144  52.5534296  65.0381613  57.2849846  53.1130505
  63.9386606  56.8489933  51.2128448  62.9942369  56.8351698  50.8551168
  65.0911283  56.6368341  50.3896856  65.7962084  57.3648024  50.7909632
  65.6796026  55.2802896  50.6782198  65.9711027  55.2814388  51.7285156
  64.9263191  54.4925976  50.6640768  66.8704271  54.8830605  49.8893929
  68.1305027  55.2329779  50.1731777  68.3503246  55.7970238  51.0675716
  68.9474535  54.7728252  49.1019583  69.9562740  54.8177624  49.1209507
  68.2743645  53.8455582  48.3388615  68.7110186  52.9372692  47.3438835
  69.7761393  52.7803612  47.2584391  67.7542782  52.2079277  46.6883230
  68.0808973  51.5337038  45.9104156  66.3662434  52.3514318  47.0070982
  65.5695105  51.8309212  46.4965248  65.9819746  53.2760525  47.9789972
  64.9977016  53.1501245  48.4053183  66.9017506  54.0625381  48.7112331
  64.8462439  56.9794750  48.9371252  63.6606073  56.9695187  48.5107374
  65.8586073  57.4933052  48.2523203  66.7789507  57.5943518  48.6558723
  65.7071733  57.6462173  46.7993069  65.0103807  56.9552708  46.3247776
  65.3602648  59.0742540  46.3953972  64.3440485  59.1750717  46.7765093
  66.0562038  59.7748804  46.8567896  65.4573965  59.2731094  44.9018812
  64.4132471  58.8668346  44.0636396  63.5577393  58.2858276  44.3749857
  64.5208549  59.0541697  42.6539612  63.7541151  58.6722898  41.9961739
  65.6741619  59.6182442  42.2050285  65.9161663  59.8021746  40.8711147
  65.3353691  59.3084097  40.2876139  66.6859198  60.0623608  43.0591822
  67.5346661  60.4628086  42.5247002  66.5765333  59.9446058  44.3982792
  67.3104239  60.3745604  45.0638199  67.0267487  57.1055126  46.2057686
  68.1181812  57.5806618  46.5297413  66.9396353  56.0841417  45.3639364
  65.9923553  55.7944965  45.1667738  68.1388378  55.5301714  44.7814322
  68.8023281  56.3307762  44.4544554  68.5736465  54.9831629  45.6179857
  67.9186869  54.7021580  43.5281467  67.1091938  55.1097441  42.6377249
  68.5233164  53.5246515  43.4580660  69.2174673  53.3635473  44.1738176
  68.6215019  52.7116537  42.2688913  67.7656603  52.7238083  41.5939903
  69.6690750  53.2958698  41.2908745  69.3803310  54.3272495  41.0884190
  70.5958319  53.4303093  41.8486786  69.9735355  52.4859715  40.0845766
  70.0407267  51.4374352  40.3746700  69.1065645  52.5862789  39.4315839
  71.3189840  52.8014135  39.3647885  72.1692324  53.6255360  39.7018194
  71.6993427  52.0458555  38.3395863  72.5993204  52.1965265  37.9066420
  71.0716486  51.3383055  37.9853654  68.7412691  51.1994457  42.5951672
  69.5188904  50.8865499  43.4800959  68.0539513  50.2793074  41.8960428
  67.2400045  50.6045437  41.3942337  68.1054974  48.8651562  42.1729279
  69.1339445  48.6397362  42.4550438  67.1363544  48.4169579  43.2722950
  66.1188221  48.7055874  43.0087996  67.2630072  47.3422766  43.4031391
  67.3679686  49.0194225  44.6534395  67.2515392  50.1028872  44.6279335
  66.5631628  48.6642170  45.2970314  68.6391926  48.5326481  45.3354836
  68.6884594  48.8847494  46.5567589  69.5338774  47.8448105  44.8008156
  67.7186060  48.0686045  40.8906841  66.6834450  48.3720589  40.2968073
  68.4702492  47.0911932  40.4161882  69.2585087  46.9176531  41.0233402
  68.1365490  46.2101841  39.3383861  69.0856647  45.7508659  39.0621448
  67.2305536  45.0847960  39.8033929  67.4711370  44.7206306  40.8021975
  66.2482214  45.5481529  39.8951745  67.2597170  43.9227200  38.7526608
  67.1891308  44.3542528  37.7542138  68.2909489  43.5731936  38.8025832
  66.2320566  42.7764988  38.9310384  66.0464191  42.6061773  39.9915242
  65.3207159  43.0609846  38.4050822  66.8174839  41.4060307  38.3950901
  67.2242641  41.6085100  37.4043179  67.5764036  40.9789848  39.0506554
  65.7987833  40.3907394  38.2200623  66.2143421  39.6022940  37.7449107
  65.4175949  40.1137924  39.1134238  65.0872803  40.6885481  37.5680137
  67.8519487  47.0093489  38.0538774  68.7382078  47.6704788  37.5666237
  66.6695786  46.8621778  37.4009585  66.1122036  46.0630846  37.6671934
  66.2721062  47.4989319  36.1400676  67.1635008  47.6569462  35.5329847
  65.3251982  46.5883112  35.3284836  64.3379354  46.6006899  35.7902813
  65.1603365  46.9643116  34.3187594  65.8027267  45.1680946  34.9975896
  67.0643377  44.9783421  34.8829198  64.9226189  44.3054867  34.6441984
  65.7089949  48.9063311  36.4331818  65.1216412  49.4877625  35.5149555
  65.6526470  49.4017696  37.6805449  66.0903788  48.8062525  38.3689165
  64.7893190  50.4968929  38.1831980  64.2358732  51.0145569  37.3997331
  63.7636185  49.8912811  39.1395974  64.2201948  49.6990585  40.1105213
  63.0379248  50.6776333  39.3472314  62.9857063  48.6580515  38.7386417
  62.1750784  48.7032318  37.6199889  62.2107172  49.5981741  37.0164895
  61.4997435  47.5839186  37.1903014  60.9129000  47.6430559  36.2855816
  61.5344620  46.4325905  37.9210448  60.7200432  45.3982019  37.6187325
  60.1748848  45.5754995  36.8486857  62.4005318  46.3820601  39.0615582
  62.4349165  45.4449701  39.5973563  63.1750679  47.4848795  39.4270754
  63.8458490  47.3857021  40.2676821  65.6002903  51.6203976  38.9923811
  66.4648485  51.3236952  39.7925854  65.1367998  52.8560495  38.7246132
  64.3213701  52.9603767  38.1378460  65.1253700  53.9009666  39.7771931
  66.1360168  54.0095139  40.1707840  64.8038912  55.2813673  39.1445065
  63.8492584  55.2171516  38.6223412  64.7841549  56.1375666  39.8187709
  65.9492064  55.5843449  38.1790662  67.0600843  55.8943605  38.5159993
  65.6583023  55.4385328  36.8632317  66.4501858  55.6560946  36.2752771
  64.7054243  55.5513620  36.5479589  64.1181231  53.6430883  40.8675671
  63.0871010  52.9953766  40.6459141  64.3213940  54.2318439  42.0057249
  65.1737452  54.6718264  42.3219681  63.5351181  53.8188553  43.1628036
  62.5234461  53.5519934  42.8571844  64.0190840  52.6049137  43.9173174
  64.9394560  52.8119516  44.4633484  62.9230213  52.2336483  44.9365282
  61.8978786  52.1481609  44.5761395  63.3473349  51.3733625  45.4541826
  62.8336811  52.9493570  45.7537651  64.3637848  51.3411713  43.0245829
  63.4161091  51.1819077  42.5101519  65.1610184  51.4750767  42.2934294
  64.5691395  50.4867697  43.6695147  63.3155012  54.9480581  44.1871119
  64.2795324  55.5934858  44.5279408  62.0423174  55.1533890  44.5967197
  61.2689066  54.6044779  44.2494059  61.5156698  56.0977507  45.5870390
  62.3706436  56.6126919  46.0251713  60.6054974  57.0290899  44.8602772
  61.1375237  57.3516750  43.9652967  59.6836376  56.4979792  44.6232271
  60.3152561  58.2876587  45.7327414  59.7887707  58.0553913  46.6584635
  61.4513159  59.2078590  46.1972189  61.0245085  59.9923182  46.8221664
  62.2213268  58.6378479  46.7171001  61.9074631  59.5962620  45.2866316
  59.3434668  59.1853476  44.9358702  58.9201307  60.0192595  45.4957628
  59.8744678  59.5316124  44.0491676  58.4880877  58.5546875  44.6936035
  60.7450056  55.2343893  46.6801643  60.0512457  54.2835569  46.3246298
  60.9264421  55.6209517  47.9575729  61.5684223  56.3789511  48.1403160
  60.2542877  55.0061560  49.1162920  59.4148970  54.4045019  48.7676620
  61.3663673  54.1651344  49.8353291  62.1436977  54.7713375  50.3004885
  60.6524134  53.3124304  50.9183836  60.3638124  53.9058018  51.7859793
  59.7311258  52.8821945  50.5256605  61.2069750  52.4589777  51.3084936
  62.1571207  53.2680798  48.8651228  62.8566217  52.5827837  49.3438387
  61.4295530  52.7547264  48.2364464  62.7580738  53.9047337  48.2157993
  59.7867107  56.2028933  49.9629974  60.5247784  57.1606445  50.3065825
  58.6280394  56.0714817  50.5318785  58.2575512  55.1405001  50.4049444
  57.9450083  57.1348524  51.2188578  58.6123610  57.6113176  51.9369936
  57.3941374  58.0966377  50.1400042  56.7951632  58.8456440  50.6579971
  58.1044102  58.6737537  49.5479298  56.5710258  57.4297619  49.0463018
  55.8168554  56.7567968  49.4542789  55.9794950  58.1898832  48.5359907
  57.4484253  56.6181421  47.6343918  55.8775425  56.1110830  46.7465258
  55.2097178  55.5998564  47.4398899  55.3110886  57.0031691  46.4792776
  56.1285162  55.5817938  45.8273077  56.8385601  56.5134907  52.0945215
  56.7868948  55.3125811  52.3153496  56.0341215  57.4224234  52.6509905
  56.2356234  58.3859062  52.4247217  54.8576927  57.0375538  53.4931278
  55.1658821  56.4676142  54.3696499  54.1269588  58.2919168  53.9335060
  53.8954401  58.8867712  53.0499601  53.1105423  58.0482006  54.2426872
  54.7166204  59.1266251  55.0151587  55.1736164  60.2491951  54.7648907
  54.6522713  58.6696196  56.2016582  53.8245773  56.1920929  52.7640390
  53.2807827  56.5273190  51.6961432  53.3402157  55.1630783  53.4782791
  53.6076450  55.1348162  54.4518185  52.1001530  54.4297695  53.0732918
  52.0252466  54.4426584  51.9859457  52.3272705  52.9753256  53.5855150
  53.1928444  52.4826908  53.1425810  52.4588728  53.1112051  54.6589756
  51.2197876  51.9629097  53.4109735  50.3599453  52.5202513  53.7826538
  51.0604429  51.5543938  51.9187880  50.0613451  51.1610508  51.7312193
  51.2479067  52.4185085  51.2813997  51.7348385  50.7536316  51.6153717
  51.4100933  50.7562208  54.3232918  50.6430006  50.0402260  54.0283108
  52.3983002  50.3041172  54.2387342  51.1693144  51.0943651  55.3311539
  50.9091473  55.1636314  53.6781073  50.3647375  54.8793793  54.7378826
  50.4203320  56.1324739  52.8531170  50.8521652  56.3455296  51.9652987
  49.1158295  56.7698240  53.0060673  48.9925909  57.0569468  54.0503216
  49.1587019  58.0620956  52.0763016  49.0291309  57.7611208  51.0367203
  48.3836985  58.7559462  52.4019480  50.5020237  58.7342834  52.2059679
  51.4122343  58.1776476  51.9828796  50.4901505  59.8566246  51.0962152
  49.5347214  60.3809500  51.1146116  51.2709570  60.6007051  51.2536430
  50.4359293  59.4072771  50.1046228  50.7164335  59.4045258  53.5336542
  50.6788301  58.6697531  54.3378925  51.7273474  59.8110342  53.5638285
  49.9790430  60.1800871  53.7406683  47.8694391  55.8667755  52.7165079
  48.0096817  54.6683741  52.4465179  46.6073990  56.4126682  52.8416491
  46.5853262  57.3726845  53.1546640  45.3664112  55.7533646  52.7113295
  45.4261398  54.6901608  52.9439926  44.6761799  56.1988258  53.4277487
  44.8403978  56.0277843  51.2485981  45.5886078  56.5070200  50.3805351
  43.5480928  55.7422209  51.0116053  42.5910378  55.4104185  52.0617771
  42.2401810  56.3597870  52.4663687  42.9947281  54.7508335  52.8299475
  41.4325857  54.7000265  51.4380169  40.5117559  54.7781706  52.0160055
  41.6795015  53.6418915  51.3515520  41.3708067  55.4870558  50.0662184
  40.6663036  56.3186979  50.0539112  41.0844851  54.7659349  49.3006468
  42.8492308  55.8020687  49.7667074  43.2790089  55.1762629  48.9845467
  42.9075480  57.2026825  49.0729141  42.8943777  58.1654453  49.8592758
  42.9083586  57.3595381  47.7508545  42.9276609  56.4948463  47.2292852
  42.6957941  58.6184216  47.0890093  43.2890368  59.3751955  47.6022911
  43.2737112  58.6152029  45.6827021  43.4831190  59.6318150  45.3499269
  44.2239761  58.0900812  45.7794094  42.3681641  57.8708315  44.7913074
  42.3565054  56.9273090  44.9680471  41.2762022  59.2205477  47.1503687
  40.2617216  58.4736824  47.3837948  41.1660862  60.5386782  46.8283606
  41.9683218  61.1502981  46.7790127  39.7772217  61.1236954  46.6810083
  39.2851067  60.8084679  47.6010990  39.8707962  62.6680994  46.6279936
  40.4855585  63.0085802  45.7947826  38.9186668  63.1900740  46.5326405
  40.4783773  63.2132387  47.9117632  41.5430021  62.9813814  47.9420757
  40.2607584  64.7506189  47.8682518  40.6779480  65.1311398  46.9359112
  39.1756558  64.8538494  47.8693342  40.7530785  65.2181339  48.7209845
  39.9042392  62.8624105  49.2947578  40.1467037  61.8630505  49.6561289
  40.2264500  63.5923100  50.0374126  38.8311362  62.7673864  49.1288662
  38.9899468  60.5380678  45.4964924  37.7982736  60.4733133  45.5965567
  39.6491909  59.9576330  44.4967842  40.6419706  59.7893143  44.5752430
  38.8614535  59.1451120  43.5563421  38.0669832  59.7861242  43.1742144
  39.7094989  58.7875938  42.3307800  40.0489998  59.6841383  41.8120909
  40.4700947  58.0826426  42.6663780  38.9694858  57.8442764  41.3493681
  39.7484899  57.5918818  40.6299591  38.5905790  56.9718313  41.8816996
  37.8057671  58.5413361  40.5622721  37.7101898  59.7701168  40.4003906
  37.0271778  57.8034496  39.8645639  38.1810045  57.9272699  44.2781115
  37.0075130  57.6882792  44.1565084  38.9892220  57.1217394  45.0127983
  39.9874330  57.2752333  45.0021076  38.5212898  55.9807777  45.8155394
  38.1346464  55.1599216  45.2115536  39.7458482  55.3795815  46.5429401
  40.1344442  56.1475372  47.2117710  39.4407868  54.5157337  47.1335363
  40.8197451  54.8930359  45.5716324  41.9196653  55.3739309  45.6045532
  40.5737305  54.0078783  44.7118092  37.3743391  56.3063955  46.7032814
  36.3398027  55.6100178  46.7900133  37.4746799  57.3367310  47.4706507
  38.3236408  57.8645897  47.3266745  36.5591693  57.8915215  48.5123014
  36.1553550  57.0447493  49.0672970  37.3879743  58.8674212  49.3335247
  37.9429984  59.5316839  48.6711073  36.6924572  59.4358253  49.9510002
  38.5226917  58.0884504  50.1792622  39.0108466  57.3752642  49.5150566
  39.5719719  59.0770054  50.6483793  39.9939990  59.4938469  49.7339201
  39.1305757  59.8909569  51.2234926  40.3630781  58.6173964  51.2408447
  38.0124187  57.2025442  51.3326836  37.5220871  57.7610016  52.1300602
  37.2407413  56.5375137  50.9449291  38.8340878  56.6109514  51.7363882
  35.3636217  58.6170197  47.9070425  34.2611599  58.5307455  48.3904314
  35.5518150  59.0994501  46.6426229  36.4091921  58.8068247  46.1961079
  34.4148493  59.4287539  45.7437277  33.7269616  59.9623585  46.3996077
  34.7030115  60.3448629  44.5450687  35.4835272  61.0685778  44.7798729
  35.1010823  59.7495031  43.7233686  33.5388350  61.1387730  43.9465809
  32.5971794  61.8563557  44.6997023  32.7065587  62.0217800  45.7613373
  31.5390754  62.4934006  44.0716219  30.7445621  62.9456806  44.6465969
  31.5026903  62.4834538  42.7144909  30.7120442  63.0121708  42.2028875
  32.4372315  61.7360163  41.9214249  32.2326088  61.6505766  40.8644342
  33.4302235  61.0322618  42.5664520  34.0495610  60.4550791  41.8958712
  33.5589743  58.2255030  45.2532434  32.3273969  58.1633425  45.4586744
  34.2179251  57.1193933  44.7542477  35.2191639  57.1387577  44.6229267
  33.5008335  55.8429193  44.3584347  32.6480389  56.1114931  43.7349606
  34.3861413  54.9587774  43.4468031  35.3109384  54.7671890  43.9909935
  33.8283181  54.0699291  43.1520510  34.8041296  55.6277561  42.1715879
  34.1741943  55.4308319  41.1266327  35.8879662  56.3778973  42.0946360
  36.1384368  56.8604994  41.2434816  36.2998867  56.6520786  42.9751158
  32.9149532  55.1027727  45.6010294  31.7816949  54.6528912  45.4632139
  33.4871697  55.1235676  46.8045330  34.4408989  55.4479933  46.8769979
  32.9126644  54.5488548  48.0590582  32.8273916  53.4660244  47.9679441
  33.8746738  54.7228813  49.2462444  34.8639107  54.3413448  48.9933634
  34.0556502  55.7975817  49.2653465  33.5042095  54.0445995  50.5093431
  33.4766269  52.6301098  50.6038332  33.7888956  52.0238781  49.7663546
  33.0830646  51.9906712  51.7893171  33.1581068  50.9150267  51.8506241
  32.7744198  52.7795982  52.9050112  32.5206518  52.2987509  53.8381720
  32.6996827  54.1504574  52.7722788  32.3918676  54.7407627  53.6226845
  33.0680633  54.8073101  51.5847731  32.8862906  55.8686399  51.5014982
  31.5747833  55.0860786  48.4753752  30.6422329  54.3983269  48.9401722
  31.5418744  56.3952398  48.1808662  32.2711635  56.8444729  47.6456738
  30.4067826  57.2700214  48.3737803  29.7911882  56.9725513  49.2226934
  30.8067775  58.7253952  48.7430239  31.2819147  59.2249870  47.8987741
  29.8753428  59.2302418  48.9992714  31.7848849  58.6959457  50.3222847
  32.7621961  58.0278683  49.7030640  29.4491363  57.2897339  47.1893072
  28.6142778  58.1150293  47.0934677  29.5840001  56.4047718  46.2733793
  30.3192902  55.7294703  46.4264011  28.7635064  56.2446833  45.0804472
  29.1860604  55.4562950  44.4575596  27.3398376  55.8228064  45.4433632
  26.8603563  56.6163445  46.0165024  26.7554426  55.6252384  44.5447159
  27.3279428  54.6825075  46.3166666  27.0410681  55.0669861  47.1482182
  28.7594461  57.5482082  44.2018414  27.8220344  57.7906513  43.4702730
  29.9283099  58.2106924  44.1517687  30.6965113  58.0095625  44.7758818
  30.1395750  59.2534637  43.1798601  31.1192846  59.6632385  43.4255362
  30.1592088  58.8164425  41.7593813  29.1812015  58.3896637  41.5369844
  30.3340983  59.7004652  41.1461735  31.3544035  57.8699064  41.5479946
  32.3248982  58.3488703  41.6777420  31.2735701  57.0918846  42.3071098
  31.1993027  57.0584440  40.2946997  31.6492438  56.0658693  40.2735567
  30.1549292  56.7558002  40.2185631  31.6784120  57.8708839  39.1432047
  30.9820437  58.1495810  38.4668207  32.9411674  58.1169939  38.9213657
  33.8832521  57.6437950  39.5445824  33.7476468  57.0726061  40.3664446
  34.7279215  57.4396133  39.0298581  33.2166958  58.8009596  37.8530073
  32.4975014  59.0375233  37.1845031  34.1807318  58.9887047  37.6174545
  29.1723847  60.3516912  43.5279751  28.7542605  61.1196232  42.6371479
  28.9242506  60.5762243  44.8177338  29.3567348  59.9464750  45.4783964
  28.2828164  61.7611408  45.3191948  28.4931850  62.5642109  44.6128511
  26.7545581  61.6251230  45.3571177  26.3915133  62.4142313  46.0156059
  26.3978910  61.6855717  44.3288994  26.3103390  60.2675724  45.9425068
  26.4957190  59.4711781  45.2217531  26.9134521  60.0656748  46.8277168
  24.7834086  60.3314114  46.2700462  24.5985913  61.2557697  46.8173170
  24.2062187  60.4213381  45.3497934  24.2531061  59.1184139  46.9838095
  24.3464088  59.1705036  47.9881430  24.0371680  57.9363680  46.4956331
  23.8901448  57.8272581  45.1743174  23.8474035  58.6996984  44.6672535
  23.5499620  56.9701004  44.7624350  24.0410233  56.7876816  47.1682405
  23.9692831  56.8535042  48.1735373  23.7455893  55.9727859  46.6498089
  28.9046669  62.0473719  46.7311335  29.4786215  61.1885786  47.4023199
  28.6111355  63.2765579  47.3095322  28.1080055  63.9281940  46.7244434
  29.1665745  63.8488054  48.5589123  29.0954876  63.0473661  49.2942619
  30.5359674  64.5386648  48.3561563  30.3899884  65.2074766  47.5079298
  30.7815957  65.1165104  49.2471409  31.8325210  63.7180853  48.1303406
  32.0219970  62.4579144  48.7578821  31.2176561  61.9619894  49.2808437
  33.3014488  61.8525887  48.7301731  33.4685564  60.8550072  49.1087294
  34.4155455  62.4600840  48.0746317  35.3693509  61.9641399  47.9712248
  34.2550707  63.6811447  47.4332905  35.0663042  64.1547203  46.9003439
  33.0038142  64.3113756  47.5707150  32.8199482  65.2240133  47.0232725
  28.1943798  65.0229740  48.9210033  27.8442144  65.8429670  48.0551004
  27.9222178  65.1627111  50.2536154  28.3455443  64.4729567  50.8578825
  27.2977614  66.3719988  50.8575392  26.3252544  66.6133785  50.4284954
  27.1329832  66.1305618  52.3629761  26.7184520  67.0987988  52.6436472
  26.1036515  65.0686979  52.7047062  26.4213204  64.0978193  52.3244619
  25.8240008  65.1205254  53.7569475  25.1935768  65.2679539  52.1388865
  28.3861661  65.8041620  53.0451965  28.7331772  64.9638462  52.7368927
  28.1953788  67.5757647  50.6566048  29.4500661  67.4915743  50.6951618
  27.5953555  68.7276840  50.4006481  26.5959287  68.8667679  50.3570032
  28.3279300  69.8996019  50.0541830  29.1399336  69.7326040  49.3464613
  27.2979522  70.9252071  49.5650196  26.8759394  70.5570126  48.6299086
  26.5875888  71.2100077  50.3411484  27.8378344  72.2901964  49.1183996
  26.9527149  72.9205608  49.0328884  28.2671332  72.7139664  50.0262642
  28.8365984  72.2137165  47.6329279  27.4678326  72.1553087  46.3581848
  26.9729280  73.1155300  46.2127686  27.8416586  72.0274115  45.3423119
  26.7072177  71.4100599  46.5909243  29.2741752  70.3653526  51.1745501
  30.3473520  70.9643507  50.9079933  29.0052819  70.0823069  52.4353695
  28.1137562  69.6767664  52.6819801  29.9530387  70.2571106  53.5118484
  30.2209473  71.3071680  53.6289454  29.2301583  69.8286438  54.8306179
  28.4119225  70.5299902  54.9940205  28.8599348  68.8052797  54.7693300
  30.1719308  69.8539352  56.0413742  31.0753083  69.3070221  55.7713795
  30.5592966  70.8196688  56.3660336  29.5343232  69.0794325  57.2179461
  28.5873175  69.5844698  57.4082565  29.2519522  68.0995226  56.8330431
  30.4590416  68.9333630  58.4504604  31.3312936  68.3015394  58.2829046
  30.8608270  69.9283123  58.6421728  29.6613240  68.4224892  59.5824718
  29.1301847  67.6313877  59.2475939  30.3541684  68.2727766  60.3019571
  28.9542866  69.0796709  59.8796463  31.2401986  69.5136404  53.3231878
  32.2598195  70.1663685  53.3613348  31.1582541  68.2712984  52.8718567
  30.2977824  67.7448559  52.9223204  32.3905730  67.5463343  52.3737049
  33.1117916  67.6025915  53.1890488  32.0133734  66.0848570  52.1102953
  31.0854650  65.9830332  51.5475225  33.0467582  65.3180647  51.2757969
  32.8984046  65.6077766  50.2355242  34.0953088  65.4797697  51.5257883
  32.8806710  64.2444801  51.3648033  31.9194770  65.2965498  53.3185101
  31.1809397  64.7176933  53.1158018  33.0515742  68.2262802  51.2108898
  34.2585325  68.3942127  51.1901569  32.3305297  68.6835575  50.2215958
  31.3300061  68.6381531  50.3519440  32.9270029  69.2634535  49.0122128
  33.7139606  68.5986233  48.6561251  31.8861246  69.5643520  47.9356909
  31.1603022  70.2886820  48.3053398  32.4750566  70.2530527  46.6835451
  32.5732613  71.3268280  46.8431187  33.4095001  69.8461723  46.2970638
  31.7083263  70.0776577  45.9289169  31.1424637  68.2673168  47.5785160
  30.5159950  67.9433489  48.4095907  30.5034661  68.4850931  46.7227411
  31.8375564  67.4514818  47.3801136  33.7750959  70.5484152  49.3882132
  34.9322081  70.7116127  49.0115690  33.1212211  71.5029144  50.0601530
  32.1691823  71.3198471  50.3433657  33.7202835  72.8311539  50.4978800
  34.1537237  73.2675791  49.5980120  32.5874066  73.6931229  51.1096382
  32.0686769  73.1467438  51.8973494  33.0977225  74.5998812  51.4343882
  31.5429425  74.0326643  50.0022936  31.1510015  73.0984926  49.6000481
  30.3880477  74.8919678  50.6427240  30.7481503  75.8396816  51.0430670
  29.7711301  75.2646017  49.8250103  29.7992539  74.3119955  51.3533926
  32.1471310  74.8703671  48.8537312  33.0029702  74.3686247  48.4021807
  31.4589930  74.7504473  48.0169535  32.5051451  75.8154583  49.2620564
  34.8384404  72.5399303  51.4921808  35.9544253  73.1388474  51.4078522
  34.7248030  71.5643883  52.3675394  33.8349986  71.0874796  52.3976326
  35.7711887  71.2680054  53.3970833  36.0742092  72.2056961  53.8629246
  35.1681113  70.4547453  54.5700836  34.3988872  71.0865402  55.0141859
  34.7387242  69.4925261  54.2910337  36.1743546  70.1486158  55.7018375
  36.6688561  69.2225838  55.4085255  36.8717098  70.9829283  55.7775116
  35.3167725  69.8641348  57.2518492  33.9249301  68.6632013  56.8021965
  34.2927003  67.8053141  56.2392807  33.4439182  68.3344603  57.7234268
  33.1664681  69.2028236  56.2350607  37.0501351  70.6186295  52.8296804
  38.1011081  70.9338999  53.3428478  36.9562840  69.8491430  51.7713642
  36.0284400  69.7236729  51.3925982  38.1202579  69.3108845  51.0324097
  38.8792086  69.1212034  51.7914295  37.7150583  68.0776691  50.2383327
  36.8720579  68.4265280  49.6418858  38.5708046  67.7417183  49.6527290
  37.2494793  66.9104719  51.1655807  36.4635515  67.2000980  51.8631029
  36.7890787  65.7579470  50.2484131  37.5756049  65.2823496  49.6625090
  36.3863468  64.9493170  50.8583546  36.0559916  66.0773420  49.5076847
  38.3951426  66.4720631  52.0813656  38.8544869  67.2951794  52.6287079
  38.0685353  65.7184076  52.7979040  39.1882801  65.9514952  51.5446615
  38.8119864  70.3981161  50.2122211  40.0628233  70.4064608  50.2343464
  38.0791235  71.3285971  49.5713615  37.0833659  71.1615610  49.5455170
  38.4972954  72.5238609  48.8554192  39.0533209  72.1851969  47.9812098
  37.2714138  73.3202410  48.4074116  36.6579366  72.7114725  47.7432299
  36.5790033  73.6283922  49.1908121  37.6671076  74.2112970  47.9200268
  39.4846129  73.3206320  49.6784496  40.5265522  73.7309647  49.1241026
  39.2367721  73.4680414  50.9906626  38.2609534  73.3085155  51.1966515
  40.0964212  74.1356707  51.9311953  40.1746130  75.1747322  51.6112852
  39.4120288  74.0711403  53.3211327  38.4044814  74.4858980  53.2907391
  39.3914557  73.0178308  53.6007977  40.1591635  74.8877668  54.3869305
  40.4722834  74.2627859  55.4306936  40.4019547  76.1376476  54.2014122
  41.5405369  73.5636139  51.8898058  42.5454187  74.2876291  51.7044735
  41.6378069  72.2156572  52.1651602  40.7999706  71.6746950  52.3248386
  42.9208183  71.4956760  52.2157907  43.6485529  72.0412874  52.8164721
  42.7693129  70.1415539  52.7880669  41.8435907  69.7540617  52.3626375
  43.6716413  69.5846033  52.5356674  42.5166178  70.2370739  54.3325043
  43.2682514  70.9290504  54.7124004  41.5279341  70.5488205  54.6692753
  42.6773596  68.8548279  54.8793030  43.7989664  68.3608580  54.8313189
  41.7927456  68.1573725  55.3978109  42.1265650  67.3253441  55.8629942
  40.8968925  68.6192465  55.4627371  43.4720182  71.4459562  50.8010817
  44.6682644  71.6783619  50.5660772  42.7427959  71.0855865  49.7776175
  41.8111277  70.7280874  49.9334621  43.2606506  70.9227514  48.4209967
  44.0065479  70.1307249  48.3544493  42.0982218  70.5624962  47.4411869
  41.2928295  71.2963724  47.4705839  42.3803520  70.5450296  46.3884783
  41.5015841  69.2005825  47.7591515  42.2889519  68.5797405  47.3317146
  41.4624405  69.0184879  48.8331270  39.8650098  68.7864828  47.0403910
  40.4664040  68.1835938  45.4299927  41.0052252  67.2768211  45.7048321
  39.5693636  67.9969835  44.8395729  41.0255671  68.9697361  44.9226189
  43.8668776  72.2155619  47.8876781  44.9667835  72.0704460  47.3488998
  43.2483387  73.3446789  48.2273626  42.3182774  73.3001614  48.6186552
  43.8483286  74.6206999  47.9298925  44.1583872  74.5979118  46.8851709
  42.9256821  75.8422279  48.1367350  42.4992132  75.8010197  49.1389990
  43.6174154  77.1671724  47.9674864  44.1854620  77.2895861  47.0452929
  42.9871273  78.0502701  48.0722761  44.3357372  77.2600603  48.7820292
  41.6594791  75.7375622  47.1587515  41.9553471  76.1120176  46.1787796
  41.2701368  74.7303867  47.0100689  40.5438089  76.6674662  47.5960922
  40.7498169  77.7235603  47.4219465  39.6275759  76.4497375  47.0472527
  40.3439188  76.4779615  48.6507177  45.1710796  74.7223902  48.7568092
  46.2104511  74.9535704  48.2046223  45.2405500  74.4376898  50.0944614
  44.4098234  74.1162682  50.5705786  46.3803148  74.8187542  50.9060526
  46.4850760  75.8969784  50.7853556  45.9378862  74.6328878  52.3484850
  45.6162310  73.6038733  52.5090027  46.7099190  74.9200249  53.0623627
  44.7792006  75.4833269  52.5434065  43.9798069  75.0169992  52.2882509
  47.6744795  74.0674734  50.5315065  48.6966228  74.6974373  50.5911827
  47.5691128  72.9228163  49.8371220  46.6640139  72.5134134  49.6546745
  48.6790276  72.1903610  49.1432858  49.5970631  72.3212576  49.7161627
  48.4718513  70.6711483  49.1520214  47.6681566  70.4696321  48.4438133
  49.4479561  70.2833462  48.8605881  48.1743765  70.1546383  50.5462217
  47.2695017  70.6083822  50.9504747  47.9265404  69.0944290  50.4948997
  49.2505455  70.2187490  51.6387796  49.0024137  69.5643282  52.4744034
  50.2129364  69.9671888  51.1931086  49.4532108  71.5599298  52.3289299
  50.3473043  72.0150805  52.2125721  48.7354231  72.0533180  53.2868671
  47.5628090  71.5685844  53.6035538  47.1721935  70.7565022  53.1474304
  47.0721674  71.9107580  54.4173622  49.0887928  73.1059742  53.9725828
  49.9248219  73.6293507  53.7552547  48.5556889  73.3482933  54.7954893
  49.0919304  72.6380634  47.6825142  50.2748537  72.6729584  47.4428988
  48.1278229  72.9081964  46.8718004  47.2102737  73.0080032  47.2819757
  48.3802843  73.6140013  45.6215763  49.0716648  72.9974604  45.0471401
  47.1567774  73.7205362  44.6257925  46.4253664  74.2570877  45.2301550
  47.5067949  74.6437836  43.3801842  48.3054352  74.1541100  42.8229570
  46.6906166  74.7507620  42.6656866  47.9039240  75.5785322  43.7759590
  46.6477108  72.2912979  44.2504835  46.3576651  71.8049479  45.1818466
  45.7037926  72.3752308  43.7119055  47.6362896  71.4624548  43.4406805
  48.6369038  71.3958120  43.8677835  47.1305656  70.5277777  43.1983471
  47.7832031  72.0491314  42.5338554  49.0804863  74.9715471  45.8871365
  50.0944233  75.2181625  45.1772690  48.5760784  75.8059931  46.8161535
  47.7183199  75.4886484  47.2446966  49.2695284  77.0124817  47.3360538
  49.2751646  77.7299690  46.5155172  48.5797358  77.7757072  48.5101557
  47.4945068  77.8443003  48.4348631  48.8214827  77.1630669  49.3786764
  49.2928457  79.0990162  48.9714718  50.3266525  78.9638948  49.2894077
  49.3743610  79.6737146  48.0488777  48.6899424  79.7662640  50.1481247
  49.0324831  80.9556389  50.4069042  47.8460312  79.1886997  50.8850908
  50.7499599  76.7582750  47.6432085  51.6038942  77.3859644  46.9937897
  51.0611534  75.8270979  48.5150146  50.2807331  75.4894972  49.0600634
  52.4199772  75.4783487  48.9931393  52.9232883  76.3185549  49.4715071
  52.2867823  74.3775892  50.0048065  51.5181637  74.6323013  50.7344961
  51.8847132  73.5042143  49.4913244  53.6246920  73.9714766  50.6394005
  54.3156433  74.9088764  51.4432430  53.8390303  75.8552170  51.6522503
  55.5472612  74.5569849  52.0482206  56.0690928  75.2295160  52.7129030
  56.0989237  73.2769442  51.9424486  57.1992493  72.8384066  52.5994968
  57.5399256  72.0499372  52.1707153  55.3784609  72.3217821  51.1726093
  55.7643700  71.3267946  51.0068607  54.2220402  72.6956558  50.4160881
  53.6464977  71.9651842  49.8669386  53.3485985  75.0961065  47.7682447
  54.3700457  75.7350636  47.4897575  52.9471445  74.1364527  46.8908834
  52.0467854  73.7468052  47.1309423  53.5295868  73.8319540  45.6403351
  54.5018673  73.3868837  45.8517265  52.6329327  72.7311707  44.8801088
  51.6412449  73.1825399  44.8497105  53.0976152  72.4859142  43.4068441
  52.5565624  71.6808224  42.9096651  53.0056858  73.3952808  42.8129530
  54.1156721  72.1194506  43.5386419  52.5681639  71.3433743  45.5137348
  52.4148846  71.3142443  46.5925074  51.6824198  70.8145571  45.1617193
  53.4697485  70.7499170  45.3618956  53.8002729  75.1129723  44.8366404
  54.9347687  75.4028368  44.5317602  52.7825546  75.8746481  44.4363451
  51.8576956  75.5009556  44.5947456  52.9085684  77.0553160  43.6239767
  53.2438469  76.7975378  42.6193666  51.5124559  77.6381731  43.4643507
  51.0392237  77.5671721  44.4436932  51.6389704  78.6839342  43.1842089
  50.6886768  76.9474125  42.4443913  49.4548035  77.4855185  41.9965792
  48.9294815  76.4736938  41.2455416  47.9567194  76.5291834  40.7796431
  49.7975254  75.4705381  41.1182833  49.7636223  74.6322775  40.5558968
  50.8246994  75.7042646  41.9484901  51.6281128  75.0290442  42.2034454
  53.9198208  78.0817032  44.1712999  54.7528410  78.6517429  43.3837605
  53.9245796  78.2895088  45.4966450  53.1208467  77.8269243  45.8968163
  54.8035336  79.2646265  46.1481905  54.7715473  80.1830387  45.5620193
  54.3160725  79.7450733  47.5503969  55.2183771  80.1029873  48.0462170
  53.1684542  80.8159542  47.3908186  52.8178501  81.0980225  48.3835983
  53.6840200  81.7344284  47.1102905  52.3280096  80.4439259  46.8048620
  53.7586737  78.5974646  48.2794380  52.8731966  78.4531355  47.9378176
  56.2207794  78.6445427  46.3104486  57.1949244  79.3923998  46.5349102
  56.5004873  77.3885441  46.0198212  55.7794189  76.6868353  45.9316826
  57.8873348  76.8412924  45.9574175  58.5344028  77.5136900  46.5207100
  57.8938389  75.4506254  46.6126919  57.1547985  75.4148817  47.4130917
  57.6897526  74.6589613  45.8917761  59.1925049  75.0828695  47.2840214
  59.2458391  74.0143728  47.4927664  60.0961542  75.2742004  46.7053032
  59.3502092  75.7664108  48.6531830  59.3433380  76.8560934  48.6279154
  58.5662079  75.4284430  49.3308401  60.6320810  75.3510141  49.3993807
  60.5305147  74.2910290  49.6322250  61.4969826  75.4717875  48.7471151
  60.9119892  76.2037039  50.6099606  61.7259026  75.8516788  51.0934067
  60.9940672  77.1762800  50.3502178  60.1220655  76.2218761  51.2390804
  58.4366226  76.7137241  44.4558287  59.3032217  75.9185171  44.1367292
  57.9113770  77.5451756  43.5742617  57.1292067  78.1071234  43.8784361
  58.2850838  77.9048347  42.1673918  57.6103020  78.7342882  41.9558001
  59.6697187  78.5419559  42.0161343  60.4946041  77.9470634  42.4082804
  59.7574043  78.7271214  40.9455633  59.6735764  79.9176598  42.6843834
  58.8388300  80.3735447  43.5260916  60.6837654  80.6865311  42.3762226
  60.8720589  81.4999199  42.9445982  61.4796019  80.3105736  41.8808413
  57.8610849  76.7861176  41.1383772  58.1927061  76.8494463  39.9429464
  57.1226454  75.6989861  41.5989923  56.8193865  75.7060194  42.5623655
  56.8203688  74.5392561  40.8081198  57.2858000  74.5250940  39.8225856
  57.1961689  73.2339144  41.6122627  56.8189001  73.1855822  42.6337481
  56.6962194  72.4059582  41.1096334  58.6733913  72.8132248  41.6436720
  59.3159628  72.4283981  42.8137732  58.7080097  72.5261450  43.7010384
  60.6988239  72.1595812  42.8359222  61.1919308  71.8171549  43.7336922
  61.3459682  71.9838238  41.6526842  62.3475456  71.5830755  41.7040825
  60.7239389  72.2072124  40.4628372  61.2331152  71.9673300  39.5410967
  59.3511534  72.6322508  40.4136515  58.8898754  72.7886391  39.4497180
  55.2460718  74.5534182  40.5092716  54.4646883  75.1093912  41.3423872
  54.7833157  73.8960505  39.4458890  55.4874182  73.4214258  38.8990092
  53.3385420  73.4301138  39.2675996  52.7687979  73.5238123  40.1921082
  52.6776981  74.2126179  38.1312847  51.6515875  73.8719368  37.9929447
  52.6111794  75.7037497  38.4823132  52.8002071  76.2551594  37.5612712
  51.6347790  75.9902287  38.8730383  53.2764816  76.0400915  39.2775202
  53.5912657  74.1707230  36.8140793  54.4515085  74.8129654  37.0027685
  53.9168406  73.1450224  36.6407681  52.9751110  74.6940708  35.5077338
  53.6527109  75.4137039  35.0482845  52.7507067  73.8710594  34.8292065
  51.9750071  75.0860882  35.6926847  53.2559824  71.9272089  39.0640283
  54.2485762  71.2260532  38.7169886  52.0953369  71.3597584  39.3816161
  51.3197231  71.9778872  39.5725226  51.7868328  69.9434185  39.3782926
  52.6617098  69.4355488  39.7842050  50.5401230  69.8084259  40.1946497
  50.6758308  70.4340887  41.0768223  49.6827269  70.2404928  39.6786141
  50.2482033  68.3758831  40.3642654  49.6041059  67.5892210  39.3848062
  49.4452572  66.3772440  39.9259472  48.9901590  65.5140209  39.4632006
  49.9914122  66.3667917  41.1647797  50.0701618  65.5387974  41.7377758
  50.4422045  67.6126051  41.4143229  50.8318472  67.9332542  42.3691893
  51.5186405  69.4171286  37.9706430  52.0933580  68.3367920  37.6541734
  50.6598139  70.0116110  37.0850015  50.1295471  70.7968283  37.4347854
  50.4757452  69.7360945  35.6415343  50.0212622  70.6512785  35.2620792
  51.8454170  69.8095942  34.8601460  52.6881933  69.4378710  35.4429412
  51.6921377  69.2460394  33.9398146  52.2093582  71.2356758  34.4281888
  51.5309095  71.5676785  33.6423254  52.0595455  71.8470192  35.3180885
  53.6137581  71.3091946  33.8727450  53.7826538  72.3570108  33.6244249
  54.3164396  71.0145521  34.6521878  53.9171553  70.4981709  32.6979995
  54.3595743  69.5991325  32.8248334  53.6489964  70.8107281  31.3946962
  53.3230972  71.9520235  30.9459329  53.4563780  72.7497244  31.5509248
  52.9951382  72.1119308  30.0041389  53.7664080  69.8474169  30.5810142
  54.1465330  68.9672852  30.8987784  53.3073616  69.8750687  29.6817827
  49.5883846  68.5458994  35.2567458  49.5106745  68.1964636  34.0641880
  48.9653254  67.9316854  36.2692261  49.1588020  68.2596064  37.2047114
  48.2254934  66.6531897  36.1535788  47.6196861  66.8052101  35.2602792
  49.1015482  65.4085207  36.0511851  49.8804188  65.6509972  35.3282261
  49.5481110  65.0228834  36.9676805  48.4367228  64.2044926  35.4281473
  47.3872375  64.2572308  34.7785497  49.0476227  63.1319571  35.6111431
  47.1914434  66.5508938  37.2630906  46.9728994  65.4526281  37.7908850
  46.4533806  67.6203489  37.4953842  46.8280268  68.4173393  37.0008731
  45.3603983  67.6504755  38.4644437  45.7051420  67.2703791  39.4260979
  44.9774837  69.1485119  38.6607218  44.5949459  69.4701624  37.6920605
  43.8641071  69.2581272  39.7133088  43.7938213  70.2295208  40.2027512
  42.8586102  69.0970135  39.3245649  43.9869022  68.4377098  40.4203749
  46.1854076  69.9918222  39.0407085  47.0067167  69.9506855  38.3252621
  45.8599138  71.0300922  38.9762783  46.8435144  69.7453356  40.4057932
  47.7170277  70.3968334  40.3806782  46.1927319  70.0650024  41.2196732
  47.1612883  68.7163353  40.5740070  44.2639399  66.6776085  38.1090641
  43.6972189  66.7670870  37.0268440  43.8712215  65.9140158  39.1831326
  44.4447088  65.9323406  40.0143242  42.7783966  64.8921824  39.2489338
  41.8286562  65.3507948  38.9736843  43.0174971  63.7269545  38.2937598
  42.2078753  63.0133915  38.4468532  42.9644489  64.1664362  37.2976971
  44.3938351  63.0820084  38.5143447  45.0793695  63.8307142  38.9113069
  44.2264223  62.2705221  39.2225599  45.0846338  62.5501585  37.2593117
  44.3915892  61.8820286  36.7480493  45.3578711  63.4008837  36.6350460
  46.3193846  61.8491173  37.5889349  47.0720577  62.4988222  38.0355501
  46.1858320  61.0658693  38.3351111  46.8983984  61.2516403  36.3475990
  47.7347231  60.7169390  36.5340257  46.2056589  60.7301760  35.8296323
  47.3125362  61.9271469  35.7212806  42.5432491  64.3983698  40.6752110
  43.4822178  64.3318701  41.3834381  41.3507700  63.9741087  41.0817528
  40.1720095  63.7614059  40.2433920  40.4081631  63.1032705  39.4072151
  39.8052621  64.6840286  39.7935390  39.1633010  63.0773211  41.1296415
  38.7288427  62.1544123  40.7454634  38.3307076  63.7693787  41.2559128
  39.7777367  62.9397726  42.5328922  39.7740531  61.9112015  42.8936195
  39.1457486  63.4781790  43.2391548  41.2115431  63.4448528  42.4367476
  41.3244247  64.2767286  43.1319809  42.2029972  62.3596334  42.9919672
  42.4419069  62.2419310  44.1865635  42.5634956  61.5038872  42.0741749
  41.9884300  61.5762997  41.2470388  43.5111141  60.3798294  42.1319485
  43.1830025  59.5325089  42.7340269  43.7582827  59.7183752  40.7784986
  44.5495939  60.2693939  40.2702570  44.1874075  58.7241459  40.9028530
  42.6196146  59.4661188  39.8139691  42.0154285  60.4023838  39.3103647
  42.2540092  58.2358503  39.7304988  44.8052406  60.6913090  42.7891636
  45.5530691  59.8576164  43.2528639  45.1330280  61.9952965  42.8066301
  44.6098995  62.7056646  42.3148870  46.4249039  62.5397587  43.4048843
  47.3549986  61.9770479  43.3249903  46.8631506  63.8034916  42.6104736
  46.1470652  64.5824909  42.8721666  47.8625393  64.0776539  42.9483604
  46.9426918  63.5306215  41.1481953  47.1601343  62.4773788  40.5412483
  46.8179512  64.6292400  40.4823637  46.9765949  64.7065163  39.4878960
  46.5450335  65.4324818  41.0304689  46.3989210  62.8845024  44.8353720
  47.4182558  63.2498646  45.3864527  45.2501392  62.8211451  45.5192232
  44.3904161  62.5186014  45.0839615  45.0799990  63.4022903  46.8859911
  46.0738611  63.7326765  47.1879673  44.0386248  64.4722271  46.8806171
  43.1896305  63.9778042  46.4085436  43.7476110  64.6727610  47.9117298
  44.3518925  65.7521439  46.1591339  44.9454069  66.8391514  46.7971849
  45.1794243  66.8048620  47.8509665  44.9187756  68.0763483  46.1194134
  45.1577234  69.0203667  46.5864754  44.4335556  68.1553841  44.7512770
  44.4792557  69.1021204  44.2335892  44.0115643  67.0475912  44.0423870
  43.6609650  67.1642637  43.0275631  44.0792370  65.8046770  44.7481680
  43.6188650  64.9275112  44.3180084  44.6855593  62.2758484  47.8243446
  43.6540318  61.6489029  47.5642204  45.4787111  61.9472170  48.8565063
  46.2204552  62.6106501  49.0290451  45.4052448  60.7353973  49.6488953
  44.6054745  60.1361847  49.2136717  46.6994476  59.9384594  49.3711281
  47.5855684  60.5669546  49.4599199  46.6691589  59.1889429  50.1619577
  46.6926384  59.0731525  48.0787659  45.8145761  58.4378719  48.1950426
  46.6813469  59.8034525  46.7212248  47.4201727  60.6013966  46.6469049
  46.8330574  59.0987873  45.9035873  45.6916046  60.2254343  46.5467310
  47.8573084  58.1193256  48.0869579  47.9577637  57.6159000  47.1254063
  48.8310480  58.5568523  48.3071899  47.6331282  57.2590113  48.7175989
  45.0576305  61.1096716  51.0971975  45.8542633  61.7682409  51.7698145
  43.8652849  60.7574463  51.5788460  43.3392572  60.0825882  51.0422277
  43.6918354  60.8560276  53.0166531  43.9347839  61.8810511  53.2966757
  42.2764206  60.5153799  53.4738159  41.8917704  59.6975040  52.8645420
  42.3666811  60.0670052  54.4632196  41.2302780  61.6063881  53.4179401
  41.3628721  62.1417809  52.4777937  40.2250147  61.1851597  53.4068537
  41.3530874  62.8148317  54.7494793  40.4866695  64.2896843  54.1922426
  39.5409060  64.0203524  53.7220526  40.3945589  64.9965572  55.0168324
  41.2054014  64.7494316  53.5138941  44.6893978  59.9834728  53.8355589
  44.9663353  58.8386822  53.5203457  45.1737499  60.5220222  54.9478722
  44.7939777  61.4307690  55.1716137  46.1990881  59.9250937  55.7967567
  46.9479895  59.4184971  55.1879835  46.5647030  60.7145691  56.4533806
  45.5285120  58.8494539  56.7297411  46.1426401  58.5494995  57.7698183
  44.3785954  58.2591724  56.4728165  43.9182329  58.5503912  55.6223154
  43.6935854  57.1000099  57.0991707  43.3099794  57.3251534  58.0942869
  42.5510645  56.6569185  56.1953259  42.9910183  56.5026236  55.2100658
  41.9601202  55.3497553  56.7715836  42.7220345  54.5702744  56.7681170
  41.6348600  55.5185318  57.7981424  40.9745884  55.1878929  56.3349819
  41.4450884  57.7973461  56.2760210  41.0175896  57.7461433  57.2773790
  41.9609976  58.7503004  56.1584330  40.3504992  57.6390171  55.1872873
  40.8239937  57.5463629  54.2098808  39.8048282  56.7046499  55.3188181
  39.6348453  58.4598064  55.2347326  44.7605038  55.9847879  57.4570322
  45.5673456  55.6620073  56.5897226  44.7543859  55.5889893  58.7719488
  44.3169212  56.1706924  59.4721937  45.6554317  54.6202087  59.3496704
  45.1091146  54.1498518  60.1672316  45.9197760  53.9417648  58.5385370
  46.8693924  55.2295971  60.0424957  47.4414921  54.7167540  60.9721231
  47.3251915  56.3968801  59.6513844  46.8691349  56.8300200  58.8611269
  48.5632133  57.0014763  60.2917814  48.6604548  56.5506172  61.2793922
  49.8401213  56.7254448  59.3975687  50.7295370  57.2095394  59.8009253
  50.0577021  55.6601143  59.4738817  49.6945715  57.1544981  57.9853916
  48.9127254  56.5243864  57.5613880  49.3277645  58.1809187  57.9892778
  51.0387135  57.0678568  57.1376991  51.0591316  57.2667551  56.0661936
  51.7752075  57.7334356  57.5878954  51.5592003  55.6750965  57.2239971
  50.9159088  54.9020863  57.1305275  52.8597260  55.3695440  57.2533035
  53.8624477  56.2473106  57.3928928  53.7884045  57.2524118  57.3266935
  54.6997881  55.8652496  57.8088140  53.1062603  54.0955973  57.1837997
  52.3631477  53.4145546  57.2475052  53.9998055  53.7131786  56.9091558
  48.5099459  58.5285854  60.6168365  49.1309929  58.9142609  61.5891743
  47.8267622  59.3216658  59.8534870  47.4891520  58.9095259  58.9954329
  47.7534580  60.7925081  59.9142218  48.1733656  61.2281322  60.8208704
  48.6027288  61.4172220  58.8151741  48.2500792  61.0994482  57.8339672
  48.7093544  62.5010252  58.8609648  50.0656748  61.0479689  58.9180565
  50.8295107  60.6464052  57.8092003  52.0985746  60.4613066  58.3222628
  53.0427408  60.2135134  57.8601503  52.0969200  60.7558107  59.6288157
  52.8967333  60.6926346  60.2423429  50.8407831  61.1707878  60.0042629
  50.4989481  61.5281248  60.9643984  46.3382006  61.3893223  59.8154736
  46.1177683  62.6003981  59.6522236  45.3582478  60.5577564  60.1364470
  45.6286478  59.5912266  60.2496004  43.9379930  60.8862448  60.2063847
  43.5168934  59.8823214  60.1523876  43.5819387  61.4221334  61.6319180
  44.1745949  61.0170841  62.4521589  43.7038136  62.5035667  61.5706778
  41.8920803  61.1057758  61.9707060  41.9970846  59.8504543  62.4157190
  43.3028793  61.6051197  58.9826202  43.5023308  61.1990023  57.8497648
  42.5691748  62.6950741  59.2176056  42.5089073  63.0016279  60.1780748
  41.8802834  63.5804510  58.2458687  41.5984583  63.0416727  57.3412132
  40.6180811  64.1320944  58.8958549  40.7315826  64.6932936  59.8233652
  40.2020407  64.7888136  58.1318331  39.5929265  63.0782270  59.0988541
  39.0265107  62.6894665  58.0869484  39.4770885  62.3537016  60.1783752
  38.9735866  61.4792538  60.2221966  40.0140047  62.5785398  61.0037661
  42.9165268  64.7060108  57.9255676  42.6400232  65.9198427  58.0233383
  44.0611887  64.3502951  57.3942184  44.2290974  63.3799458  57.1698952
  45.0756741  65.2369499  56.8343019  44.8095274  66.2937689  56.8138838
  46.3268232  65.1129055  57.6393223  46.1046028  65.1539326  58.7056446
  46.8475199  64.1707420  57.4681377  47.2570562  66.1910772  57.3097372
  47.5160694  66.1080742  56.2542152  46.7760849  67.1485186  57.5099039
  48.5277700  66.2388563  58.1957579  49.0882587  67.1690273  58.1023169
  48.2065535  66.1513996  59.2336750  49.5557785  65.0938320  57.8645849
  49.0506458  64.1332817  57.7631426  50.0374985  65.1868963  56.8912458
  50.6046247  65.1264095  58.8953161  50.4064322  64.7314596  59.8035240
  51.3444424  64.5473051  58.5246229  51.0120249  66.0074186  59.1744995
  45.3013420  64.8581982  55.3515291  45.6294584  63.7060404  55.0431108
  45.0184250  65.6786489  54.3941164  44.8482037  66.6441250  54.6369791
  45.0193501  65.2531147  52.9868364  44.9324846  64.1891718  52.7664375
  43.7805176  65.9783936  52.3353815  42.8904152  65.7700682  52.9290295
  43.9535809  67.0545149  52.3457909  43.6145639  65.6850338  50.8425760
  44.5402002  65.7928181  50.2771664  42.9034233  64.3298912  50.7344151
  41.9910955  64.4107199  51.3253736  42.6726341  64.1365623  49.6868181
  43.5321236  63.5004854  51.0583353  42.6332951  66.7715311  50.3131580
  42.5718117  66.5929890  49.2396402  41.6396475  66.6720390  50.7500458
  43.0794096  67.7422905  50.5292892  46.3566351  65.6310320  52.3320103
  46.6858053  66.8233633  52.1866989  47.0912266  64.5735979  52.0044374
  46.5797234  63.7052488  52.0710421  48.3024025  64.6786928  51.2076187
  48.9899206  65.4361963  51.5839291  49.0969944  63.3512354  51.4627409
  48.3648872  62.5592136  51.3051748  49.8177242  63.2483959  50.6515265
  49.8215723  63.1785822  52.7988958  49.2378807  62.6987219  53.9723158
  48.2237911  62.3404980  53.8737822  49.9469137  62.5563002  55.1825571
  49.5496559  62.1310806  56.0923767  51.3466549  62.8471422  55.2057123
  51.8756151  62.7701187  56.1441469  51.9618416  63.3281422  53.9985514
  53.0025578  63.6032295  54.0859318  51.1861086  63.5726881  52.8681326
  51.5987396  63.9647913  51.9503164  48.0476618  64.9550581  49.7194004
  46.9639540  64.7061062  49.2009974  49.0704203  65.3854179  48.9879799
  49.8651648  65.6189919  49.5658398  49.1551638  65.5005550  47.4475241
  48.2463551  65.0452614  47.0539713  48.9784956  66.9326639  47.1008158
  48.0069685  67.2548151  47.4755859  49.7591162  67.5039721  47.6031494
  49.1917038  67.2439766  45.6090546  50.1490021  66.7985058  45.3384256
  48.1108046  66.5488005  44.7461271  48.2354116  66.9062853  43.7239838
  48.2343245  65.4662037  44.7174263  47.1239853  66.7751265  45.1499510
  49.1153765  68.7468338  45.3856468  49.0350819  68.9807796  44.3240833
  48.2021093  69.1559935  45.8176661  49.9954271  69.1970778  45.8448744
  50.4741383  64.9047279  46.9267941  51.5308809  65.3858376  47.2638178
  50.3314018  63.9304209  46.0591745  49.4051552  63.5810852  45.8588123
  51.4234591  63.2009125  45.3637552  52.3460436  63.7447643  45.5666399
  51.5171576  61.7876959  45.9359550  52.2872400  61.2564611  45.3766203
  52.0861053  61.7366266  47.3784924  53.1000423  62.1360016  47.4016142
  51.4686394  62.3151541  48.0656147  52.0968914  60.6806993  47.6486778
  50.2518225  60.9385920  45.8445549  49.4866514  61.3242865  46.5182400
  49.7921467  61.1881447  44.8882484  50.4523516  59.3882275  46.1330080
  49.5438099  58.8599920  45.8438444  51.3843489  59.0317392  45.6943798
  50.4387569  59.2137003  47.2088575  51.2203932  63.3382368  43.8798475
  50.3708601  64.1146994  43.4177494  51.9457006  62.4898958  43.1408167
  52.6112175  61.9842005  43.7077904  51.7808104  62.1410370  41.6826534
  52.7289915  61.6355562  41.4995146  50.5189466  61.3104868  41.3900042
  49.6550322  61.9746685  41.4147854  50.5577278  61.1185312  40.3177404
  50.4875183  59.8930454  42.1220684  49.4791508  59.1489124  41.9930267
  51.6331100  59.3733644  42.3521328  51.9559288  63.4374046  40.8670712
  51.1949635  63.7776041  39.9792814  53.0281019  64.1153288  41.0922527
  53.5164690  63.8279724  41.9283295  53.5801554  65.2120543  40.2700043
  52.7858543  65.9269094  40.0551367  54.6363354  65.9809637  41.1460876
  55.3450727  65.2401686  41.5162420  55.2251291  66.7004967  40.5771494
  54.0884686  66.6664982  42.3503923  53.6320591  68.0261278  42.2948790
  53.6691093  68.6460829  41.4113140  53.1253719  68.5598421  43.4935760
  52.7979803  69.5835161  43.5999060  53.0256939  67.8625631  44.6906567
  52.7431107  68.3212280  45.6267023  53.3837509  66.5357447  44.6716452
  53.1329775  65.8444452  45.4626036  54.0026665  65.9468651  43.5327816
  54.2086792  64.8869324  43.5551119  54.1309023  64.7326565  38.8847637
  55.2266502  65.0995874  38.3795929  53.4264088  63.8970852  38.1862164
  52.5504875  63.6959362  38.6470914  53.9231443  63.1055403  37.0344353
  54.7857904  62.5139570  37.3409772  53.2780218  62.3388100  36.6054344
  54.3867064  63.8871241  35.7954526  55.1250792  63.2847548  34.9985266
  53.9745426  65.1103306  35.6536984  53.3007336  65.3240728  36.3750839
  54.2657566  66.0138607  34.5729518  54.9779081  65.5705881  33.8769245
  52.9388332  66.3052654  33.7852287  52.2332907  66.6382885  34.5464158
  53.0700541  67.0620108  33.0117798  52.2326946  65.1182556  33.0264616
  52.0070314  64.3613958  33.7776923  50.9729624  65.6877089  32.3144603
  51.3421917  66.4500523  31.6284513  50.5927849  64.8103762  31.7911482
  50.2560806  66.1346817  33.0032229  53.0597591  64.5162487  31.8623948
  52.5737524  63.5822821  31.5802741  53.0645323  65.2248716  31.0341859
  54.0874338  64.3069124  32.1593070  54.8201799  67.3693180  35.1048446
  54.7909975  68.3972549  34.4345760  55.1779938  67.3882818  36.3896751
  55.0830364  66.5528631  36.9492888  55.6259346  68.6596727  37.0322990
  54.7897100  69.3502331  37.1416020  55.9261227  68.4146833  38.4663200
  56.4190817  69.2983103  38.8716459  54.9771166  68.0951214  38.8968682
  56.6514921  67.6159430  38.6210918  56.7083216  69.3574047  36.2474132
  57.6697302  68.7577009  35.7490015  56.6437435  70.7475901  36.2849903
  55.8556032  71.1539173  36.7685485  57.7446365  71.6319561  35.9193015
  58.6543369  71.0424709  36.0335588  57.6452398  72.0078850  34.4226766
  56.7343092  72.5870705  34.2715216  58.3586454  72.7910280  34.1660571
  57.6848650  70.8856392  33.3357692  58.5289431  70.2627039  33.6317134
  56.7368507  70.3590393  33.4455919  57.7574062  71.3192558  31.8363190
  56.9870281  72.0719337  31.6687107  58.7494516  71.7415667  31.6763306
  57.4937201  70.0757980  31.0355520  57.7448130  69.1388226  31.5326738
  56.4098930  70.0259638  30.9309673  58.1693077  70.1000500  29.7252631
  58.0952835  69.1589737  29.3661022  57.7645540  70.7671738  29.0839982
  59.1516209  70.3100777  29.8303699  57.9452753  72.8945875  36.7732525
  56.9974804  73.2233191  37.5364113  59.0369797  73.6223030  36.6392231
  59.6861553  73.3400869  35.9187889  59.3468428  74.9839544  37.2356677
  59.0429115  75.0227928  38.2817173  60.8516836  75.0981951  37.2536492
  61.3803720  74.1657019  37.4512577  61.1802626  75.2398872  36.2240577
  61.4254236  76.3164759  37.9765487  61.1870575  77.1502686  37.3161888
  60.9840775  76.3860130  38.9707732  62.9657555  76.1611748  38.1281328
  63.1416750  75.3140068  38.7910485  63.3320379  75.9918547  37.1155739
  63.4541368  77.5557518  38.6971235  62.9722881  78.2904387  38.0520177
  63.1413794  77.7024555  39.7309303  64.9743748  77.6490307  38.6510468
  65.3022718  78.4821272  39.1185260  65.2709675  76.7974234  39.1059113
  65.2853203  77.6239967  37.6904297  58.6411333  76.0197973  36.4749289
  58.6466503  75.9663343  35.2025914  58.1228638  77.0841646  37.0901942
  58.2581520  77.1649551  38.0878305  57.5290632  78.2075596  36.3201427
  57.6721001  78.1578779  35.2407122  56.0110998  78.1981277  36.5684009
  55.6139517  78.8025904  35.7529283  55.6035757  77.1885061  36.5165830
  55.6406069  78.8483286  37.8652883  55.5486298  80.2655506  37.9479027
  55.6574202  80.8750534  37.0629883  55.3586531  80.8183479  39.2337966
  55.3569555  81.8668842  39.4925499  55.2609539  80.0087452  40.3868866
  55.1545620  80.5157661  41.6502666  54.8758268  79.8643160  42.2979641
  55.1811075  78.5861540  40.2348566  54.8740244  77.9591131  41.0588312
  55.3686619  78.0351591  38.9438033  55.4320621  76.9715548  38.7673807
  58.1887674  79.5915651  36.4459896  57.7693653  80.4897213  35.7012582
  59.1652393  79.8455620  37.3239946  59.4206858  79.1130877  37.9707789
  59.8380661  81.1245441  37.3716283  59.9866343  81.4598083  36.3451648
  58.9777517  82.1416759  38.1727433  59.4933414  83.1015682  38.1430531
  58.0046940  82.2728252  37.6993990  58.7002802  81.7273998  39.6375728
  58.0706549  80.8380890  39.6656466  59.6438742  81.3861370  40.0633240
  58.0985403  82.9105949  40.4875946  58.8448858  83.6960983  40.6061268
  57.2101307  83.2967758  39.9879098  57.6855278  82.4017239  41.7926121
  58.1393099  81.5877056  42.1819210  56.6554689  82.9466057  42.5042152
  55.9893799  84.0159321  42.1664667  56.2740850  84.6199036  41.4086676
  55.3888750  84.5068169  42.8134012  56.3845015  82.4423122  43.7224340
  57.0235968  81.7329788  44.0518332  55.5298567  82.6788807  44.2058849
  61.2743759  80.9630775  37.9279375  61.5332413  80.1687336  38.8381600
  62.2038507  81.7901230  37.3971128  61.8763065  82.3844147  36.6490293
  63.6594009  81.7334366  37.5673079  63.8844490  80.6673431  37.5973105
  64.4496775  82.2869873  36.3361406  64.2829752  81.6179752  35.4919004
  64.0082932  83.2576466  36.1101031  65.9364080  82.4703503  36.3642788
  66.6449404  82.3322201  37.4287009  66.4923859  82.8218079  35.3200459
  64.2148352  82.4233818  38.8354635  64.1453505  83.6294746  39.0534377
  64.6224785  81.6014004  39.7361517  64.6384001  80.6010818  39.5975351
  64.8986626  81.9354343  41.1314774  63.9062452  82.2775459  41.4250135
  65.3147936  80.6642914  41.9247150  66.3522625  80.4336739  41.6826820
  65.1429415  80.9371567  42.9659176  64.4241095  79.4643307  41.7846203
  63.2404232  79.6254301  41.7259312  64.9038553  78.2472658  41.6890430
  64.2602825  77.4727583  41.7668676  65.8492708  78.0000114  41.9442892
  65.8977079  83.0991650  41.3567495  65.8576488  83.5897541  42.4872446
  66.8483925  83.3434391  40.4294109  66.7112494  82.8558064  39.5556283
  67.7052689  84.4847012  40.5040359  68.2575369  84.6254730  41.4331627
  68.7923622  84.2692184  39.4697833  68.3488417  84.2260838  38.4750319
  69.4614887  85.1286983  39.5105672  69.6189833  82.9327202  39.7024584
  70.3405046  83.1465626  40.4909897  68.9461279  82.1084881  39.9390960
  70.4290867  82.6288986  38.4331298  71.0424137  83.4990120  38.1989551
  71.0797548  81.7717743  38.6065340  69.6864748  82.2484493  37.2120643
  68.6825037  82.3218822  37.2942781  70.1656532  82.2823620  35.9836078
  71.4235735  82.2650814  35.6526852  72.1119499  81.8943024  36.2920308
  71.5771246  82.1954441  34.6568584  69.2550707  82.4686050  35.0463104
  68.2787514  82.4322891  35.3024244  69.4429350  82.7769184  34.1030431
  66.9911003  85.7975006  40.2265739  67.3784781  86.7931938  40.7509661
  65.9313250  85.8934879  39.3904018  65.7789898  85.1209545  38.7578821
  65.3349686  87.1654034  38.8637972  65.7311296  88.0472088  39.3673611
  65.5006599  87.3029137  37.3399496  64.8395872  88.1003571  37.0005822
  66.9181013  87.7611351  36.9257879  67.3650122  88.6817265  37.3011327
  67.5235128  86.8698788  37.0908427  66.8832588  88.0080318  35.8646870
  65.1710892  86.1571217  36.7221451  65.7357407  85.9685326  35.9690118
  63.8075399  87.2656536  39.0008402  63.2428598  88.3813953  38.8568068
  63.1723595  86.1242485  39.1815448  63.7876081  85.3235817  39.2041349
  61.7228937  85.9454155  39.2630410  61.5973139  84.9500847  39.6892309
  61.0309410  86.9577122  40.1336861  61.7355633  87.1480370  40.9432411
  60.8674669  87.8365040  39.5099092  59.6584845  86.5917587  40.8105135
  58.9162874  86.3569927  40.0475407  59.7407341  85.7319450  41.4753914
  59.1372871  87.8314495  41.5945578  59.8183537  87.9369831  42.4390125
  59.3195486  88.7455559  41.0294962  57.6518583  87.7369022  42.0365763
  57.3566103  87.0846081  42.7489281  56.7354345  88.5639000  41.5335751
  56.9039249  89.4820786  40.6513882  57.8363562  89.5980549  40.2809525
  56.1873722  90.1597691  40.4336929  55.5930948  88.5062408  42.0710182
  55.4954767  87.7784443  42.7644730  54.7927141  88.9209366  41.6154766
  61.0392284  85.9825039  37.8590846  59.8209381  85.7502174  37.7022171
  61.8215704  86.0484314  36.8138051  62.8245020  86.0264778  36.9310522
  61.3241816  85.9998703  35.4333091  60.6836033  86.8381119  35.1592660
  62.5919724  86.0750866  34.6100402  63.0945110  87.0048809  34.8765445
  63.2441616  85.2449512  34.8813963  62.3787260  85.8390999  33.1421781
  62.1748018  84.7885990  32.9349089  61.4280939  86.3067722  32.8858972
  63.4658861  86.3812065  32.2597122  64.4879913  86.7836571  32.7443624
  63.3012724  86.3036537  30.9577250  63.9563036  86.8572998  30.4243350
  62.4999046  85.8798790  30.5123782  60.5107737  84.6240902  35.1819587
  60.9582806  83.4896278  35.5239463  59.3868828  84.7769547  34.4919848
  59.1965294  85.6873226  34.0981603  58.4759998  83.7071228  34.1551304
  58.3502865  83.0296135  34.9996901  57.1306849  84.3690968  33.8085485
  56.8336916  85.0881386  34.5720077  57.3566294  84.8598289  32.8618550
  56.0290003  83.3614349  33.7893295  55.6634951  82.5699711  34.8757339
  54.6318150  81.8400288  34.4800591  54.1331148  81.0908508  35.0770926
  54.2949915  82.2294807  33.2412553  53.5031462  81.8426228  32.7478623
  55.1679420  83.1634808  32.7318907  55.1954937  83.6660290  31.7763352
  58.9661026  82.8315735  32.9834199  59.7439337  83.2627964  32.1006465
  58.5379076  81.5830517  32.9390550  57.9658604  81.2859631  33.7166214
  58.7518263  80.6668091  31.7933321  59.7826242  80.3151035  31.8363905
  57.9448605  79.3467569  31.8533707  57.7630758  79.0250921  30.8279014
  58.7521410  78.2097387  32.4154186  58.1481886  77.3048925  32.4832702
  59.6723938  78.0845451  31.8448377  58.9749718  78.4331131  33.4587550
  56.5822935  79.5790291  32.5436974  56.7210579  79.8467541  33.5911584
  56.0425711  80.2940655  31.9227910  55.6919479  78.3614063  32.7067399
  55.2500629  78.0637503  31.7558241  56.2751436  77.6002073  33.2249784
  54.8657894  78.6738396  33.3454537  58.4363651  81.3266850  30.4719758
  57.4703312  82.0952129  30.3834605  59.1288233  80.9733486  29.3865252
  60.4573870  80.3307915  29.2990971  60.3457928  79.2493296  29.3771243
  61.1903191  80.6751442  30.0287008  61.0292530  80.7873154  27.9542136
  61.7598677  80.1506329  27.4552798  61.4989185  81.7228508  28.2580113
  59.8398352  80.8844852  27.0669460  59.4609690  79.8857641  26.8498802
  59.9794579  81.4595699  26.1515832  58.7964010  81.5142727  28.0272794
  58.8159180  82.5999546  28.1222439  57.3856020  81.0089779  27.6217270
  56.8812752  79.9742126  28.1235695  56.7491627  81.7584705  26.6649604
  57.2213840  82.5063038  26.1772513  55.4436207  81.3883114  26.1587954
  54.9808455  80.7756233  26.9324493  54.7328281  82.6781082  25.9142566
  54.6520901  83.1865597  26.8750143  55.3713560  83.3073425  25.2942181
  53.3170605  82.5925446  25.2859950  52.2470093  82.1846104  26.0769081
  52.4481726  82.0436096  27.1286011  50.9616232  82.1851444  25.4708219
  50.1275921  81.9009304  26.0953307  50.7974339  82.3424053  24.0859866
  49.6380281  82.2506809  23.5298562  49.6323919  81.7375183  22.7185440
  51.8834448  82.7328300  23.2990503  51.7142963  82.9947948  22.2650456
  53.1403208  82.7738190  23.9020109  54.0179586  83.0243492  23.3246183
  55.5390501  80.5188560  24.9198294  56.4308834  80.7349014  24.0681863
  54.6208858  79.5083237  24.8023534  53.7993002  79.4428539  25.3861451
  54.6634865  78.4229708  23.8117242  55.1186228  78.7957239  22.8941154
  55.5025625  77.2146225  24.2418575  54.9972010  76.9198704  25.1615477
  55.4208231  76.4274931  23.4922934  56.9999504  77.4392462  24.6934533
  57.4244118  77.9734373  23.8434100  57.0814943  78.1269407  25.5351925
  57.7949572  76.1306572  24.9875641  57.7428436  75.4882574  24.1085291
  58.8654995  76.2814808  25.1264429  57.2478008  75.4245472  26.1418271
  57.0747089  75.9790516  26.9680643  56.8290567  74.1465521  26.1763358
  57.0762682  73.2686758  25.3447485  57.7071428  73.3574247  24.5610261
  56.6086245  72.3763132  25.4161572  56.0765219  73.8554478  27.1225309
  55.9948111  74.5347595  27.8654695  55.4178715  73.0899143  27.1069908
  53.2496977  77.9924536  23.4078145  52.3364878  78.1207561  24.1911316
  53.0241871  77.4848747  22.1841240  53.8360643  77.4059916  21.5885258
  51.7090702  77.0817518  21.6894412  51.0200834  76.7876101  22.4811983
  51.1846018  78.1567955  20.7704782  51.8322849  78.4079409  19.9305177
  50.2494478  77.8451777  20.3052020  50.8140564  79.4061422  21.5260386
  50.1377153  79.2312145  22.3627400  51.6764927  79.8187590  22.0495367
  50.2025700  80.4735279  20.6529880  50.8243275  80.8119583  19.6270144
  49.1160440  80.9962654  20.9784770  51.8758297  75.7631111  20.8747077
  52.9167318  75.3371000  20.3707433  50.7516527  75.1254272  20.7589197
  49.9664736  75.4229355  21.3202429  50.5280495  73.9198971  19.9525356
  49.4768190  73.7044573  20.1438498  50.6233883  74.2584801  18.4053409
  51.6487789  74.5565462  18.1866431  50.4001188  73.3410406  17.8607750
  49.7110605  75.4504967  17.9259884  50.2227974  76.1971617  17.0601523
  48.5312891  75.5891323  18.2685852  51.2316895  72.6693869  20.4198956
  51.6113138  71.8581104  19.5259738  51.4553404  72.5368786  21.6979599
  51.0586214  73.2754469  22.2611928  51.8813848  71.3018084  22.3790598
  52.4470139  70.7214022  21.6501617  52.7812719  71.8350649  23.5529995
  52.2111082  72.2774935  24.3698645  53.3306456  70.9891176  23.9661217
  53.7441206  72.9318476  23.2609916  53.2129288  73.8662052  23.0795956
  54.3128014  73.1142378  24.1728234  54.6829844  72.5422955  22.0967126
  55.4932594  71.8839025  22.4098802  54.2181540  72.1191883  21.2062001
  55.4429388  73.9144993  21.7462707  54.7341585  74.7356462  21.6392827
  55.9439087  74.1636419  22.6817179  56.4081955  73.9644432  20.6411219
  56.9086456  73.0974674  20.5069566  55.9916449  74.3050241  19.7863734
  57.1224117  74.6545887  20.8246970  50.8722687  70.2539015  22.8302097
  49.7832298  70.6111526  23.3474755  51.1412954  68.9789534  22.5192809
  52.0248508  68.7413120  22.0915389  50.3183031  67.8640175  22.9385567
  49.4789410  67.9465866  22.2480798  50.9353590  66.5643501  22.4437428
  51.4715338  66.7026329  21.5048623  51.5932751  66.1746931  23.2205439
  49.8845196  65.5349541  22.1957922  49.2148638  65.0955868  23.1145883
  49.4255352  65.2935743  21.0117841  48.7208605  64.5700312  21.0075116
  49.9351549  65.5227375  20.1704311  49.8525333  67.8935909  24.4087005
  50.6754303  68.1171083  25.2843642  48.6095810  67.5247288  24.6383119
  48.1569147  67.1666145  23.8094878  47.8309155  67.8495026  25.7880807
  47.6086903  68.9119482  25.6884551  46.5853310  66.9137764  25.6494308
  46.1573458  66.9386148  24.6472764  46.9099808  65.8777905  25.7465982
  45.4235268  66.9748974  26.6495132  44.5536423  66.7916822  26.0187721
  45.5205202  65.8451366  27.6900768  46.5749407  65.7899904  27.9607630
  44.8532772  66.1048794  28.5119176  45.1238918  64.9849033  27.1508336
  45.2904224  68.3506250  27.2331381  46.1176062  68.5246468  27.9213142
  45.3080893  69.1664886  26.5105343  44.3555260  68.3656883  27.7933598
  48.5282135  67.6439714  27.1426129  49.0035725  66.5437555  27.4181294
  48.5732508  68.6395407  28.0003595  48.4030628  69.5714664  27.6501513
  49.0424109  68.5998392  29.4602799  49.7795010  67.7968550  29.4568229
  49.7039938  69.9329472  29.8800969  48.9826775  70.7305479  29.7022223
  50.1687765  70.0046873  31.3196731  50.7325029  70.9183407  31.5082240
  49.2659903  69.9691105  31.9294333  50.7894039  69.1446543  31.5712190
  50.8505440  70.0963259  29.0220666  50.6106091  70.4039240  28.1449056
  47.9814339  68.1467581  30.4553938  46.8621397  68.7588739  30.5302811
  48.3061838  67.1559906  31.2810898  49.1935301  66.7352104  31.0451579
  47.5090551  66.6218281  32.3209238  48.1621456  66.0921574  33.0144811
  47.0294809  67.4682808  32.8124762  46.3332748  65.7741213  31.8403816
  46.1111498  65.4482269  30.6693649  45.5218124  65.2444506  32.7102971
  45.7032013  65.3774691  33.6949325  44.4650364  64.2362261  32.4522114
  44.8503113  63.4812927  31.7668343  44.0996599  63.6032915  33.7633801
  43.8396549  64.4081879  34.4508672  42.9540777  62.5074100  33.6482382
  42.8959846  62.1282434  34.6685123  42.0288515  63.0524683  33.4612250
  43.2005501  61.7202902  32.9356408  45.2115917  62.8717470  34.1978645
  45.9515762  63.4737635  34.3055677  43.2605124  64.9468040  31.8393588
  42.5800514  65.7606316  32.4977469  42.8699493  64.5998001  30.5829740
  43.2413626  63.7166691  30.2632332  42.1104908  65.4260588  29.5735145
  42.7591705  66.2691021  29.3356252  41.9569731  64.6443844  28.3066678
  42.9327965  64.5377159  27.8328681  41.3951874  63.7131643  28.3796358
  41.3840246  65.2483368  27.6030493  40.7925129  65.9946346  30.1059794
  40.6720686  67.1929121  29.8162889  40.0771618  65.1573277  30.8791518
  40.4361439  64.2421389  31.1107993  38.7934637  65.5839920  31.4595222
  38.2173944  66.0246229  30.6458330  37.9661846  64.4466543  32.0879388
  36.9788527  64.8236752  32.3546433  37.7775264  63.6833239  31.3330579
  38.6342645  63.8808012  33.3008814  39.7240901  63.8699722  33.2848024
  38.3902478  64.4014072  34.2269135  38.2909536  62.4181461  33.6170793
  38.6224651  62.2862196  34.6470284  37.2209501  62.3551369  33.4190440
  39.1252255  61.5465164  32.7452779  39.5481586  61.8199158  31.8697834
  39.6966624  60.4295731  33.1761622  39.4035244  59.8527050  34.2485571
  38.5669374  60.1387167  34.7368383  40.0272322  59.1138792  34.5404911
  40.7328176  59.9329662  32.5083017  41.0128069  60.3001118  31.6100216
  41.0689211  58.9931583  32.6628947  38.8933492  66.7246723  32.5086021
  37.9327059  67.4519920  32.6024175  40.0149822  66.7589712  33.2722878
  40.7052565  66.0216761  33.2679963  40.2018404  67.7016449  34.4498920
  39.2768288  68.0348587  34.9204445  40.9759474  67.0770454  35.5602312
  41.9149590  66.7136860  35.1427126  41.1815262  67.7900076  36.3586831
  40.2336645  65.9186983  36.3220382  39.1070771  66.1557150  37.1361732
  38.8502264  67.1659517  37.4187422  38.2892323  65.0979137  37.6762486
  37.3207188  65.3256989  38.0963588  38.7466884  63.7784719  37.4421453
  37.9399848  62.7151585  37.7254081  38.5409689  62.0035505  37.9578710
  39.9134374  63.5683870  36.6962385  40.1644611  62.5391817  36.4861774
  40.6502008  64.6017933  36.1213732  41.5328646  64.4507742  35.5176377
  40.9425592  68.9214373  34.0200973  40.5230999  69.9991560  34.3840718
  41.9506645  68.7818670  33.1673908  42.2197390  67.8474283  32.8943896
  42.8630590  69.8774242  32.6654291  43.5538816  70.2053976  33.4421563
  43.7313128  69.1667461  31.6797876  43.1177711  68.6829710  30.9197664
  44.4197130  69.7637892  31.0816646  44.3214846  68.4099340  32.1965408
  42.2026443  71.1816931  31.9950247  41.1309767  71.1660242  31.4028668
  42.8862524  72.3093987  32.0179772  43.5270834  72.4164057  32.7912736
  42.4669981  73.5405731  31.2912297  41.5057850  73.9010143  31.6576290
  43.5406494  74.5684004  31.5105820  43.7835836  74.7094631  32.5637579
  44.3893480  74.1695642  30.9549451  43.0957937  75.7861567  30.9302521
  42.6134586  76.1730003  31.6646242  42.3126984  73.3477545  29.7807717
  42.9770088  72.5178909  29.2000055  41.4281845  74.1436243  29.1321540
  40.8356619  74.7397089  29.6922421  41.3120699  74.3751860  27.7082610
  41.1697197  73.3765936  27.2951436  40.0617123  75.1981974  27.3585558
  39.1525292  74.7879219  27.7980518  40.1738024  76.7067909  27.7559328
  41.0934258  77.0943880  27.3175645  39.3466520  77.3351002  27.4255514
  40.1837587  76.9037628  28.8279414  39.8252988  75.1137686  25.8014727
  40.6444788  75.4944706  25.1914620  39.6978855  74.0515089  25.5929828
  38.5417676  75.8139467  25.2560711  38.6691689  75.8170128  24.1735435
  37.5780249  75.3521633  25.4706812  38.4242964  76.8226719  25.6520247
  42.6062059  74.8057747  27.0137382  42.8354692  74.3735456  25.8659291
  43.4066582  75.5859661  27.7105546  43.0040693  75.8952045  28.5837054
  44.6934128  76.0602188  27.1830678  44.6255016  76.6342592  26.2589622
  45.4666328  76.9329309  28.2367325  45.5759478  76.3628817  29.1593337
  46.4909506  77.0945883  27.9009485  44.8587847  78.2870674  28.6276841
  44.3874216  79.1068172  27.8250337  44.8796749  78.6458158  29.8903656
  44.5976925  79.5885754  30.1179600  45.3702259  78.0691957  30.5589223
  45.5188370  74.8124361  26.8324614  46.2859821  74.9483156  25.8472443
  45.5365276  73.7566376  27.6385403  44.9087477  73.8077688  28.4280849
  46.2831640  72.4607944  27.4127603  47.3238420  72.6894999  27.1830010
  46.2328863  71.6235590  28.6762667  45.2154922  71.2326241  28.6898160
  47.0206547  70.8717442  28.6283660  46.3341570  72.3576355  29.4756269
  45.7369518  71.6732836  26.2178874  46.5116644  71.1510706  25.4112959
  44.3989944  71.7633152  26.0805440  43.8813210  72.2953367  26.7654300
  43.7107849  71.2352514  24.8461318  44.1361475  70.2530193  24.6402431
  42.2606468  71.1912298  25.1162601  41.8593407  72.1444607  25.4603577
  41.8099785  70.7949972  24.2063165  41.8921661  70.1696730  26.1411548
  41.9243193  68.8117599  25.9737921  41.5743494  68.3309650  27.1143913
  41.5355921  67.2648191  27.2823858  41.1619234  69.2606592  27.9817152
  40.9859133  68.9973640  28.9407730  41.3776064  70.4863167  27.3592186
  41.2686443  71.4867592  27.7511954  44.1074705  71.9440937  23.6258531
  44.5404577  71.3145304  22.6152182  44.0525913  73.2418776  23.5713267
  43.4616137  73.6193085  24.2982340  44.5984697  74.0573406  22.4929810
  44.0315247  73.8755274  21.5799522  44.3580437  75.5712748  22.9014111
  44.8088646  75.8110952  23.8643980  44.8752403  76.3280869  22.3116231
  42.9071760  75.9902382  23.0160189  42.3410130  75.2830124  23.6221409
  42.8661203  77.2213936  23.9341855  43.1650257  78.0978107  23.3591604
  41.8154860  77.2178125  24.2244530  43.4351015  77.2674036  24.8627567
  42.2062063  76.3894653  21.7238998  41.1941910  76.6422749  22.0401525
  42.7577686  77.2067642  21.2592387  42.1955585  75.4880857  21.1111164
  46.0576296  73.7643337  22.2009754  46.4376831  73.5201597  21.0553217
  46.9070196  73.6463928  23.2473564  46.5593958  73.6849403  24.1948652
  48.3859873  73.5155153  23.2495880  48.6929750  72.6898909  23.8916159
  48.6340714  73.1083202  22.2694087  49.1486406  74.7188950  23.8109612
  50.4045153  74.6873522  23.9072728  48.4891462  75.8183432  24.1860080
  47.4806881  75.8214235  24.1303444  49.1229296  77.0177364  24.8573256
  49.8128319  77.4198341  24.1154051  48.1052780  78.0830860  25.1610184
  47.3749876  77.6563358  25.8485270  48.6248732  79.2141533  26.0470271
  48.9239216  78.8618803  27.0342326  49.4704247  79.8023510  25.6904364
  47.8363705  79.9493647  26.2077618  47.3950577  78.5246515  23.8361788
  48.0394554  79.0888834  23.1620145  47.0664120  77.6415682  23.2882214
  46.1336946  79.3157482  24.1234970  45.5517483  78.7694216  24.8657680
  46.4441538  80.3088474  24.4482684  45.5230045  79.1755009  23.2315946
  49.7425222  76.5016460  26.2375832  49.1546345  75.6766701  26.9056773
  50.9493351  77.0502186  26.5673089  51.4192486  77.5714922  25.8409786
  51.7617607  76.8152952  27.7832317  52.0882845  75.7753515  27.7799249
  52.9990149  77.6747370  27.6855516  53.4180784  77.4186468  26.7124581
  52.7127075  78.7166882  27.8285933  54.1171598  77.3942995  28.7624979
  55.0128174  77.9411936  28.4678578  53.7996387  77.7419376  29.7455668
  54.6464586  75.9753609  29.0193748  55.9032249  75.8637571  29.1039205
  53.8875580  74.9522018  29.1675830  51.1081123  77.0272255  29.1032290
  50.2939844  77.9259825  29.3188405  51.3194609  76.0662794  30.0247478
  51.9161987  75.2996540  29.7485423  50.6644630  75.9229708  31.3435006
  49.6827507  76.3921070  31.2783051  50.4731750  74.4426489  31.6977978
  51.3160086  73.8834333  31.2915921  50.5711079  74.2576122  32.7675009
  49.1381788  73.9109421  31.2139416  49.1437054  72.8252316  31.3104200
  48.4926367  74.3827438  31.9547391  48.8734102  74.2291784  29.7983479
  49.4166851  73.5556507  28.9589405  48.0884075  75.2640533  29.4469810
  48.1567764  75.4221916  28.4517789  47.7269220  75.8161163  30.2116084
  51.3963270  76.6509199  32.4808502  52.5950384  76.8630075  32.4803233
  50.6181002  77.1348333  33.4395862  49.6314383  76.9198370  33.4589148
  51.0250235  77.7771711  34.7121191  51.9462538  77.2253942  34.8991442
  51.5106106  79.2491817  34.4322157  52.3014069  79.2985630  33.6836815
  50.6660318  79.7700357  33.9811087  51.8951035  80.0284004  35.6259584
  51.4195585  80.8434677  35.4495239  50.1185513  77.4896336  35.8686280
  49.2675829  76.6094542  35.7303071  50.3888035  78.1402826  37.0361853
  51.1858130  78.7606573  37.0382547  49.4784927  78.1059074  38.2420397
  49.5455694  77.1543503  38.7694263  49.9417305  79.3726063  39.0948606
  49.9628973  80.2330017  38.4260011  49.3312979  79.4810390  39.9913621
  51.4009857  79.1293240  39.5840812  51.4525986  78.1828213  40.1221991
  52.0473719  79.2279959  38.7119818  51.8364334  80.2517700  40.4604721
  50.9985828  80.3192520  41.1544085  52.7067041  79.9527740  41.0447121
  52.1890354  81.4771557  39.7131371  52.1984339  81.3997936  38.7061501
  52.7936935  82.5829792  40.2397633  53.1143665  82.5987625  41.5062094
  52.9475451  81.8710613  42.1864414  53.4025764  83.5005569  41.8580675
  52.9819536  83.6942673  39.5879483  52.7169991  83.7416649  38.6144733
  53.1042910  84.5572090  40.0983000  48.0542469  78.3262730  37.7731013
  47.2434282  77.5314093  38.3294749  47.7023602  79.2861795  36.9040847
  48.3888626  79.9180746  36.5174007  46.3062000  79.4428110  36.4180636
  45.7513475  79.7951126  37.2876143  46.1347437  80.5757713  35.3916526
  45.1221085  80.6016350  34.9891615  46.3113546  81.5746212  35.7906771
  47.1786165  80.4386711  34.2477751  47.8735590  81.2597656  34.4237494
  47.6834154  79.4830942  34.3897176  46.5531731  80.5360508  32.8605914
  45.7074118  79.8573303  32.7504826  46.2408447  81.5467548  32.5978518
  47.5226831  80.2083302  31.8201041  47.9095888  79.2803955  31.9167328
  47.5430536  80.5941868  30.5641365  46.7769670  81.6339016  30.1529121
  46.1036921  82.0680618  30.7679772  47.0038843  82.0037460  29.2408681
  48.1939220  79.9540329  29.6312976  48.7246037  79.1480732  29.9294615
  48.2615376  80.4033184  28.7292647  45.6385088  78.1381798  35.9575868
  44.5843506  77.8357697  36.5706563  46.1856937  77.3367929  35.0786543
  47.0908403  77.6004076  34.7162771  45.6614208  76.0662699  34.6820211
  44.6506739  76.3104868  34.3551397  46.5261173  75.5258799  33.5244846
  47.3861361  75.0364971  33.9816189  45.9668207  74.7492218  33.0028629
  46.9859123  76.5952301  32.4919796  46.4205551  76.6842222  31.4046264
  47.9725122  77.3380327  32.7489328  45.5245066  75.0639915  35.7931423
  44.4369984  74.4968510  35.9029889  46.5145016  74.7030544  36.5367270
  47.3980474  75.1924038  36.5364933  46.3088131  73.7946463  37.7027130
  46.0440063  72.8224707  37.2869492  47.5891781  73.7083006  38.5923958
  47.9935598  74.7114134  38.7277818  47.2903967  73.5497189  39.6285820
  48.7761545  72.8069067  38.2217383  48.8382339  72.1881342  37.1312118
  49.6615124  72.7446508  39.1101789  45.0806904  74.2011261  38.4613371
  44.2276907  73.3697605  38.7787294  45.0019789  75.4558802  38.8265824
  45.7496071  76.0728645  38.5428834  43.9754105  76.0611200  39.7265315
  44.0434074  75.4971218  40.6567955  44.3963623  77.4946642  40.0595856
  45.4010153  77.3712683  40.4639912  44.2965174  78.0523014  39.1283679
  43.5448647  78.1966305  41.1377478  43.2306337  79.1412973  40.6939363
  42.5474024  77.7703047  41.2445831  44.2391872  78.3659601  42.7980089
  44.1935062  76.6396236  43.2952023  43.9804745  76.6228151  44.3640518
  43.4642267  76.0729980  42.7162504  45.1343393  76.1035967  43.1702471
  42.5021839  75.9869909  39.1827369  41.5862226  75.5927229  39.9191356
  42.3755026  76.1930037  37.9192233  43.2775116  76.3464355  37.4915028
  41.2071991  75.9750986  37.0788765  40.3151226  76.4351320  37.5039339
  41.5241241  76.6538906  35.7555819  41.9832277  77.6376295  35.8534741
  42.2059345  76.0002041  35.2115893  40.3378248  76.8401861  34.7595119
  39.6463680  75.9989834  34.8081350  39.8828030  77.7880287  35.0470138
  40.7543898  76.8641901  33.2688379  41.8417454  77.4377823  32.8444457
  40.1570082  76.1519289  32.4357557  40.7941675  74.4794703  36.9367623
  39.6599960  74.1562128  37.2302008  41.7862320  73.5383272  36.8232441
  42.7089977  73.9156437  36.6612530  41.7061472  72.0822001  36.9035959
  41.0383415  71.6911030  36.1360145  43.0179930  71.3644171  36.5524316
  43.7882233  71.5392494  37.3036170  42.8910446  70.3039980  36.3344693
  43.4140015  72.0040512  35.3697419  43.6721134  72.8896809  35.6355238
  41.0855007  71.6203260  38.2210517  40.1717949  70.8750820  38.2129788
  41.5976620  72.0558405  39.3758535  42.4675417  72.5580215  39.2699194
  41.0836554  71.7534065  40.7140684  41.1413479  70.7254648  41.0719919
  41.8809938  72.6127005  41.8066645  42.8995943  72.2248363  41.8173504
  41.9193506  73.6691523  41.5410662  41.2364531  72.5237226  43.2199621
  40.3180361  73.1107140  43.2125711  41.1336327  71.0391188  43.7466717
  41.1462355  71.1515951  44.8307800  40.2325058  70.5405951  43.3895350
  42.0504522  70.5136681  43.4793806  42.1285343  73.2754564  44.1647387
  42.2892523  74.2947865  43.8137007  41.5926933  73.4190083  45.1030159
  43.0951738  72.7826595  44.2689276  39.5991564  72.2698164  40.8432293
  38.7582707  71.5700626  41.3460064  39.2576289  73.3921099  40.1998663
  40.0013113  73.9280224  39.7757936  37.8303337  73.8204288  39.9131083
  37.2500396  74.0042067  40.8173084  37.8352690  74.6990538  39.2680502
  36.9905853  72.7870798  39.1678166  35.8318591  72.5929356  39.5925140
  37.5369453  72.0482063  38.2153773  38.4933853  72.2485971  37.9600954
  36.7974091  70.9471607  37.5941873  35.7509780  71.2388039  37.5045848
  37.3432112  70.8010244  36.1994481  38.3749533  70.4655790  36.3047481
  36.8469930  69.9074364  35.8208060  37.2924995  72.1024704  35.2879882
  36.1496735  72.7145576  34.9145317  35.2672219  72.2610664  35.3411746
  36.1279035  73.8661814  34.1077447  35.1875973  74.3735409  33.9502239
  37.3469138  74.4415569  33.7133908  37.4476075  75.5696726  32.9920745
  38.3932376  75.7156086  32.9140377  38.5444427  73.7361860  33.9200783
  39.4644904  74.0103149  33.4253430  38.5111666  72.6404428  34.7677064
  39.3765211  72.0377493  35.0007796  36.9136119  69.6183395  38.3552456
  35.9167171  68.9058733  38.1153345  37.8396225  69.4921732  39.3092990
  38.5277247  70.2228308  39.4222331  37.7530313  68.4340239  40.3121376
  37.5869894  67.4684858  39.8343754  39.0830636  68.2062340  41.1243916
  39.4050312  69.0133047  41.7824697  38.8683844  67.1232033  42.1584749
  38.5257077  66.1415768  41.8312311  39.8377037  67.0025301  42.6421690
  38.1809497  67.3706818  42.9673529  40.2439547  67.7559757  40.1815987
  40.4381990  68.6393356  39.5732737  41.1161423  67.5573540  40.8044386
  39.9592161  66.8577862  39.6336150  36.6226506  68.6614180  41.2508631
  35.8832169  67.7492476  41.5792847  36.4389539  69.8973227  41.8087053
  37.1433377  70.5797386  41.5673494  35.2622247  70.2734089  42.6645756
  35.2046037  69.4727230  43.4019232  35.5122757  71.6262960  43.3760786
  35.4629755  72.3954487  42.6053143  34.7247934  71.8168926  44.1052198
  36.8353009  71.7266369  44.1505146  37.6902437  71.5865707  43.4890318
  37.0341492  73.1754160  44.6211147  37.1070576  74.0015459  43.9137983
  36.5527892  73.5223103  45.5354738  38.0780816  73.2057285  44.9331856
  36.9097471  70.7331085  45.3338385  36.7013764  69.7241735  44.9778271
  37.8851557  70.8025169  45.8153582  36.1112905  71.0234880  46.0166645
  33.9160800  70.2651310  41.8938065  32.9958439  69.6431160  42.3299408
  33.8929367  70.5955744  40.5926704  34.5533586  71.1141729  40.0314188
  32.6470971  70.3312778  39.7831035  31.8572927  70.7363033  40.4157734
  32.7182698  71.1451817  38.4986138  33.7234282  71.1542702  38.0771017
  32.0067477  70.7681370  37.7639890  32.3055601  72.5841951  38.6926103
  33.0485678  72.9695082  39.3908763  32.4748826  73.1129789  37.7546215
  30.7035875  72.9692173  39.4348049  29.6505189  71.9287157  38.4462547
  28.6049485  72.1703053  38.6373544  29.9312520  72.0395136  37.3988700
  29.8481631  70.8621550  38.5534382  32.3780847  68.8401985  39.5113206
  31.2068987  68.4621191  39.7434258  33.4324241  68.0011940  39.2737937
  34.3347406  68.4076118  39.0719342  33.2358909  66.5489101  39.3286180
  32.5513887  66.2675858  38.5283589  34.5976186  65.9043789  39.0649772
  34.9919081  66.0927057  38.0663919  35.4070163  66.3410473  39.6500397
  34.5788813  64.4133282  39.1522574  34.0492654  63.6798573  38.0311751
  33.4250426  64.1145849  37.2645187  34.3910336  62.3241234  37.9419637
  33.9906096  61.6896296  37.1651268  35.1899409  61.6587114  38.8859320
  35.6399202  60.4229164  38.5227823  36.3004565  60.1439095  39.1611004
  35.6810856  62.3997211  39.9682450  36.3248563  61.8448162  40.6346083
  35.4222775  63.7782145  40.1020479  35.8933496  64.3381929  40.8963490
  32.6397133  65.9732580  40.6480932  31.7982268  65.0623131  40.6548500
  33.1138229  66.5170479  41.7876196  33.9050555  67.1433449  41.8301105
  32.4673843  66.2337589  43.0162954  32.5722575  65.1596785  43.1694460
  33.1464815  66.8458128  44.2882538  33.2131219  67.9326582  44.2389011
  32.5388527  66.5365314  45.1386881  34.5366836  66.3662243  44.6374702
  35.2162576  65.2727699  44.0164709  34.6308208  64.6746683  43.3338737
  36.5899277  65.0923681  44.2551088  37.0590138  64.2624807  43.7475109
  37.3013067  65.8701277  45.2041101  38.3567381  65.7433176  45.3948545
  36.6003108  66.8412066  45.8908081  37.1575427  67.3901844  46.6354609
  35.1863980  67.1010113  45.6682110  34.6225595  67.8952503  46.1347628
  30.9283471  66.5887117  43.0301476  30.2248025  65.9111309  43.8186455
  30.4722810  67.6602602  42.3473597  31.1560440  68.1962252  41.8322706
  29.0371966  67.9470968  42.3021793  28.5176992  67.5881195  43.1906366
  28.9593029  69.4890976  42.2721100  29.3914318  69.8253155  41.3296032
  27.9149175  69.7970581  42.2219276  29.5384693  70.2028418  43.4830475
  29.4412065  69.6135616  44.5849276  29.9390626  71.4434052  43.3252335
  30.1272511  72.0465231  44.1132307  30.0989628  71.8930340  42.4350834
  28.2607770  67.2478485  41.1830091  27.0503545  67.1987677  41.1578131
  29.0282917  66.7779875  40.2231932  30.0222802  66.9562435  40.2052832
  28.5420609  66.3546276  38.9028287  27.5663185  65.8769798  38.9915991
  28.4303904  67.5939894  38.0144691  27.9569125  68.4061861  38.5660625
  29.4540954  67.9617214  37.9443932  27.7440262  67.3727274  36.6262364
  28.0767083  68.1126165  35.8982325  28.1874228  66.4965296  36.1531854
  26.1769009  67.1868515  36.6900229  26.0497117  66.2040997  37.1440291
  25.7070565  67.9157305  37.3503923  25.6148458  67.3143864  35.3653288
  26.1930823  67.5312090  34.5661235  24.3214130  67.2894669  35.0786638
  23.4499669  67.2415495  36.0405564  23.8341331  67.3607779  36.9670033
  22.4682355  67.2774982  35.8060265  23.8290954  67.4497175  33.8484359
  24.3939114  67.7032566  33.0504346  22.8488731  67.2406578  33.7237239
  29.4775414  65.3465748  38.2941914  30.4084587  65.6914282  37.5451112
  29.3240595  64.1263247  38.6885142  28.5449696  63.8979435  39.2893195
  30.2643561  63.0254459  38.2039833  31.2469244  63.4039545  38.4857535
  29.9844813  61.7047834  38.8919616  30.0158453  61.9062185  39.9627280
  28.7273550  60.9809399  38.4546065  28.7926316  60.4195738  37.5225592
  28.4104753  60.3228807  39.2637062  27.9082346  61.6919041  38.3465695
  31.1271739  60.9038591  38.6999154  31.9092107  61.4562702  38.6301804
  30.1865363  62.9272175  36.6572046  31.1377311  62.4335718  35.9530520
  29.0816164  63.3846712  36.0780525  28.2944012  63.7222099  36.6132784
  28.9181519  63.2646275  34.6102810  29.6251369  62.6349735  34.0700936
  27.6900220  62.5021458  34.1919231  26.8384314  63.1809282  34.2382574
  27.8649616  62.1703291  33.1684947  27.3840189  61.4233351  34.9690294
  26.6503119  61.7198467  35.5124998  29.1535974  64.6258497  33.9694977
  28.2309723  65.2026224  33.4577751  30.3988886  65.1455688  33.9820337
  31.1671734  64.5505285  34.2573023  30.7908678  66.2826347  33.2004094
  30.2264690  67.1124506  33.6258030  32.2025943  66.7106438  33.5967588
  32.9814839  65.9906292  33.3457351  32.4922204  67.4999523  32.9030681
  32.4498200  67.0658779  35.1058722  32.3288131  66.1168146  35.6281209
  33.9628434  67.3216200  35.3975224  34.5291519  66.5957546  34.8139834
  34.3086004  68.3364964  35.2010965  34.1557527  66.9852495  36.4162183
  31.6033244  68.1659746  35.7366967  30.5321169  68.0042601  35.6163788
  31.7131686  68.1049919  36.8194342  31.8832231  69.1399908  35.3353906
  30.6884122  66.1927891  31.5833831  31.0138988  65.1319456  31.0649991
  30.2992964  67.3439455  30.9374356  30.2783036  68.6745930  31.5294766
  31.2500954  69.0631771  31.8339896  29.4980502  68.5992908  32.2868633
  29.7561693  69.5361137  30.3990197  30.5349422  69.9715710  29.7729301
  29.1663933  70.3791571  30.7589436  28.8791084  68.6383390  29.4756579
  28.7861753  69.1770458  28.5326505  27.8965569  68.6089516  29.9466467
  29.7568679  67.3194218  29.5839596  29.0948963  66.5365601  29.2137861
  30.8460116  67.2768211  28.4549522  30.5531120  67.5460196  27.3117352
  32.0852184  66.8735695  28.8331413  32.2417879  66.6357613  29.8021793
  33.0534363  66.4886951  27.7741909  32.5994182  66.5218925  26.7838049
  34.0700078  67.6736975  27.5405717  34.8820066  67.5153637  26.8308568
  33.4431219  68.4419012  27.0878243  34.7162127  68.1385183  28.7714410
  35.8746123  67.6772356  29.3123007  36.4734554  66.9189596  28.8298035
  36.1348152  68.3400726  30.4636669  36.9489241  68.1870317  31.0415149
  35.1828218  69.2340708  30.8065605  34.9142647  70.1058722  31.9012380
  35.5257058  70.1117039  32.7914667  33.7623739  70.9155703  31.8871164
  33.4447479  71.5049791  32.7345300  33.0798221  71.0974693  30.7021165
  32.4002767  71.9365501  30.7258654  33.2837152  70.1880503  29.6225309
  32.6935625  70.3040314  28.7254953  34.2865825  69.2062473  29.6453357
  33.6564541  65.0814295  27.9998660  34.7099781  64.8727989  27.3376060
  33.1577349  64.2264462  28.9107728  32.3683143  64.5290136  29.4633722
  33.9110255  63.0360842  29.2945099  34.8884320  63.4225607  29.5833325
  33.1405282  62.3254538  30.4182553  32.0626140  62.4153852  30.2836514
  33.4875011  61.2921524  30.4185009  33.6646819  62.8945112  31.7284298
  34.7307539  62.7760029  31.9221854  33.4644222  63.9658403  31.7125034
  32.8504729  62.4175596  32.8969097  31.8833470  61.6639185  32.8505826
  33.0560184  62.8826809  34.0978599  32.4347949  62.4175215  34.7442389
  33.9521408  63.2552004  34.3776584  34.1757965  62.0192242  28.0946612
  35.2090740  61.3231659  28.1208420  33.2957840  61.9818211  27.0563126
  32.4079585  62.4597740  27.1149063  33.4461427  61.1524868  25.8278871
  34.4846296  60.8362961  25.7295537  32.8166533  60.2798843  26.0022664
  32.8912139  61.9292784  24.5573950  31.7707705  62.4075127  24.4717669
  33.7288070  61.9973326  23.5208392  34.6710730  61.6388273  23.5817051
  33.5688949  62.6065874  22.2051501  32.5150585  62.8027296  22.0075083
  34.4984889  63.8471985  22.1813822  35.4981947  63.5640097  22.5107574
  34.5414901  64.0813780  21.1177039  34.0363431  65.1828098  22.8205252
  34.8545957  65.8612537  22.5791001  32.7678061  65.7144403  22.2639108
  32.8013778  65.6000042  21.1804533  31.8439054  65.2166796  22.5584364
  32.6657653  66.7542648  22.5744820  33.8663840  65.2544308  24.3202496
  33.0736876  64.6444559  24.7534609  34.7375202  64.8946381  24.8677635
  33.7969518  66.3123417  24.5734382  34.0396309  61.6147280  21.1679769
  35.2052522  61.1473036  21.2256932  33.2287812  61.3448858  20.1595950
  32.4931049  62.0168829  19.9943745  33.8013363  60.6653690  18.9357412
  34.1894078  59.7065973  19.2796409  32.7005935  60.3228712  17.8936505
  31.8433857  60.0600195  18.5134947  32.3821902  61.2169504  17.3576128
  33.0692935  59.2798424  16.8512809  33.8918209  59.6250725  16.2248921
  33.4148717  58.4728432  17.4973679  31.8795538  58.7046957  16.1351538
  32.0279193  57.7126122  15.7087004  31.1203551  58.5922909  16.9091570
  31.3690901  59.7393608  15.1043379  31.5415049  60.7400513  15.5005598
  31.9898200  59.7626352  14.2086506  29.9063802  59.5940256  14.8609030
  29.6980119  58.6060429  14.8849690  29.4084787  60.0520086  15.6108654
  29.4974661  59.9702215  14.0174723  34.9572420  61.4652348  18.3291316
  34.7836518  62.6889515  18.2943594  36.0514975  60.8310509  17.8984225
  35.9497070  59.8299599  17.9854119  37.2676802  61.3517332  17.1726418
  36.8928003  61.9134378  16.3170385  38.0979300  62.2319412  18.0952978
  38.8875365  62.6482677  17.4697638  37.4749041  63.0853653  18.3628893
  38.4125710  61.5614223  18.8949895  38.1975961  60.1760101  16.7268085
  38.5929179  59.3147182  17.4382055  38.6324763  60.2576637  15.4587448
  38.2382274  61.0078144  14.9092472  39.5493364  59.2499685  14.8779857
  39.2539239  58.2143068  15.0460267  39.4770145  59.4460344  13.4509385
  39.7577190  60.4766846  13.2339835  40.0043535  58.7252474  12.8260541
  38.4306717  59.2604876  13.2083666  40.9317827  59.3493128  15.3964424
  41.7300844  58.4256744  15.4602230  41.3393497  60.5610847  15.8842671
  40.6455946  61.2772131  16.0454118  42.7339697  60.9567118  16.2876773
  43.3339596  60.0667572  16.4776576  43.5042381  61.8665075  15.3400290
  44.4776011  61.8464041  15.8301926  43.6686516  61.3610744  13.9103723
  44.2643976  60.4483891  13.8965046  42.7613926  61.2501049  13.3165085
  44.3111563  62.0496130  13.3615601  43.0162048  63.1913567  15.3560531
  43.5718298  63.7735415  14.8326612  42.7294064  61.5349007  17.7534533
  41.7545891  62.1287775  18.1579566  43.8482094  61.4027834  18.4914947
  44.6336937  60.8035135  18.2817650  44.0205145  62.1986580  19.7892261
  43.3215666  61.9083929  20.5736494  45.3619814  61.8645096  20.4813004
  46.1077499  62.0929670  19.7198963  45.4979134  62.5340700  21.3306022
  45.5371666  60.4192305  20.8862901  44.8827028  60.1617098  21.7190337
  45.3173780  59.7639847  20.0434089  46.9514751  60.0248098  21.2707257
  46.9895411  58.9424467  21.3937736  47.5517845  60.1066637  20.3646159
  47.4585152  60.8254147  22.5654554  47.2566795  61.8753529  22.3533487
  46.8041801  60.5352163  23.3874893  48.8947821  60.5041265  22.9333639
  49.0690136  60.4324484  23.9256334  49.2358446  59.6736908  22.4705982
  49.4953108  61.2703085  22.6642251  43.9305592  63.6743879  19.5580482
  43.1502914  64.3312168  20.2405119  44.6181536  64.1175318  18.5419798
  45.1958942  63.4365129  18.0702531  44.5964766  65.5242586  18.1401324
  44.8627996  66.0946465  19.0299821  45.5181932  65.9180784  16.9438851
  46.5445900  65.7855082  17.2859943  45.3654385  65.2081442  16.1310112
  45.4125881  67.3777485  16.4873421  46.2662601  67.4654818  15.8152938
  44.4653511  67.4814749  15.9581149  45.5191040  68.4286022  17.5998068
  44.4786787  68.5120535  17.9138899  46.1397743  68.0605793  18.4167719
  46.0673094  69.7889042  17.1401012  47.1052170  69.6076727  16.8608057
  45.3761721  70.1645517  16.3855731  46.0079288  70.7886076  18.2779264
  46.2128067  71.6868162  17.8639877  45.1549768  70.6741810  18.8065898
  46.7469597  70.5883074  18.9365745  43.1581497  66.0867786  17.8998184
  42.7748585  67.0297956  18.5351872  42.3616695  65.4246950  17.0057762
  42.6492310  64.5352745  16.6232324  40.9496641  65.7823372  16.8483925
  40.9624481  66.8393660  16.5826213  40.1854086  64.8872375  15.8273244
  40.5881262  64.9408674  14.8158681  40.2146006  63.8766575  16.2347353
  38.6885691  65.2900124  15.8149004  38.1910896  65.2004671  16.7806101
  38.5894012  66.3396358  15.5382133  37.8810596  64.4173193  14.8547292
  38.1549740  63.2251501  14.7136068  36.7329931  64.8851109  14.4984353
  36.0800600  64.3286085  13.9654350  36.5294719  65.8576202  14.6798182
  40.2641392  65.7104158  18.2409012  39.4743395  66.5632105  18.4976780
  40.5069160  64.7778416  19.1211450  41.1835337  64.0902185  18.8220334
  39.8102474  64.6241665  20.3837132  38.7397957  64.7502422  20.2214146
  40.1052952  63.1975222  21.0197210  40.1560211  62.4564791  20.2219844
  41.1185122  63.2020426  21.4215517  39.0405703  62.8304720  22.0839548
  39.2074680  63.5504866  22.8850961  38.0304885  62.8105450  21.6747642
  39.2089558  61.4736891  22.6600695  39.2317581  60.7514524  21.8440104
  40.1485300  61.4723682  23.2126069  38.1143498  61.3513613  23.7498736
  38.1578445  62.2161388  24.4119668  37.1172214  61.3519144  23.3096099
  38.2327318  60.0961304  24.4301248  39.1764283  59.7374582  24.4601679
  37.8568482  60.1394987  25.3665709  37.6950455  59.4034195  23.9289808
  40.0654697  65.8109713  21.3214445  39.1609883  66.3643932  21.9738340
  41.2980652  66.3671064  21.2836289  41.9726706  65.8272552  20.7605910
  41.6029692  67.6577663  21.9398904  41.1547375  67.6314116  22.9331207
  43.1033278  67.8009605  22.0628119  43.5490370  68.1360483  21.1262465
  43.4120274  68.5826969  22.7568531  43.8432932  66.5338278  22.4850512
  43.2864141  65.8023834  23.5648489  42.4146128  66.2005377  24.0626717
  43.9223719  64.7280455  24.0695572  43.5796070  64.2728329  24.9869967
  45.1670456  64.3110514  23.5611296  45.8765316  63.3303308  24.0909410
  45.3939009  62.7488136  24.6829772  45.7544136  65.0252056  22.4865627
  46.7867041  64.8501301  22.2217393  45.1274157  66.1475563  21.9673252
  45.5164385  66.7132711  21.1336374  40.9762621  68.8562298  21.3069654
  40.4684067  69.7323942  21.9890618  40.8260965  68.8787127  19.9809933
  41.2053585  68.1117725  19.4442761  39.9335551  69.7986364  19.3386316
  40.3448629  70.7851171  19.5526063  40.1842690  69.7954845  17.8223920
  41.2710238  69.8468256  17.7558815  39.9246144  68.8367891  17.3734152
  39.4885325  70.9932661  17.0724738  39.6682143  70.8445406  16.0077226
  38.4259748  70.8943939  17.2944963  39.9821424  72.4252892  17.5196040
  41.2287474  72.4367619  17.5430322  39.1728067  73.3382559  17.8417563
  38.4214854  69.6995687  19.7463441  37.8619027  70.6791544  20.1957726
  37.8780961  68.4715366  19.7757900  38.5059500  67.7357435  19.4850814
  36.4908719  68.2074785  20.2017689  35.7814312  68.8253069  19.6512449
  36.1303139  66.7193556  20.0433445  36.8062663  66.0363150  20.5577803
  35.1888394  66.5852165  20.5760169  35.9783602  66.0916328  18.6438155
  36.9497609  66.2395144  18.1719983  35.7502484  65.0330877  18.7684858
  34.8434520  66.8953085  17.9392314  34.0969110  66.9578362  18.7309802
  35.1297212  67.8653812  17.5328946  34.1544533  66.0999680  16.7684507
  33.4786654  66.7677164  16.2341034  34.9029350  65.7576847  16.0538089
  33.3392859  64.9113274  17.2521877  33.9938140  64.1538286  17.3859406
  32.7730465  65.0820971  18.0709124  32.7438545  64.6859360  16.4681208
  36.3122821  68.6515331  21.6726732  35.2564073  69.1107035  21.9661689
  37.3353004  68.4298038  22.5202250  38.1710529  67.9895306  22.1627617
  37.2272134  68.8531971  23.8913131  36.2752223  68.5475731  24.3253732
  38.2268119  68.2441902  24.8507190  39.2441010  68.3799648  24.4835711
  38.1554389  68.7960720  26.3383031  37.1000957  68.7133408  26.5981293
  38.7639451  68.1560516  26.9772053  38.3751869  69.8594809  26.4330363
  38.0290508  66.7244816  24.9446297  37.2529817  66.4675903  25.6656194
  37.6266336  66.3303423  24.0114522  39.3770289  66.0505199  25.2854943
  39.1824007  64.9811602  25.3673482  40.1601505  66.3233566  24.5781136
  39.7603536  66.3489389  26.2612557  37.2710252  70.4346657  23.9558601
  36.5934849  71.0792971  24.7258449  38.1270909  71.1181498  23.1617355
  38.6569858  70.6196594  22.4611545  38.2486749  72.5981808  23.1469774
  38.3455062  72.9545832  24.1725016  39.3895078  73.0866337  22.3303485
  39.2562151  72.8716087  21.2701130  39.4712019  74.1551495  22.5296044
  40.5886364  72.4599743  22.8110528  40.5949354  71.5316153  22.5667095
  36.8888903  73.2408857  22.6715851  36.3838077  74.0665102  23.4230828
  36.2979531  72.8159571  21.5317464  36.9316745  72.3141813  20.9261703
  34.8998904  73.0726910  21.1109495  34.8384500  74.1319132  20.8611941
  34.5614123  72.1471262  19.9922633  34.8169065  71.1294651  20.2875233
  33.4889007  72.1017075  19.8031712  35.1948333  72.5315094  18.7030363
  36.2693644  72.6976490  18.7797093  35.1275373  71.5890217  18.1596315
  34.5132613  73.6663914  17.9267037  33.6630726  74.3779993  18.5059595
  34.9775028  74.0112591  16.8150306  33.8076496  72.7170420  22.1845722
  32.9062057  73.5477066  22.4135280  33.9414907  71.5815258  22.9419971
  34.6316791  70.8912325  22.6826978  32.9941392  71.1995268  24.0252542
  32.0058823  71.3171005  23.5806990  32.9926920  69.6137476  24.2513680
  33.0902100  69.2441177  23.2306027  33.8274026  69.2501211  24.8506474
  31.7139888  69.1714954  24.9652910  31.7352557  68.0895042  25.0954890
  31.6877770  69.6120834  25.9619331  30.3673005  69.4503736  24.2879486
  30.1153493  70.5080748  24.2111802  30.4366755  68.9748240  23.3096123
  29.2035675  68.8350868  25.0898862  29.3461108  67.7554464  25.0434566
  29.1494942  69.1875648  26.1199069  27.9557323  69.1605568  24.3559337
  27.1540713  68.8991165  24.9118972  27.7663326  70.1459503  24.2409158
  27.9119444  68.6850166  23.4659648  33.1066322  72.0064259  25.3213668
  32.0813060  72.3948526  25.8378196  34.2503095  72.4359226  25.7420564
  35.0728846  72.0645475  25.2886820  34.5593834  73.5238791  26.6928530
  33.9676046  73.3716345  27.5954723  36.0466242  73.4740686  27.1347308
  36.7004108  73.2889938  26.2824345  36.3329458  74.4428730  27.5440478
  36.1911273  72.3043156  28.1232381  35.5271101  72.2834015  28.9873815
  36.1625743  71.3191319  27.6577330  37.6972294  72.3022556  28.5622072
  38.4660339  72.0114326  27.8463435  38.0758214  73.2945585  28.8073754
  37.9741192  71.3394499  29.6778464  37.4833560  70.3805304  29.5113397
  39.0365887  71.0994053  29.6373248  37.6193786  72.0147753  30.9955382
  37.8756166  71.3964796  31.7519450  38.0993557  72.8956413  31.1130166
  36.6338801  72.2234201  31.0687613  34.1077948  74.8958778  26.1833286
  33.3598089  75.6070852  26.8049622  34.4873142  75.2592754  24.9900031
  35.0180888  74.5960951  24.4435835  34.0528989  76.5075731  24.3338847
  34.2865968  77.3371315  25.0012088  34.9298429  76.7798615  23.0587697
  35.9823060  76.7735672  23.3422923  34.6955848  75.9925079  22.3423243
  34.5940518  78.1394243  22.4496317  33.6258888  78.0104542  21.9657516
  34.5714712  78.8943481  23.2355571  35.9100723  78.6197662  21.2995195
  35.2599907  77.6277256  19.9485934  35.7912517  77.6878071  18.9987254
  35.3208780  76.6005707  20.3082490  34.1990519  77.8210735  19.7900987
  32.5876737  76.6596222  24.0498424  32.1119404  77.8149080  23.9717245
  31.8817210  75.5740690  23.7819099  32.4275899  74.7284698  23.6977172
  30.4030299  75.5681276  23.8129401  30.0170779  76.5491962  23.5360718
  29.9090719  74.5811701  22.8064060  28.8232279  74.6173286  22.7184367
  30.3319693  74.8680210  21.8436122  30.3034306  73.2515335  23.0332232
  31.2087369  73.1953239  22.7188039  29.8506999  75.2380276  25.1927233
  28.6421752  75.4072094  25.3352666  30.6261110  75.0061417  26.2803388
  31.5769148  74.6913338  26.1500716  30.0416565  74.9048662  27.6329565
  29.0204024  75.2837086  27.6732540  30.0895905  73.4058380  28.1804252
  31.1121082  73.0431080  28.2852411  29.4505143  73.4080315  29.5420790
  28.7634587  74.2534733  29.5062137  28.8593030  72.5212860  29.7706676
  30.1571465  73.6551666  30.3343487  29.4641685  72.5697613  27.3031998
  30.0400043  72.4403095  26.5460634  30.7972765  75.9089422  28.5756779
  31.6754150  75.5515051  29.3740010  30.4043269  77.2261381  28.4717989
  29.5756984  77.7749205  27.3784089  28.5520816  77.4227142  27.5059271
  29.8803496  77.5162125  26.3643289  29.5037913  79.3234730  27.5000930
  28.4817982  79.6609020  27.3275352  30.3120041  79.7887135  26.9357872
  29.8707151  79.5392561  28.9563847  28.9707589  79.6652126  29.5583105
  30.4187560  80.4812813  28.9377761  30.6888223  78.3596325  29.3860197
  31.7222524  78.7022209  29.3335152  30.4997492  78.0641079  30.8567381
  29.8265576  77.1419239  31.2708044  31.2241697  78.7364244  31.7030764
  31.6671824  79.5403385  31.2816906  31.2622404  78.5925531  33.1436086
  31.7371202  77.6430559  33.3906889  32.2344160  79.6449947  33.7317419
  31.7965102  80.6316376  33.5804915  32.3471212  79.4336271  35.2413583
  32.4810910  78.3851385  35.5075026  33.1912184  79.9729681  35.6711435
  31.4410782  79.7739649  35.7427120  33.6397767  79.5452738  33.2061434
  33.7882876  79.4043875  32.1355367  34.1587090  80.4377460  33.5558867
  34.1395736  78.6870527  33.6553192  29.9982214  78.6804152  33.9127207
  29.7114635  77.8807783  34.8269916  29.1138291  79.6010017  33.5812354
  29.3960238  80.4314041  33.0803418  27.7185774  79.7288704  34.0635753
  27.7497053  79.5770645  35.1425028  27.1012783  81.0669804  33.7934995
  26.1445165  81.0939980  34.3150139  27.7460241  81.6898823  34.4134998
  27.0328999  81.7417431  32.4490857  26.5042710  81.1412716  31.7087531
  26.3770890  82.5867844  32.6586199  28.2689500  82.2767448  31.7426133
  28.1230164  82.8381252  30.6175685  29.4359851  82.1441555  32.1737456
  26.7684793  78.5862827  33.5739970  25.7515192  78.3198166  34.2257452
  27.1332431  77.9140139  32.4936938  27.8617764  78.2665634  31.8894982
  26.3741803  76.7274570  32.0429063  25.3474808  76.7671537  32.4067903
  26.3536239  76.6957760  30.5006957  27.3975968  76.6511202  30.1904941
  25.7138348  75.4565239  29.9239087  25.6371641  75.6129980  28.8479280
  26.3746881  74.6232224  30.1626325  24.6974492  75.3368711  30.2990675
  25.5035019  77.9389048  29.9890542  25.8835387  78.9365721  30.2088833
  25.5774879  77.9323053  28.9015889  24.5393205  77.7529383  30.4621959
  26.9014978  75.4234552  32.6452589  26.0846257  74.5272827  32.9771781
  28.2226062  75.2123165  32.6662493  28.8989830  75.8851147  32.3346543
  28.7926769  74.1716194  33.5082412  28.5375667  73.1952858  33.0961752
  30.3068900  74.3457794  33.4701276  30.7054329  74.1560125  32.4735093
  30.5156898  75.3937674  33.6851382  31.0147858  73.5192394  34.5443916
  30.5515885  73.8052797  35.4887080  30.9198046  72.0219517  34.4425797
  31.6309333  71.5445995  35.1167631  29.9116898  71.6601992  34.6449137
  31.1930943  71.7540693  33.4219646  32.4604940  73.8844538  34.6816850
  32.5715995  74.9685335  34.6587729  32.8668261  73.4886742  35.6124663
  33.0553651  73.6144066  33.8091588  28.2817602  74.0936279  34.9842405
  27.9248953  73.0017138  35.4875898  28.1853008  75.2530909  35.6650305
  28.5079336  76.0808325  35.1845574  27.9161358  75.4924870  37.0445752
  27.9930806  74.5770693  37.6312566  28.9049029  76.5035105  37.5996399
  28.6141253  77.4390507  37.1218252  28.7042379  76.6554403  38.6601830
  30.6079435  76.0098314  37.4112487  30.4685879  74.7128105  37.6997232
  26.4628100  75.9321404  37.2117257  26.0891819  76.3424969  38.2728863
  25.5456090  75.7254410  36.2678385  25.9622693  75.3053761  35.4492784
  24.0976906  75.8193159  36.3545728  23.9845586  76.8211460  36.7688656
  23.4054804  75.9023905  35.0008440  22.4800539  76.4077473  35.2770638
  23.9360619  76.5442991  34.2976117  23.1604290  74.5618534  34.3795228
  24.0690899  73.9603806  34.3536377  22.3602104  74.0288591  34.8930025
  22.6882005  74.7149611  32.9490614  21.7553282  75.2773952  32.9101348
  23.3984947  75.3482819  32.4175692  22.6284742  73.4049368  32.1269894
  22.2814679  73.7307358  31.1464071  23.6026525  72.9296112  32.0123434
  21.6355443  72.4609041  32.7223945  21.4325452  71.6953468  32.0956492
  21.9851804  72.0215607  33.5619378  20.8038735  73.0012512  32.9132915
  23.4450150  74.9680710  37.4454093  23.7492323  73.7691927  37.4694180
  22.4249220  75.4657745  38.0959916  22.1385574  76.4301348  38.0059719
  21.7567420  74.5681667  39.0536165  20.8383060  75.0923300  39.3178797
  21.6379738  73.5934830  38.5803413  22.5471759  74.4069958  40.3296185
  22.2822762  73.4317255  41.0603285  23.5216713  75.3438997  40.6057978
  23.5917473  76.0636616  39.9007201  24.5428443  75.2875662  41.7532158
  24.1417480  74.8014498  42.6425505  25.7901955  74.4919872  41.2797642
  26.1126471  74.7446966  40.2696848  26.6599083  74.8268270  41.8450832
  25.5896664  72.9891443  41.3442087  25.6721449  72.3874712  42.6053619
  25.8197999  72.9224443  43.5318613  25.4164720  70.9750652  42.6464319
  25.3353691  70.5658674  43.6426163  25.2372527  70.2359819  41.4606667
  25.2769804  69.1639900  41.5857792  25.2736163  70.8698273  40.1828146
  25.1199508  70.3547478  39.2460728  25.5147314  72.2580862  40.1468372
  25.3262591  72.7761841  39.2181468  24.9104667  76.7372751  42.0821142
  24.9710488  77.5619888  41.1676264  25.3062892  76.9809246  43.3576202
  25.5500889  76.0360909  44.4290781  26.1919117  75.1815319  44.2148304
  24.5887423  75.6954575  44.8136377  26.1997557  76.8659019  45.5659056
  27.2643733  76.8986654  45.3343534  26.1820889  76.4453936  46.5713692
  25.6241059  78.2045174  45.4122782  26.3276720  78.9460707  45.7906818
  24.6755695  78.2307053  45.9486532  25.4743361  78.3188486  43.8727474
  24.5862842  78.8846397  43.5910606  26.6990852  78.9575911  43.2581377
  27.6788282  78.2909822  42.8594685  26.5995502  80.2881908  43.2410192
  25.7711506  80.7142353  43.6313248  27.4648309  81.1047077  42.3692417
  27.2320366  80.7363224  41.3701439  26.9235754  82.5302505  42.5214720
  26.9115710  82.7128792  43.5960007  27.5499249  83.2764053  42.0325565
  25.9388781  82.7422428  42.1049070  28.9714622  81.0868263  42.6001596
  29.6644688  81.3911724  41.6372490  29.4478893  80.7867336  43.7957478
  28.8214970  80.5034351  44.5356703  30.9075260  80.6995678  44.1814089
  31.4507961  81.6385078  44.2878866  31.0201049  80.0732422  45.5719280
  30.3955626  79.1973209  45.7474518  32.0786572  79.8257828  45.6515360
  30.8412910  80.9739876  46.7961359  31.1359692  80.4389191  47.6988935
  31.5991807  81.7570210  46.7721605  29.4775558  81.5134716  46.9901228
  28.4429383  80.9729290  46.5358591  29.3434930  82.6087093  47.5959730
  31.7468309  79.7650194  43.3011580  32.8349233  80.1936913  42.9142952
  31.2940574  78.5491276  42.8497791  30.3367877  78.3366299  43.0918026
  32.0259023  77.5908375  41.8745136  32.9419208  77.2710514  42.3712587
  31.1566973  76.3197041  41.5370989  30.1638889  76.6028261  41.1874151
  31.7619419  75.8521318  40.7604647  31.0270309  75.3428221  42.6573706
  32.0788503  74.4936371  42.9799843  32.9108334  74.3740177  42.3018312
  32.1167040  73.8219786  44.1785717  32.9654741  73.2069302  44.4387770
  31.0623503  73.9802122  45.0769806  31.0661888  73.4726858  46.0302925
  30.0207472  74.8393059  44.7682571  29.1937399  75.0118637  45.4410839
  29.9656677  75.5283356  43.5481644  29.1576672  76.2431383  43.4971952
  32.3420000  78.3224630  40.5454063  33.5101438  78.4209204  40.1060486
  31.3353109  78.9725637  39.8998427  30.3868890  78.8931847  40.2379179
  31.5314865  79.8251963  38.7792182  32.1205163  79.3443632  37.9982305
  30.1537061  80.2176666  38.2165933  30.2791357  80.7695198  37.2850180
  29.5478463  79.3398285  37.9920173  29.6404219  80.8810520  38.9126992
  32.2471690  81.1848068  39.0041399  32.8278899  81.7009640  38.0247784
  32.2049832  81.7369270  40.2437735  31.5207410  81.3440895  40.8743238
  33.0758548  82.8915691  40.6417751  32.9650784  83.6003113  39.8210931
  32.5735593  83.6046314  41.9901800  32.5008154  82.9447556  42.8546810
  33.2226419  84.4397831  42.2534609  31.2488627  84.3125629  41.8143320
  31.0629249  84.3530941  40.7410717  30.4932737  83.6961937  42.3014498
  31.1288905  85.9748077  42.5835371  30.5340767  85.4437828  44.2121029
  30.0435567  86.3248730  44.6258307  29.7166634  84.7315884  44.0993690
  31.3016534  84.8765278  44.7385502  34.5440793  82.5642586  40.7108974
  35.2996874  83.2312298  39.9837732  34.9788022  81.4767361  41.4229584
  34.2158556  80.9103775  41.7653704  36.3301969  80.7754135  41.3299084
  37.0852351  81.4951897  41.6460514  36.3257837  79.5693302  42.2833347
  36.1501646  79.8582220  43.3195782  35.4128599  79.0049124  42.0933104
  37.4264431  78.6652565  42.2048330  37.8103518  77.9589176  41.0214853
  37.2019029  77.9966164  40.1299858  38.8855004  77.0470953  41.0517883
  39.0719891  76.5193319  40.1281595  39.6334076  76.7884016  42.2060108
  40.6508636  75.9962988  42.2111511  40.8257866  75.5636740  41.3721991
  39.2258263  77.3723459  43.4030056  39.6188807  77.0640278  44.3605280
  38.0936265  78.2723045  43.3760881  37.8668308  78.7579012  44.3137264
  36.6681004  80.5082417  39.8693705  37.7606225  80.8665657  39.4168830
  35.8041215  79.8630476  39.0798783  34.9739838  79.5276499  39.5473003
  36.1650586  79.3498707  37.7608442  37.1688032  78.9394903  37.8712583
  35.1858711  78.2651281  37.2652769  34.1675568  78.3234406  37.6496410
  35.2149248  78.4088135  36.1851764  35.3850269  76.7269468  37.4760675
  35.3094673  76.6177368  38.5579491  34.2938662  75.9495544  36.7039728
  33.3139420  76.3839197  36.9019032  34.4360900  75.9227896  35.6236219
  34.3256378  74.9588585  37.1574163  36.7961287  76.2835979  36.9909143
  37.6023459  76.8046522  37.5072742  37.0093060  75.2215052  37.1117926
  36.7957520  76.4749193  35.9178376  36.3278103  80.4250717  36.7174578
  37.3481727  80.4910183  35.9999871  35.3780603  81.3957882  36.7062235
  34.5507812  81.2777901  37.2734857  35.4548764  82.6030159  35.8794284
  35.5495858  82.3073292  34.8345876  34.2137504  83.5094452  36.0657263
  33.2780862  82.9822922  35.8793402  34.2185688  83.6408043  37.1477771
  34.2813253  84.8448086  35.4030919  34.4570041  84.8614502  34.2068744
  34.3168116  85.9844589  36.0429811  34.3251967  86.8618679  35.5427837
  34.1979599  85.9591389  37.0456433  36.6980243  83.4335041  36.2638617
  37.4370623  83.8304806  35.3986311  37.1573424  83.4150887  37.5367737
  36.6349435  83.0884266  38.3370829  38.3594012  84.1347790  37.9144263
  38.4245658  85.1305485  37.4759102  38.3136392  84.2896748  39.4373035
  37.6366973  85.0936222  39.7263122  38.0410051  83.3553791  39.9280882
  39.6704745  84.6213245  40.1246691  39.9788880  85.9475803  40.4871941
  39.1587758  86.6321468  40.3285217  41.2056351  86.3100910  41.0971594
  41.4030504  87.3493385  41.3148737  42.2154760  85.3264809  41.1530495
  43.4731245  85.6765556  41.5016842  43.7237549  86.5796089  41.2936449
  41.9645071  84.0190411  40.7223511  42.6562834  83.2016468  40.8627033
  40.7001734  83.6839581  40.2391911  40.5348110  82.6667309  39.9162269
  39.5507216  83.3601570  37.4452329  40.3311396  83.9542770  36.7136049
  39.6762419  82.0463276  37.6422167  38.9763999  81.5921879  38.2114959
  40.8389807  81.2011147  37.2147155  41.7630053  81.7459869  37.4081111
  40.8834839  79.8338461  37.8691864  40.0566435  79.1840553  37.5824618
  41.7920017  79.3453407  37.5169659  40.9543037  80.0988960  39.6746516
  39.6611977  79.8192739  39.8606634  40.9196997  81.1676598  35.6883168
  42.0303202  81.0186100  35.1423573  39.7610068  81.2285423  34.9980569
  38.9021230  81.1906052  35.5281353  39.6142626  81.2049770  33.5442400
  40.2350616  80.4175377  33.1168818  38.1437325  80.9388733  33.0394650
  37.4402642  81.4484978  33.6978841  38.1126618  81.3819408  32.0440674
  37.7259207  79.4674158  32.8505540  38.1704235  78.8155174  33.6025810
  36.6495991  79.3646383  32.9886580  38.0312276  78.9628601  31.4634991
  37.5827789  77.9700279  31.4276481  37.4498010  79.5760775  30.7750154
  39.4207883  78.7865305  31.1668301  39.8058128  77.8854847  31.4117217
  40.2616405  79.5595169  30.5492878  39.9321747  80.6981754  29.9970937
  38.9792919  81.0256863  30.0667357  40.6599712  81.2019157  29.5106196
  41.4861727  79.2788029  30.4422092  41.7356062  78.4685040  30.9911180
  42.1631002  79.9547100  30.1181388  40.2055216  82.5485039  32.9228139
  41.2175798  82.4426079  32.2044563  39.8814368  83.6697483  33.5408497
  39.2618060  83.6770535  34.3384147  40.5744696  84.9206829  33.3407187
  40.6865692  84.9925613  32.2588825  40.0564289  85.8057880  33.7099481
  41.9555902  85.1492882  33.9350295  42.5450468  86.1574078  33.5264826
  42.5000525  84.2178249  34.6965551  42.0010900  83.3646011  34.9042535
  43.8179684  84.4907475  35.3238416  43.8899231  85.5389404  35.6140375
  43.9770126  83.7591362  36.6601682  43.0920124  83.8438511  37.2908020
  44.0196609  82.6839256  36.4863467  45.2442503  84.1542721  37.5199461
  46.1152506  84.3134499  36.8842387  44.8991680  85.4990959  38.2009673
  44.0695429  85.4302120  38.9045858  45.8075237  85.7728958  38.7376499
  44.6754122  86.2430382  37.4363828  45.6333256  83.1075954  38.5933304
  45.8124876  82.1403885  38.1237578  46.5055513  83.4331799  39.1601849
  44.7536612  83.0618954  39.2353582  45.0711203  84.3174458  34.4457603
  45.3151178  83.1540203  33.9949536  45.8697844  85.3538227  34.1614199
  45.5211926  86.2252522  34.5345259  46.9920921  85.5393887  33.2434392
  46.6448259  85.4166031  32.2175598  47.6651478  86.9094849  33.3986950
  47.7279663  87.1891117  34.4503427  48.6979294  86.8243980  33.0607200
  47.0525026  88.0737591  32.5672174  46.0430813  88.2522392  32.9377866
  47.6055956  88.9921284  32.7641726  47.0815039  87.7943611  31.0409045
  46.4453077  86.9476128  30.7832551  46.6916180  88.7050915  30.5863166
  48.4972572  87.6573086  30.6880236  49.1289759  87.4207115  31.4397240
  48.9713621  87.7989674  29.4753981  48.2362413  88.1355953  28.3910298
  47.2690153  88.3818150  28.5457778  48.8502359  88.3841228  27.6285672
  50.2878046  87.7205181  29.3090630  50.9568787  87.6325035  30.0605273
  50.6451893  87.9373264  28.3896232  47.9958439  84.4190788  33.5425043
  48.1793308  84.0772915  34.6810532  48.6052322  83.8409424  32.4851394
  48.4639835  84.3008804  31.5971017  49.7369766  82.9574776  32.4971437
  49.2592382  82.0209599  32.7849126  50.2820969  82.8449440  31.0593557
  49.5718956  82.4848843  30.3149962  50.5630779  83.8715744  30.8244562
  51.5999699  82.0699120  30.8897948  51.6763687  80.7328987  31.2956858
  50.8398390  80.3245163  31.8432641  52.8139925  79.9311924  31.0632014
  52.9433823  78.9369011  31.4645052  53.8468361  80.5195332  30.2450228
  54.7603512  79.9615097  30.1018524  53.7557077  81.8624306  29.8566151
  54.5342255  82.3580933  29.2956996  52.5981379  82.6773071  30.1948953
  52.5866604  83.7143421  29.8934960  50.8554125  83.2340050  33.5591364
  51.3357687  82.3540974  34.2190552  51.1530733  84.5104790  33.8207054
  50.7013607  85.2479458  33.2989645  52.0882082  84.9305344  34.8878837
  52.8735495  84.1758060  34.9294209  52.6314735  86.3052177  34.4903278
  51.8926620  87.0915127  34.6452427  53.4564829  86.5437698  35.1615620
  53.2436180  86.3700962  33.0597901  53.9921904  87.1562481  33.1583643
  53.8335562  85.4907990  32.8011131  52.2219896  86.5337944  31.9788766
  51.0083055  86.7504025  32.1786475  52.7146816  86.6958618  30.8019280
  51.5629721  85.0217152  36.3309550  52.3287630  84.9307632  37.2889233
  50.3474808  85.5502987  36.4996982  49.7635794  85.6129646  35.6779671
  49.8295355  86.0445881  37.8713727  50.5851889  86.7174149  38.2768321
  48.5164785  86.8653393  37.6572108  47.6878071  86.2870884  37.2485209
  48.1709576  87.2675800  38.6095333  48.7856102  88.1518459  36.7963767
  49.2096138  87.8885937  35.8273435  47.9388905  88.8198471  36.6384721
  49.7510958  89.1809464  37.5001478  50.3645611  90.0476551  36.7943144
  49.6839666  89.1687489  38.7497640  49.5121050  84.9409580  38.8649631
  49.4758987  83.7564659  38.4989905  49.5033884  85.3064537  40.1688671
  49.7850323  86.2368584  40.4429626  49.1110468  84.4090176  41.2890005
  49.5066357  83.4101200  41.1050749  49.8193502  84.9317265  42.4794197
  49.3656206  84.6900463  43.4405708  50.8074856  84.4732094  42.4413824
  49.8636055  86.0205173  42.4532080  47.6111937  84.2838573  41.4986658
  46.9212580  85.3191090  41.6139936  47.1294546  83.0196762  41.7921877
  47.8809881  81.7432213  41.5522671  48.4746599  81.5041924  42.4346066
  48.4068346  81.7910099  40.5986929  46.8370247  80.6579113  41.5573359
  47.1703959  79.6865892  41.9227171  46.5167284  80.6159401  40.5163002
  45.7188129  81.3226795  42.3871088  45.8606243  80.8954430  43.3798122
  44.7201014  80.9391594  42.1783400  45.8312130  82.8069878  42.3860168
  45.0699615  83.3061123  41.7864656  45.6448030  83.3777809  43.7617350
  46.5494967  83.4043312  44.6161032  44.4468737  83.8346863  44.0042067
  43.6938763  83.8196182  43.3312511  44.1184759  84.4388199  45.2383137
  45.0606108  84.8445320  45.6069422  43.3357573  85.7444859  44.9795151
  43.7923956  86.3578224  44.2027235  42.2991180  85.5870342  44.6817207
  43.4115362  86.6277885  46.2304544  42.8523493  87.7677155  46.1504602
  43.9481497  86.2724018  47.3049736  43.5239315  83.3735752  46.1628819
  42.3782921  83.4838581  46.4997530  44.3294382  82.3266983  46.5460539
  45.3105736  82.2982502  46.3080025  44.1117287  81.1583996  47.4752378
  43.3657074  80.5444622  46.9706297  45.4056692  80.3931046  47.8713083
  45.8770657  80.8117771  48.7604666  45.2517033  79.3864536  48.2599545
  46.3808870  80.2145386  46.7775631  46.2064886  79.1296864  45.8289576
  45.4628372  78.3704996  46.0213614  47.0979548  78.9732170  44.7977877
  47.0862579  78.1412745  44.1092110  48.2507610  79.7701311  44.7684336
  49.1869974  79.6442413  43.8723040  49.1324711  78.7977457  43.4227800
  48.4481192  80.8638287  45.6455994  49.2718315  81.5544415  45.5409479
  47.4609375  81.1249924  46.6229248  47.4991751  81.9950008  47.2617006
  43.3427715  81.5633583  48.6921692  42.4114084  80.9196854  49.0653324
  43.6887598  82.7311039  49.2723560  44.3461275  83.3593464  48.8327217
  42.8610849  83.3910561  50.3183365  42.6073170  82.6742935  51.0993385
  43.5808849  84.6756554  50.7897329  44.6079969  84.3633366  50.9784079
  43.5311031  85.4297829  50.0042963  43.1151199  85.3752804  52.0588112
  43.5827112  86.3546371  51.9572258  42.0303488  85.4818535  52.0634127
  43.4855223  84.6539402  53.6808968  45.2292824  85.0201511  53.7171125
  45.9487820  84.3032742  53.3215094  45.4024649  85.9508896  53.1768847
  45.5034685  85.2141476  54.7540712  41.4385748  83.6854458  49.8610306
  40.5828285  83.3209515  50.6789351  41.1932230  84.5419884  48.9157104
  41.9230318  84.7191143  48.2403564  39.8413467  84.7863388  48.4114361
  39.1725826  85.1845169  49.1745281  39.8475885  85.7620144  47.2067881
  39.7965407  86.7533684  47.6570225  40.7736635  85.6168842  46.6505241
  38.7295914  85.7488632  46.1794567  37.4872231  86.3911438  46.4133310
  37.2518587  86.6711903  47.4294901  36.5977216  86.5176105  45.3202391
  35.7087064  87.1212196  45.4284382  36.8649125  85.8759499  44.0634775
  36.1495423  86.0669041  42.9475689  35.4728413  86.7429543  43.0290318
  38.0498457  85.1578236  43.9101315  38.1845808  84.7864151  42.9049921
  38.9708662  85.0664330  44.9774504  39.8952103  84.5263100  44.8351479
  39.1618013  83.4536839  47.9223442  37.9579091  83.2991600  48.1135893
  39.9166918  82.5209999  47.2974873  40.8959007  82.6688862  47.0990276
  39.3972731  81.1968803  46.8308878  38.5801411  81.4330292  46.1492491
  40.3947020  80.3853035  45.9568167  41.3272381  80.1131344  46.4511824
  39.9497724  79.4662905  45.5753040  40.8063555  81.2343597  44.7150517
  41.2239361  82.2056293  44.9802923  41.7839909  80.4080772  43.8748932
  41.3369083  79.4490528  43.6131668  42.1927691  80.9576416  43.0269670
  42.6511145  80.2175426  44.5072603  39.6517539  81.6202927  43.8237047
  39.0778875  80.7130814  43.6346626  38.9904857  82.3717117  44.2552137
  40.0786734  81.9941235  42.8930712  38.8907886  80.1884365  47.9027319
  37.8863120  79.5913172  47.6864147  39.5423627  80.1193619  49.0453243
  40.4315472  80.5803490  48.9151335  39.0758681  79.5811367  50.3670979
  38.7164330  78.5619545  50.2250481  40.1542759  79.5284653  51.4164686
  40.7851410  80.4066277  51.2788868  39.6863770  79.5633268  52.4003172
  41.0116816  78.2111883  51.2553978  40.2953243  77.3992825  51.3808250
  41.3280296  78.1911373  50.2125072  42.1936178  78.1833792  52.2464514
  41.8375969  78.2037258  53.2764721  42.7252007  77.2334385  52.1903896
  43.1535101  79.3576145  52.0316362  42.8965855  80.3243256  52.1714973
  44.4183397  79.3282080  51.6217661  45.1434803  78.1855822  51.5234089
  44.8459816  77.3932981  52.0746660  46.0861635  78.3495998  51.2000656
  45.0721025  80.3842735  51.2937498  44.6354151  81.2825108  51.4439869
  46.0287714  80.3215408  50.9760332  37.9950500  80.4816055  50.8850241
  36.9129515  79.9317741  51.2366390  38.1107450  81.8388367  50.9343147
  39.0212679  82.2297192  50.7387400  37.0184064  82.6698303  51.4655304
  36.8445587  82.4118805  52.5102043  37.4660134  84.1225433  51.5842724
  38.3966613  84.0559673  52.1477985  37.7422738  84.5847321  50.6365585
  36.4401817  85.0897121  52.2575760  35.6380320  85.3939724  51.5852022
  35.9659505  84.5453262  53.0741787  36.8854880  86.3490963  52.9371071
  37.6498580  86.2647438  53.8921261  36.3509870  87.5029945  52.5610447
  36.6866922  88.3098602  53.0673695  35.7887101  87.5696945  51.7246914
  35.5996871  82.5656605  50.8172989  34.6098781  82.3809624  51.5228748
  35.4995871  82.6638031  49.4243860  36.3037014  82.9666519  48.8935518
  34.2024708  82.3133755  48.6789608  33.3771682  83.0115509  48.8187027
  34.4819808  81.9288158  47.1681643  35.3616858  81.2852573  47.1611786
  33.6940312  81.2622261  46.8175936  34.7221732  83.1073856  46.1562109
  35.5367899  83.7350178  46.5175629  35.1916933  82.4245358  44.8686552
  34.6986389  81.4610767  44.7392702  34.9923110  83.0467987  43.9962292
  36.2557650  82.2400856  45.0164080  33.4610915  83.8677406  45.8061504
  33.0552697  84.2325211  46.7497349  33.4756684  84.7570610  45.1760626
  32.7460051  83.2160664  45.3040838  33.5193992  81.0758400  49.2276335
  32.4685073  81.0538292  49.9110842  34.2953134  79.9493647  49.1884899
  35.2000952  79.9797773  48.7406683  33.8384295  78.5981941  49.6246862
  32.9496837  78.4884119  49.0032530  34.8012519  77.5179482  49.2910719
  35.7618761  77.7281952  49.7612858  34.4025016  76.5521669  49.6015024
  35.0145483  77.3703432  47.7853632  34.0093732  77.6937723  46.8571043
  33.0556536  78.0857182  47.1783495  34.1965628  77.5036097  45.4667377
  33.4117150  77.7710485  44.7747183  35.3904533  76.8776941  45.0329542
  35.5667067  76.7693615  43.9729548  36.3920665  76.5147114  45.9894371
  37.3150063  76.0306549  45.7061148  36.1850238  76.7581177  47.3916245
  36.9456577  76.5116358  48.1176329  33.4789777  78.6665344  51.0726738
  32.4401402  78.1020498  51.4001036  34.2295051  79.3936872  51.9223928
  34.9030972  79.9121904  51.3769245  34.0640831  79.4231462  53.4089231
  34.0176773  78.3673906  53.6759853  35.2884293  80.0303173  54.1073942
  36.1777020  79.5027018  53.7625504  35.4109693  81.0641098  53.7843370
  35.1335382  80.0724030  55.6379128  34.3521905  80.7209301  56.0341549
  34.8468566  79.0604496  55.9240437  36.4333963  80.5082703  56.4228725
  36.1796403  80.6226349  57.4767351  37.2294927  79.7667170  56.3561869
  36.8868041  81.7736244  55.8954096  36.5435147  82.6176357  56.3311863
  37.8678226  81.9588947  55.0434113  38.6324573  81.0051727  54.5346403
  38.3843732  80.0266647  54.5672703  39.4651508  81.4178944  54.1391850
  38.1195068  83.1985760  54.7396374  37.6813340  83.9786339  55.2082682
  38.9962816  83.4106827  54.2853403  32.8062558  80.2560043  53.8910866
  32.1468616  79.7929621  54.8355770  32.6041079  81.4384460  53.2334232
  33.0657530  81.6512966  52.3606825  31.3871908  82.2739315  53.4783220
  31.1814713  82.4217796  54.5384741  31.5301275  83.6017990  52.6898384
  32.0058250  83.4612179  51.7192459  30.1945019  84.3875313  52.3845577
  30.4720402  85.3397560  51.9325161  29.5918703  83.8748264  51.6348457
  29.5878482  84.4881535  53.2845306  32.5163341  84.4623661  53.5142851
  32.0273638  84.8162651  54.4218969  33.3545899  83.8247585  53.7951756
  33.1050706  85.6403065  52.7511549  33.9713931  86.0774326  53.2476616
  33.4501910  85.2856350  51.7799711  32.3905849  86.4492321  52.5986910
  30.1958871  81.4615345  53.0223370  29.2133951  81.4241123  53.7736797
  30.1765537  80.7219982  51.9318199  30.9801722  80.8738995  51.3391829
  29.0212369  79.8620367  51.4654875  28.1482625  80.5126858  51.5171528
  29.3631530  79.3225670  49.9979115  29.2964530  80.1446724  49.2853069
  30.3421259  78.8433218  50.0038719  28.3431983  78.2040596  49.4185066
  28.4845161  77.3207903  50.0413799  26.8434167  78.6832523  49.3484020
  26.7962980  79.5692348  48.7152147  26.2034678  77.9005003  48.9411354
  26.4795613  79.0351439  50.3137445  28.8475990  77.7823257  48.0204725
  29.9220204  77.7992535  47.8376293  28.3569098  76.8607759  47.7073097
  28.4300375  78.4414387  47.2593403  28.8719511  78.6727285  52.4933338
  27.8024054  78.5040236  53.0612850  29.9290276  78.0074120  53.0102348
  30.8825278  78.1609058  52.7146387  29.8624110  76.9498968  54.0021372
  29.2404222  76.1114073  53.6888123  31.2663174  76.3721275  54.1334772
  31.6302848  76.0832262  53.1474924  31.9730616  77.0954990  54.5401049
  31.4306355  75.2481508  55.1373672  31.5348697  73.9342546  54.7142363
  31.4110041  73.6676073  53.6750269  31.8549037  72.9406929  55.6749916
  32.0949793  71.9377565  55.3542423  32.1286082  73.2621861  56.9958162
  32.4489427  72.5041962  57.6952648  31.9851995  74.5862007  57.3919535
  32.3689461  74.8795891  58.3579111  31.7327237  75.5795622  56.4793682
  31.8091846  76.5973234  56.8325281  29.2714429  77.4166584  55.3835869
  28.4683347  76.6756725  55.9436893  29.5704818  78.6706734  55.8154106
  30.2306986  79.2351341  55.3000450  28.9691830  79.2851400  57.0446253
  28.8458037  78.5724688  57.8600931  29.7689390  80.5882263  57.4670267
  29.9612975  81.2612438  56.6314745  29.1464925  81.1355686  58.1748962
  31.0194445  80.1846409  58.1819344  30.7300997  79.6470022  59.0848923
  31.6674042  79.5064735  57.6266575  31.8528295  81.3671112  58.5503197
  32.1535611  81.8801975  57.6368570  31.2189388  82.0557213  59.1089869
  32.9845262  81.0517406  59.4420481  32.8454185  80.3136921  60.1173496
  34.1964960  81.4644051  59.2901182  34.6086955  82.4234200  58.4898520
  33.9473510  83.0798340  58.1001711  35.5357790  82.7455997  58.7282372
  35.1095486  80.9719658  60.0442553  34.9074340  80.2190590  60.6864309
  36.0498405  81.3054276  59.8869181  27.5135875  79.7045565  56.7003870
  26.7054033  79.5517874  57.5761795  27.1552992  80.1014519  55.4879665
  27.8862476  80.2792263  54.8140144  25.8247423  80.3460407  55.0791407
  25.3224897  80.9317780  55.8490515  25.8181286  81.2736797  53.8331604
  26.1594129  80.8121204  52.9065609  24.3699408  81.7882061  53.6205292
  24.3603873  82.5412273  52.8325129  23.7724161  80.9239864  53.3303690
  23.9562893  82.2340012  54.5251036  26.6082835  82.3882103  54.0236330
  27.4826527  82.1115971  54.3074703  24.9075794  79.0996075  54.9182463
  23.7318754  79.1457653  55.2636242  25.4187655  77.9526567  54.6332550
  26.2573934  77.9466534  54.0704346  24.6736097  76.6811705  54.7120047
  23.6188936  76.8222094  54.4758224  25.2316952  75.6591082  53.7232018
  26.2862611  75.5011559  53.9491272  24.6677136  74.7308350  53.8145590
  25.0615025  76.0909462  52.2385263  25.1548338  77.1742725  52.1623659
  26.1691284  75.4989004  51.3394165  26.0599589  75.8196402  50.3034067
  27.1328545  75.9714031  51.5293550  26.2038040  74.4146633  51.4458466
  23.6150932  75.7229471  51.6548109  22.8897882  76.0797501  52.3860550
  23.5732746  76.2401295  50.6962299  23.4689879  74.6606398  51.4592171
  24.7057533  76.1318731  56.1310482  24.1642761  75.0293398  56.3012838
  25.4276633  76.7152262  57.0807886  25.8111691  77.5861406  56.7423630
  25.4806280  76.2879181  58.5302973  26.0674286  77.0232201  59.0808392
  23.9824176  76.3108301  59.0996742  23.5757399  77.2343445  58.6875582
  23.4549785  75.4341412  58.7237501  23.8358259  76.2163782  60.6332064
  24.7003412  76.4551544  61.4122391  22.6481700  75.8011150  61.1023521
  22.6410651  75.4655313  62.0549440  21.9107580  75.7036924  60.4190969
  26.1631918  74.9559784  58.6917162  25.6648445  74.0323496  59.2811298
  27.3942184  74.7676659  58.2211018  27.7970719  75.5055761  57.6613665
  28.3070111  73.7239122  58.6622381  27.7445340  72.9662323  59.2077971
  28.8181639  73.0622053  57.4036264  29.5115829  73.7852812  56.9741678
  29.3220782  72.1472454  57.7151108  27.7943993  72.7297401  56.4151192
  26.8354583  71.7798710  56.5511513  26.1796832  71.8210936  55.3788185
  25.3132582  71.2248230  55.1335287  26.6281843  72.7429628  54.5755434
  26.2584996  72.8361607  53.6402655  27.6332855  73.4093094  55.2475882
  28.3109188  74.1540241  54.8569250  29.5051193  74.2059708  59.5336437
  29.9851751  75.3429651  59.3702078  30.0663662  73.2547712  60.2805996
  29.6034336  72.3635674  60.3880692  31.2778091  73.4177303  61.0753250
  31.5838432  74.4632196  61.1128283  31.0651731  72.8661585  62.4596167
  30.8836889  71.7913723  62.4579191  31.9675326  73.0208921  63.0511475
  29.8009729  73.4797764  63.1718302  28.9035702  73.2895851  62.5831032
  29.7825003  73.0730057  64.1829157  29.8330808  74.9565172  63.4721470
  30.4957128  75.7906771  62.8294754  29.0226007  75.4608822  64.4158459
  29.0196872  76.4510345  64.6150637  28.4687901  74.7770500  64.9115944
  32.4324512  72.6493025  60.4779148  32.3126817  71.5500593  59.9501324
  33.6039042  73.1863308  60.5990314  33.6572909  74.1774225  60.7861042
  34.8646784  72.5450420  60.1953888  34.8483586  72.0401001  59.2295361
  35.9128976  73.7070322  60.0123549  35.7952046  74.3253279  60.9022760
  36.9253278  73.3037138  60.0328970  35.6478667  74.4930029  58.7270546
  36.1004424  74.0672255  57.4417400  36.6100883  73.1187916  57.3572397
  35.8546948  74.7934771  56.3376474  36.1419892  74.5014000  55.3383732
  35.0871325  75.9852934  56.4557409  34.7461534  76.6264725  55.3636026
  34.9659801  76.0837698  54.6028471  34.6976995  76.4904451  57.7048826
  34.1513753  77.4165154  57.8064775  34.9162102  75.7276678  58.8482046
  34.5445085  76.1714029  59.7599840  35.2807450  71.4393568  61.2008190
  36.2676930  71.4132309  61.9070864  34.4080472  70.4856825  61.3193226
  33.6007118  70.5026197  60.7126713  34.5862603  69.3657017  62.2127199
  35.1590848  69.5461655  63.1223392  33.1612778  69.0237570  62.7689934
  33.4170747  68.2573414  63.5006237  32.7542090  69.9285412  63.2203960
  32.0964742  68.5349941  61.8452597  32.3404884  67.9781246  60.7505369
  30.8818531  68.6310053  62.1714020  35.1953340  68.1439161  61.5858269
  35.5445409  67.1542835  62.2425747  35.3388405  68.0958796  60.2591896
  34.8892236  68.8529778  59.7644663  36.1420798  67.1133804  59.4800901
  36.3490558  67.4600601  58.4676266  37.5516748  66.8059969  60.0669956
  37.4933410  66.2544298  61.0053301  38.0345941  66.1931849  59.3058491
  38.4088635  68.0493593  60.2251577  38.9891982  68.6066818  59.0811205
  38.8492274  68.1707668  58.1029654  39.7517490  69.7941303  59.2335081
  40.2371073  70.3057480  58.4155369  40.0527239  70.2678108  60.5451775
  40.9639978  71.3259649  60.6393814  40.9075642  71.8578768  61.4365530
  39.5240378  69.6678305  61.6682386  39.8716903  70.1227760  62.5839710
  38.6589479  68.5629129  61.4964151  38.3109951  67.9437160  62.3100042
  35.2761388  65.8442402  59.3134022  35.8387971  64.8012781  58.9170742
  33.9853382  65.9188795  59.5632648  33.6306548  66.8097448  59.8805428
  33.1242943  64.7614050  59.3432760  33.6191964  63.9059496  59.8030281
  31.7720485  65.0039816  60.1308489  31.2872076  65.8723736  59.6848488
  30.8168507  63.8549328  60.2750206  30.8655119  63.1683683  59.4298220
  31.0154200  63.2430458  61.1549520  29.8305035  64.3084860  60.3725195
  32.0823169  65.3338242  61.4914370  32.4957895  66.1999083  61.4680958
  32.7943897  64.4437218  57.8517962  31.7402339  64.8289442  57.3352671
  33.6882663  63.6954737  57.2027016  34.5696831  63.4926319  57.6522112
  33.5182595  63.2272339  55.7949257  33.0551648  64.0496540  55.2497005
  34.9087811  63.0426073  55.1547909  35.5132866  62.1858549  55.4525232
  34.7406483  62.7952385  54.1066217  35.8259010  64.2839575  55.2222633
  35.4691648  65.4660797  54.4976711  34.5985174  65.6378937  53.8821602
  36.2957120  66.5677881  54.5868492  35.9795213  67.4841595  54.1107368
  37.3743200  66.5965509  55.4713964  37.9544234  67.4930716  55.6330538
  37.7082133  65.4705667  56.1576128  38.4509754  65.4158592  56.9397306
  37.0199609  64.2615223  55.9895039  37.3741722  63.3935690  56.5257835
  32.4769139  62.1348715  55.4417419  32.2620106  61.2810087  56.3090611
  31.9701219  62.1335459  54.1630030  32.2422695  62.8198051  53.4737349
  30.9261489  61.1711121  53.7353897  30.1309967  61.4618587  54.4219065
  30.5081964  61.4010954  52.2887945  31.3359380  61.4892912  51.5851116
  29.9576211  60.5273628  51.9401360  29.6009541  62.5855875  52.1285963
  28.4881878  62.3494291  51.6087580  29.9272275  63.7153625  52.5456619
  31.2690115  59.7187090  53.9431620  30.4837322  58.9952230  54.5344114
  32.4578810  59.2114401  53.5860109  33.1289840  59.9239922  53.3370304
  32.8806400  57.8643131  53.8590717  32.1468210  57.1449709  53.4955359
  34.2835999  57.7280903  53.2874727  34.5597339  56.6883564  53.4629965
  34.2548656  57.8937769  52.2105217  35.3896475  58.7335777  53.7176180
  36.2777758  58.5359621  54.7387218  36.1041617  57.7020550  55.4026937
  37.1945429  59.5595932  54.8635626  37.7805591  59.7742367  55.6576777
  36.9554663  60.5171394  53.9196634  37.5481844  61.7319822  53.5552692
  38.3683848  61.9900846  54.2087650  36.9943547  62.5884724  52.5991249
  37.4783158  63.5379696  52.4240685  35.8935332  62.1102238  51.8704510
  35.5164695  62.7264500  51.0676527  35.2205324  60.8989906  52.2754097
  34.3290091  60.5265617  51.7928314  35.7332563  60.0773335  53.2889318
  33.0566192  57.5965405  55.3754997  33.0755043  56.4365196  55.7636833
  33.1241465  58.5503817  56.2374735  33.1534171  59.5207787  55.9589529
  33.3462381  58.3111429  57.6935101  33.9341569  57.3972321  57.7784634
  33.9963555  59.4866228  58.4275961  34.3925762  59.1794348  59.3954515
  35.0810504  60.0670719  57.6339912  34.8183179  60.3644753  56.6187954
  35.4890299  60.9042168  58.2004166  35.8660889  59.3115473  57.6655912
  33.0114388  60.5090475  58.6965513  32.6935244  60.8387327  57.8528452
  32.0904636  57.7572966  58.4184170  32.1627951  56.9957495  59.4131660
  30.9159732  58.0393934  57.8113461  30.8833337  58.7426424  57.0871353
  29.5998549  57.5045204  58.3062601  29.7411394  57.0691824  59.2955112
  28.6532855  58.6920118  58.3809948  29.0573263  59.4010067  59.1036081
  28.7970734  59.3220043  57.5031900  27.1532845  58.4106493  58.6684752
  26.9881606  57.6183367  59.3985939  26.7482638  59.3380594  59.0734100
  26.1039543  58.1851864  57.2337151  26.0740781  59.8412037  56.4921236
  27.1098542  60.1447105  56.3399839  25.6434393  59.8634529  55.4910421
  25.4009008  60.4554367  57.0901585  28.9828587  56.5178251  57.3316288
  28.4333944  55.4450750  57.7280235  29.2381191  56.7160606  56.0384893
  29.5168829  57.6000786  55.6373501  28.7935042  55.7054615  55.0902796
  27.7548909  55.4177284  55.2533674  28.9104605  56.3001347  53.6604023
  29.8646832  56.8247461  53.6120081  29.0317440  55.4571629  52.9801178
  27.7115178  57.2407722  53.2285738  27.5563407  58.1044197  53.8752079
  28.0349469  57.7846241  51.9101238  28.2204556  56.9875669  51.1901379
  27.2842908  58.4970093  51.5678883  28.9389324  58.3902788  51.9741011
  26.3871264  56.4750195  53.0591774  25.5798388  57.0761633  52.6408339
  26.5042591  55.6322908  52.3778582  26.0634875  56.2332249  54.0715456
  29.5764780  54.4294548  55.2169085  30.6455755  54.3660498  55.8100557
  28.9884830  53.3305216  54.6817398  28.1266880  53.5557413  54.2056227
  29.4413567  51.9270182  54.6710157  30.5282927  51.8527842  54.7051382
  28.8498998  51.1990643  55.8431435  27.7669835  51.3180113  55.8784103
  29.0812087  50.1479006  55.6709337  29.4490933  51.7132950  57.1772194
  30.5274630  51.5608549  57.2218037  29.2983079  52.7602243  57.4404716
  28.9410734  51.1140919  58.4759617  28.8779259  50.0259972  58.4630203
  29.6176600  51.2469339  59.3201685  27.5480318  51.6239309  58.8418150
  26.8331146  51.5208435  58.0254984  27.1703196  50.9910250  59.6448469
  27.5295973  53.0606031  59.3744755  26.6761446  53.2719898  59.8715019
  28.3172202  53.2195187  59.9864388  27.7391028  53.7307215  58.6484241
  29.0692282  51.2048769  53.2882452  27.9801798  51.4547348  52.7048063
  29.9629998  50.3717947  52.7542162  30.8775330  50.3531837  53.1824541
  29.8466945  49.2780304  51.7759848  28.8149786  48.9277506  51.7448759
  30.1897645  49.6332502  50.3351021  31.2648511  49.6409559  50.1555681
  29.7830462  48.8154459  49.7402287  29.4966102  50.9647799  49.8465347
  28.4911394  51.0858440  50.2496099  30.0545812  51.8391371  50.1815987
  29.1612077  50.9698772  48.3384991  28.5693169  50.0722456  47.7529669
  29.3831372  52.0265579  47.6169968  29.1564465  51.9471121  46.6359758
  29.7642374  52.8607798  48.0400038  30.6506252  48.0163479  52.1094465
  31.8458796  48.1083107  52.4011230  30.0375009  46.9307566  51.9188452
  60.5628490  45.5914545  66.3992977  59.2798996  46.4956999  66.8042994
  59.2602730  46.6869593  68.3105373  59.4864225  45.4590511  69.1582203
  60.2132511  44.5111561  68.5440588  60.7666492  44.4401979  67.3294067
  60.5475378  45.2649450  62.6222277  59.6936846  44.2224169  63.0136776
  59.5834732  44.0156603  64.5244932  60.4337025  45.2064085  64.9676275
  61.1207867  45.8602285  63.9067602  60.1133776  44.7234631  60.2415800
  59.1581249  43.7801886  60.6658411  59.0347242  43.4980869  61.9864607
  60.7843113  45.4733562  61.2139702  62.0182085  46.6789579  64.1305113
  58.3324957  42.3262548  62.2325754  61.4454651  43.4968662  67.0382023
  58.9163065  45.1370525  70.2177334  61.4928007  46.1690140  66.4892864
  60.2928114  43.6872101  69.1283226  60.3677607  44.9982595  59.2221785
  58.5564709  43.2847977  59.9095392  61.5757179  46.1803579  60.9832668
  59.9323082  43.0052185  64.7718287  58.5546017  44.0447092  64.9045467
  58.3254194  41.9969463  63.1888390  58.0345869  41.6990852  61.4971542
  58.4015989  46.0063982  66.3632107  59.4017076  47.4465990  66.2691927
  58.3467865  47.1438313  68.7132692  60.1747847  47.2688818  68.4849358
  47.6469326  55.2365494  27.5299048  69.7184372  78.8227940  40.7337570
  21.6631341  70.0634050  30.5060101  48.4153223  57.1132803  75.2394772
  59.0867662  71.1234093  13.9872670  86.7381096  85.9387875  49.9531460
  87.6353168  85.6627560  50.1403713  86.5260029  86.5552998  50.6539679
  49.3760347  24.2575860  20.1514626  49.8526382  25.0862932  20.1996756
  49.8385096  23.6796522  20.7583737  58.7095356  13.1165063  58.9638424
  58.6555719  12.1614039  58.9306927  58.0836344  13.4148133  58.3039236
  61.9103003 102.0135212  88.9686775  61.5217924 101.1465263  89.0853977
  61.5280819 102.3395348  88.1538963   8.4464002 106.7496681  43.5649920
   8.9028144 105.9156704  43.6762238   8.5389495 107.1880245  44.4108677
  49.5613527   7.7236432  40.3953743  49.8308372   6.8635595  40.7176542
  50.2742434   8.3092010  40.6505966   4.1995862 107.3157024  25.6197739
   3.3040479 107.4305153  25.9376764   4.1430038 106.5861511  25.0026917
  94.4704247  80.2711487  28.3143806  94.0932655  80.6672573  29.0999246
  93.8226414  79.6226978  28.0384851 108.5303116  44.0776587  30.6552672
 109.1497993  44.5082331  31.2443876 108.6689758  43.1422949  30.8039188
   3.8678214  66.6335201  37.8751469   3.1325284  66.6513538  37.2625637
   4.5980406  66.2863731  37.3627996 101.9100094  62.8953552  34.5849299
 101.7406178  62.7123499  35.5090785 101.0470295  62.8623104  34.1721320
   8.7259638  64.7164249  45.9364843   8.5623705  63.8224888  45.6358957
   8.9016688  64.6258116  46.8730450  16.8787169   0.4629752  16.0364556
  15.9467685   0.2718539  15.9307361  16.9040310   1.3692266  16.3435388
  17.2550380  57.0471096  47.8264380  17.0491838  56.9465160  46.8970633
  16.4216638  57.2867393  48.2317734 111.3363743  75.9756565  47.6438427
 110.9597969  76.7295456  47.1898890 112.2812176  76.1262035  47.6150894
 112.0108318  91.1518192  12.5355983 111.9293118  91.9172096  13.1046081
 111.1518288  90.7313824  12.5751686  53.5698509  67.9791880   2.8843665
  53.6788368  68.3945799   3.7398210  54.4235086  67.5887060   2.6972219
  97.6115513  50.7481289  30.7110143  98.1003571  50.0764370  30.2354813
  97.3129368  50.3085184  31.5071297  86.9269371  74.0515947  38.8344002
  86.0388088  74.2557478  38.5415411  87.4803448  74.2540359  38.0800819
  39.4481850  79.1431618  23.7405372  39.1825938  78.3274317  23.3159423
  39.4596815  79.7884274  23.0336165 111.9842052  74.1713333   2.9220286
 111.7924023  73.3017206   2.5710008 112.1411228  74.7126627   2.1483538
 114.3093300  81.3280869  40.2980852 113.6647511  81.8086624  40.8175087
 113.8275433  81.0446739  39.5210481 107.7671814  93.4133816  22.6646757
 108.6111736  93.0384445  22.4130011 107.4897575  93.9149475  21.8980598
  18.9081693  76.2369442  37.9724193  19.5145953  76.3772678  37.2452402
  19.0345716  76.9973850  38.5398531  13.4748232  74.6749878  41.5884733
  13.7701142  73.7648487  41.5624285  14.2815197  75.1894331  41.5598297
  92.9138565  62.3616028  19.1643846  93.8181114  62.6648617  19.2456067
  92.4176788  63.1469345  18.9335322  20.7697177  28.2417035  15.1155114
  20.8162832  28.8176441  14.3523896  19.9192667  28.4350371  15.5099559
 108.1399155  46.5734959  88.2604790 108.1188011  46.4095783  87.3176479
 107.2433758  46.4084959  88.5524082  26.2719107 103.2314682  16.9816649
  25.9367251 103.0832672  16.0974014  27.1514726 102.8539944  16.9707894
  12.0466399  69.6392822  35.3244829  11.5249085  70.4092503  35.5507064
  11.9305623  69.0450525  36.0658646  99.6815205 103.2346153  25.3111601
 100.1257229 104.0720940  25.4436493  99.1552353 103.3648109  24.5222974
 107.1498299  70.6632566  60.4127932 107.7651119  71.3019276  60.7729959
 106.9704628  70.0670385  61.1398315 101.4697075 105.6647587  15.8282638
 102.2265148 106.1089230  15.4459107 100.9161377 105.4464054  15.0785208
  78.4112740  59.8802710  33.7588406  77.6269627  60.2418900  34.1715384
  78.6724377  59.1591263  34.3315363  94.0781784  96.5093517  31.3925338
  94.0983772  95.5648422  31.5466142  93.1788349  96.6880226  31.1177778
  17.9960525  73.4446573   8.9012945  17.9995430  72.5504875   9.2428744
  17.3419344  73.9007616   9.4307595 105.4761219  98.4124088  28.5933805
 105.6468105  99.1788769  28.0459976 105.0991154  98.7710285  29.3968058
 112.4458218 105.9657860  18.2828176 112.2350979 105.1809406  18.7886345
 111.6355705 106.4754105  18.2827771   7.3735267  30.4454160  15.5173016
   6.8029213  30.0766683  14.8430109   7.0090044  30.1235676  16.3417816
 103.2461739  94.1697788  27.9518461 103.9007950  94.4917583  27.3321414
 103.7566185  93.8594818  28.6997771  90.3805923  76.6973782  41.8066931
  89.4993877  76.3240671  41.7877722  90.7825279  76.3230181  42.5906134
  23.7306786  80.9961319   4.1671735  23.4801102  80.0744438   4.1044027
  24.6658516  81.0045242   3.9631793  31.7579341   4.7613865  19.3682814
  30.8022189   4.8098668  19.3903637  31.9454980   3.9076889  18.9780867
  80.9908867  45.5872965  31.6190434  80.5127621  46.0539436  32.3045135
  81.1877251  46.2581062  30.9652114  10.9418058  73.9944077  35.0010180
  10.5775213  74.4787121  35.7419491  11.8884075  74.1126728  35.0796962
 100.4777813  80.0904179  41.3442087 101.0336018  80.4907513  40.6756067
 100.7836819  80.4693031  42.1682787   4.0662339 104.1155624  27.9736781
   4.7660673 103.6994934  28.4770203   3.3559656 103.4738827  27.9753232
   6.7610031  85.3934860  50.0223541   6.2305260  85.3464317  49.2269850
   6.8500930  84.4833279  50.3050232  14.8891950  72.1463966  35.2118254
  14.6120679  71.3987017  35.7413435  15.5252826  71.7815495  34.5965934
  55.3412342  62.0248222  90.3666210  54.9893904  62.8465557  90.0242805
  56.2147951  62.2524595  90.6849003  81.4634228  28.9235783  88.1956100
  81.5529537  27.9901624  88.3878326  82.3507500  29.2096281  87.9786587
   8.9410150  98.9249516   5.8061218   8.3617604  98.7721348   6.5526778
   9.2466062  98.0525589   5.5575722 115.7316113 100.0200081   7.8365767
 115.5712891 100.3527451   6.9535077 115.2467537  99.1955185   7.8735554
   0.1602231  72.0633459  65.1291370   0.2546845  71.4564276  64.3949986
   0.8505498  72.7124405  64.9936295 112.9777431 105.2535915  14.1889966
 112.3879433 104.5453358  14.4473600 112.4344826 105.8359909  13.6580431
  77.8546047 105.9772968  25.2047849  77.8439999 106.7448235  25.7766414
  77.0857096 106.0850906  24.6449542  40.7633114   6.9295204  17.0292819
  41.6063976   6.4958215  16.8976128  40.8871984   7.4600273  17.8163302
  25.0505996   9.2090786  33.3569574  26.0077262   9.2135745  33.3680272
  24.8012304   9.0584522  34.2687464  11.1288607  78.5909510  25.6191683
  10.4806185  78.6529064  24.9176168  10.6932402  78.0830193  26.3036180
  57.3854303  18.8978875  24.8308849  56.8598032  19.2975283  24.1378975
  57.7561140  19.6399784  25.3085089   8.3973765  91.1775875  18.5731649
   9.0799654  91.4969635  17.9829931   8.0881929  91.9610214  19.0279925
  98.8749218 103.2683182   1.1697091  99.1773319 103.0724525   0.2829095
  98.0452251 103.7286949   1.0436133  18.4305608   6.8577850  32.9644251
  17.8700614   7.1735573  32.2556520  19.3180442   7.0858520  32.6876712
  18.6900413  78.8515949  39.5914602  19.5432794  78.6863708  39.9926043
  18.8743460  79.4660044  38.8809919  28.2809877   2.0038916  11.5540028
  27.3241663   2.0048408  11.5270817  28.4962964   2.3268172  12.4289846
  74.1876650 102.9049683  39.7075725  74.9457264 103.3759308  40.0536585
  73.7359810 102.5745583  40.4841280 104.3367863  88.4153938  20.4763579
 104.1001701  88.7711811  21.3328958 104.7289848  87.5641155  20.6706476
 106.2302876  77.8055525  32.8141189 105.4216194  77.6471758  33.3011651
 106.6967773  76.9703484  32.8463578  85.0565243  11.5750897  83.5135365
  84.2010689  11.5358603  83.0858707  84.8592758  11.7951763  84.4239712
  76.3940239  89.4689846  30.0155282  76.6907597  90.2799129  30.4285383
  76.6799307  89.5452785  29.1052151  79.2430449 102.2684860  37.9622459
  79.0502405 101.5688515  38.5864019  78.7012434 103.0029297  38.2508278
  64.3197203   4.5512831  45.9873867  64.4726562   5.2044642  45.3046036
  63.7670088   3.8916427  45.5683184  47.1488428   3.4202641  18.6103106
  47.3281431   3.2252744  19.5301270  47.3312998   2.6001620  18.1516457
 112.5852108 102.9037189   0.8425114 112.0623112 102.3037624   1.3743663
 112.0546436 103.0548096   0.0602654   1.7182599  57.7806950  21.5333629
   2.3346716  57.2560215  21.0224938   2.2706509  58.3910370  22.0218062
  40.2828789   5.6089962  39.8511720  40.3337860   4.9877518  39.1247463
  41.1950827   5.8196074  40.0505781  42.2884083  80.6002331  21.3351107
  42.6599646  80.5275059  20.4559708  41.4673519  80.1103306  21.2894082
  94.7706699  60.2106142  32.8959441  94.4071865  60.9099150  32.3527241
  94.2623329  59.4348049  32.6594043  98.7211514  72.2000122  13.9172435
  98.2227898  71.5339613  13.4437013  98.0560875  72.7265024  14.3607867
   2.9786387 100.9376431  21.3414454   2.5755018 101.7840385  21.1482358
   3.0312514 100.4981041  20.4927588  34.0066981   4.7583804  43.6154938
  33.9241004   5.3361851  44.3741465  33.9655042   3.8749444  43.9816570
  46.2791348  40.6916142  91.9434547  45.6763792  41.3246107  91.5532875
  45.9856367  40.6092405  92.8508186 110.8545208  98.0582237  35.9249187
 111.5564156  98.7090302  35.9311175 111.2414169  97.2847843  36.3352108
   5.1502210 102.9526043  13.4857440   5.2708656 102.6801872  12.5760901
   5.6859350 102.3417091  13.9917648 100.0597191  41.9918442  83.5743618
 100.2442741  41.0557747  83.6514568  99.4767666  42.1823502  84.3092823
 112.7199554  73.7159491  59.7649145 113.0776310  74.2980194  59.0944719
 112.2530174  73.0412483  59.2719936 100.5592823  66.9373465  19.5643485
 100.6262779  67.3163891  18.6879539 100.4238415  66.0022402  19.4111514
 113.4765339 106.1951542  34.8396993 114.0945244 106.7981339  34.4265008
 113.9440727 105.8600235  35.6047630  10.2730560  90.8495045  26.0211062
  10.8165705  90.6969166  25.2481008   9.7456855  91.6158390  25.7956076
 112.5769043  92.4266815  38.9631271 112.7677536  91.5032005  38.7988496
 111.6289330  92.4560452  39.0923858  87.1688271  94.2274284   5.2449715
  87.6543522  94.4368935   4.4470823  86.3287926  93.8910770   4.9328363
  99.4486523  20.3816462  78.2149458  98.6267281  19.9053299  78.0974913
  99.7519970  20.5590701  77.3245859  89.0077591  83.8252640  41.4352751
  88.3666611  84.2492390  42.0057774  88.6621284  82.9428291  41.3008118
 105.8597374 101.2019539  40.1924753 106.6165543 100.9453869  39.6655703
 106.2279129 101.4266682  41.0469866  54.8605824  28.9980507  21.1286712
  54.6435213  28.2778478  20.5367088  54.4133043  28.7792540  21.9461656
  16.8737626  10.1082611  13.2038629  17.7006602  10.4745495  12.8903246
  16.7235839   9.3445134  12.6467574  56.5811205  21.4470768  14.3774855
  56.2870312  20.5452085  14.5054471  56.0004425  21.9691825  14.9310696
  62.5048161   1.7587957  37.0512199  62.3733425   0.9490364  37.5444102
  61.7645550   1.7931049  36.4453602  37.5732446   0.0891445  54.0296268
  37.7012801  -0.6256355  54.6532679  38.2078791   0.7548695  54.2947292
   5.3229427 107.2359180  21.0643983   5.2924067 107.5313377  21.9743586
   5.1478469 106.2960625  21.1117005  34.2069244  78.6221361   9.0383059
  34.8228788  79.2371941   8.6401409  33.6513448  78.3363295   8.3131319
 107.5650311 108.9310265  35.4259038 107.7991772 109.5616341  36.1068869
 108.0248260 108.1289482  35.6738901  37.3399925   4.7265187  71.1385584
  37.7220941   4.1990256  70.4371452  36.9391322   4.0874004  71.7276859
   6.0635334  72.8948402  15.7294345   5.9084111  72.0047331  15.4134059
   6.6034096  72.7806282  16.5115607  64.6468973  15.6700909  26.7422390
  64.0767908  16.4323211  26.8433237  65.5284500  16.0076272  26.9008756
 102.3244095 106.4872837  37.5918078 101.7699432 106.5073872  38.3718085
 101.8552303 107.0211029  36.9506097 101.1525536  97.9420185  28.2817817
 100.8074856  97.2015285  28.7806177 101.6506004  97.5400448  27.5700212
  77.2717714 102.0732880   5.9283215  76.5041542 102.0270729   6.4982831
  77.8814220 102.6460743   6.3935941  32.1429920  13.5567784  16.6554832
  32.2338128  14.3168998  17.2301126  31.3561630  13.1114936  16.9698930
   6.0340929 105.6503010  32.4898887   5.4602224 105.1782703  33.0932856
   6.3735485 104.9739933  31.9037104 115.8549690 104.0486336  17.8507197
 116.4301491 104.6780396  17.4156952 116.0411358 104.1587257  18.7831640
 101.2612629  88.5537529   2.9646909 101.1742878  87.6197624   2.7741173
 102.0808506  88.6229897   3.4542903  11.5705943  97.5020695  42.3934793
  11.2897623  96.6879749  42.8113461  12.5265229  97.4528122  42.3913193
   8.4582937  74.5419025  12.9753613   8.8129783  75.1978350  13.5755157
   9.0528375  74.5571280  12.2253501  97.5669384  79.8648214  13.7448359
  97.3088455  79.6460819  14.6402514  97.5388622  79.0303040  13.2768393
  53.0176544  10.7491243  14.7566628  53.4856939  11.4491606  15.2117658
  53.4926891   9.9517894  14.9908280  15.1517308 104.1527176  51.5925264
  14.2237377 104.3871784  51.6018915  15.1992345 103.3426380  52.1002102
 101.0931396 108.0110455  23.8282752 101.6953659 108.7088299  23.5701060
 100.7024670 108.3218193  24.6449900  63.0031109  24.2880630  27.7050304
  62.6767254  24.7510576  28.4766126  63.8981152  24.6088123  27.5940251
  64.0280199  39.7087598  89.8953533  63.6916780  38.8146877  89.8341656
  63.5324287  40.1024771  90.6134129  25.6222939  79.2770195  37.0973468
  25.5878925  80.2313232  37.0313764  25.2936888  78.9666080  36.2536097
  66.1779451   8.7731367  68.7588835  66.6629791   9.4555181  68.2948494
  66.4363098   8.8763368  69.6747637  84.3456841  80.5644703  40.9057093
  83.4780979  80.1631927  40.8556890  84.6597862  80.5694008  40.0015306
 115.3711319  93.7161350  37.7850938 115.0586605  94.6044922  37.6136088
 114.6572495  93.3002567  38.2684612  64.6673536  99.3745804  37.0055413
  65.3567505  98.9035320  36.5374875  64.3236923  98.7367535  37.6310873
  63.0996561   7.3863602   2.6102880  62.2439146   7.8060716   2.6984876
  62.9146147   6.5544099   2.1745703  42.5619316  36.6654062  27.6362848
  41.8099689  37.2292209  27.4549079  43.2853937  37.2730684  27.7898407
 112.8329849  59.2440367  27.1873546 113.3640766  60.0179672  27.3749661
 113.3587360  58.7369776  26.5687251  12.3477495  22.5575757  45.9370947
  12.0257723  22.2339129  46.7784071  13.2089758  22.9251575  46.1356020
  75.6650829  22.4049926   6.2712890  76.5044403  22.4293613   6.7307615
  75.8635187  21.9900656   5.4318309  36.8532729 100.4819489  41.6103983
  36.6675353 101.0078430  42.3883247  36.0020185 100.3721523  41.1866713
  61.3645363  13.1611741  14.7408867  61.4116621  12.2522616  15.0373447
  61.5615225  13.6783588  15.5218780 105.6090164  91.0795116  37.4072051
 106.2438107  90.3667355  37.4794197 104.7581768  90.6414223  37.3876095
   9.2461652  95.7047081  30.0824642  10.1402485  95.3674984  30.0264406
   8.9596224  95.7761097  29.1719556  60.5103207  13.1049025  38.9866519
  59.7929335  12.5164890  39.2219448  61.1772919  12.9487145  39.6552229
  93.6647129  82.1827316  42.6613522  93.0481911  81.8234921  43.2993698
  93.1676006  82.2230816  41.8443584  69.2995024  39.5143723  46.1477470
  69.5776796  38.8820767  46.8103552  69.5292187  40.3664637  46.5184164
 113.7847519  92.5923443  42.6542997 113.9236546  93.1571102  41.8940449
 114.2385674  91.7787552  42.4343920  21.2526608  17.6588964  10.5189335
  21.4885449  16.9262064  11.0879290  20.9622169  18.3449876  11.1198926
  23.9604306  80.8611298  47.8684664  23.1267762  81.1818218  47.5243616
  23.8032269  79.9350405  48.0525017  32.8505158  85.3940964  68.0555058
  33.7033987  85.7364655  68.3231068  32.9618835  85.1689911  67.1318388
  72.6513100  27.7352929  90.5849075  73.5663462  27.6529241  90.8535385
  72.6124763  27.3037410  89.7313976  57.6430273  12.2842288   6.7597395
  58.5998487  12.2825861   6.7866492  57.3890877  11.4845920   7.2205305
  47.3405600  10.7188475  40.7654476  47.2967529  10.1378369  41.5248823
  48.2171106  11.1011994  40.8066511  13.9824378  88.5556126  57.0831919
  13.1226242  88.9678764  56.9995832  14.5810246  89.2826557  57.2544813
  60.8097315   5.2222687   6.4157510  60.4209137   4.3724158   6.2088627
  61.4175320   5.3893226   5.6953990 110.0446606  51.8192530  92.8677654
 109.3612194  51.1817265  93.0743790 109.5840645  52.5261116  92.4156380
  39.9389362   4.3737879   1.5717953  40.0623369   3.5675520   1.0708090
  40.7855797   4.8177442   1.5234999  87.4081612   4.8117906  24.5037889
  86.6274929   4.2703176  24.3872023  87.9381371   4.3337619  25.1416349
  29.2377353  96.4058208  38.3908415  28.3270025  96.6978550  38.4297323
  29.1880822  95.4540730  38.4799623  95.5170345  99.0561485   7.5036627
  96.3224983  99.5660877   7.5898176  95.1346874  99.3501949   6.6768765
  11.7037642   1.8507501  45.7472944  12.1772766   1.9528255  46.5728855
  11.6039026   0.9044071  45.6438828   2.0316559 100.6883430   9.9412197
   2.0890303 100.9578323   9.0245330   2.9071963 100.3629494  10.1504552
   6.6887879  88.6295700  30.6530571   7.2525960  87.8561401  30.6657910
   7.1718878  89.2864132  31.1544561  81.1071777  96.5231514  51.0930252
  81.8632221  97.1098709  51.1126280  80.5341148  96.8932819  50.4215813
   7.5023532 106.8239498  40.9009933   7.8636009 105.9504986  41.0520315
   7.7720398 107.3304462  41.6671276 102.2779942 105.9580326  47.2524643
 102.3847961 106.9081402  47.2985840 101.4038086 105.8329296  46.8831682
  34.0197420  10.9862423   7.9338825  34.4426274  10.1496661   8.1276315
  33.7352133  11.3140416   8.7870073 111.2461662  95.3466606   0.7502034
 111.7311287  95.4941082  -0.0617734 110.3284931  95.3188324   0.4794110
  98.6823699   0.4709138  18.7157977  99.0718219   1.3326539  18.5676289
  99.1708323   0.1114453  19.4563544 115.4779339  97.1063423  12.2782326
 114.8737144  97.1860123  13.0163348 116.0315990  97.8849697  12.3368192
  43.8260031  92.4776936  59.5239115  43.4506083  92.9962063  58.8122511
  43.2361269  92.6235867  60.2635050  10.3770959 102.3432159  50.1114273
  10.0857735 102.1582890  49.2185879  10.1477849 103.2617283  50.2527905
   2.3802580  99.1839981  13.9091885   3.1109098  99.0776539  13.3000314
   1.6015595  99.1780853  13.3525681 108.3659840 107.1481800  39.5165730
 109.1542053 107.4667740  39.0767622 107.8235435 107.9285049  39.6309495
 105.5002117 106.9110107  32.6005912 104.7338200 106.9238091  32.0272541
 105.4387188 107.7247715  33.1008267  39.8912525 109.1998577  12.5748789
  40.4980803 109.9275017  12.4388003  39.8156524 109.1257381  13.5262060
  51.7930079  15.6268013  29.1476297  52.6669693  15.5967009  28.7583780
  51.2106133  15.8231962  28.4138155  65.3633070  65.4485273  93.8538074
  65.8251286  65.9497213  94.5259380  65.9825373  65.3969383  93.1257057
 112.5465488  93.5207272  26.3846087 112.8963089  92.9591370  25.6928611
 112.2180367  92.9107761  27.0451164  10.8936667  27.9332137   1.9136755
  10.4765069  27.3432684   1.2858433  11.7088389  27.4917316   2.1520416
  11.2044370   6.6315585  43.1855679  11.8903947   6.5147823  42.5282574
  10.5147707   6.0219568  42.9229307  76.2868404  37.6374173  34.7342157
  75.4228258  37.8654671  34.3911362  76.3447618  36.6881633  34.6256113
  92.2173309  97.2557545  19.8856628  92.2367382  97.3432541  18.9326668
  91.7051506  98.0070400  20.1847792 114.2394257 106.3015747  53.6688757
 113.9419556 105.9414196  52.8333902 115.1802540 106.4331722  53.5515738
   6.2873560 104.2442417  37.0952034   5.8028090 104.6917915  37.7888489
   6.8521988 104.9211884  36.7224789 111.7284870  89.8999691  38.3620071
 110.8502674  90.0807190  38.6971164 111.6535664  89.0419960  37.9442883
  41.5723467  10.9515083  60.8603573  42.2778749  11.2523091  61.4330626
  41.3866711  11.7012525  60.2949953  20.7816029  99.2344379  41.5013456
  20.1611233  99.6700191  42.0857334  21.0158539  98.4272480  41.9594002
  49.3827820   6.7509234  25.7453752  48.7582493   6.4097619  26.3855290
  50.2393150   6.6152412  26.1505628  67.4554539   4.2074263  11.1189103
  66.6238165   4.0652397  11.5710151  67.2499418   4.0779060  10.1930475
  82.1704769 101.4876270   7.5498122  82.9247475 101.9245529   7.9452866
  82.0261574 101.9561768   6.7276984  11.3726580  41.1579752  85.6563663
  11.3727939  41.4153671  84.7344208  11.6915405  40.2554560  85.6531143
  10.7574964  91.8665886  17.1537089  10.5236852  91.2652779  16.4466166
  11.7035818  91.9828129  17.0662618  58.1039000 103.0412960  20.8496356
  58.0037260 102.5606441  20.0279474  59.0495634 103.0742168  20.9940982
  93.8411903  64.2563677  32.3010826  94.0868378  64.1625023  33.2214546
  93.6866856  63.3603668  32.0018458 111.0064030  72.7377272  15.5374312
 110.1742554  72.3274612  15.7729006 110.9082222  73.6507463  15.8075941
  27.2002316  93.0042744   2.0231758  27.2222900  93.7306309   1.4001596
  27.1764874  92.2196007   1.4754920  57.9251051   9.7593915  82.7540684
  58.5481977   9.2274332  82.2590828  57.6494312   9.1952217  83.4765244
  31.6004133  74.1202402  16.5982604  32.4467349  73.9102602  16.9930744
  31.7861867  74.8501682  16.0075617 100.3212929  89.7376251   0.7832851
 100.6771564  89.3003082   1.5568173  99.5664501  90.2267551   1.1106928
  31.3432288  87.6002884  14.4971883  30.6463456  87.8161240  15.1168644
  30.9872317  87.8428173  13.6423922  35.9176850  11.9521868  14.1071570
  35.1338458  11.6184306  14.5435417  36.3153648  11.1797690  13.7053442
  28.5764170  94.2793369  91.6097260  29.4902396  94.5631218  91.6347313
  28.5951734  93.3817959  91.9418430 111.1770439  82.3764133  16.9917119
 110.3934479  82.6742554  16.5296471 111.4039707  83.1033611  17.5716150
   5.0756484  63.1315708   5.8679289   5.4471159  63.9488506   5.5358160
   4.4097513  62.8918266   5.2234626  82.4428940  75.3628206   8.0909139
  83.0737877  75.3188658   7.3723978  81.6469193  75.7116890   7.6897341
   8.6244905  15.1271021   1.1097191   9.0776908  15.3127658   1.9321364
   8.0240744  15.8637774   0.9955121  45.6865740 100.4167366  82.1844959
  45.0893927 100.1860046  82.8960991  45.5077314 101.3411140  82.0119572
 100.6865120 101.0810375   6.1871785 101.0598087 100.2186394   6.0050815
 100.7116699 101.5355682   5.3451550  64.8397684  17.7569997  83.7345409
  64.1164875  17.5523269  84.3271637  65.3259706  18.4504616  84.1805744
  92.1013737  89.9108982   4.3950421  92.1767521  90.2582550   5.2838010
  91.4206123  89.2408276   4.4567135 101.3743496  48.0424881  22.9902840
 101.5245819  47.1822834  23.3823371 100.9012794  48.5328102  23.6626124
 114.8583126  91.8616581   9.7974521 114.6969795  92.7930164   9.9484128
 114.6247482  91.4409256  10.6248951  75.6725836   2.0247571  83.9367962
  76.4729786   1.5416163  83.7314224  75.1171017   1.9065714  83.1662750
  60.7895899  43.8759041  94.6712780  61.6876173  43.6582851  94.9211121
  60.7013178  43.5407972  93.7790108   8.9600748  87.7147770  73.0821276
   8.7190795  88.0559444  73.9433813   9.5376873  88.3828259  72.7129269
  98.7648869   2.7947119  89.3135071  99.4532585   2.8433517  89.9768448
  98.8903046   1.9404177  88.9003754  88.7051964  54.1520739   3.0148941
  89.2263031  53.3539581   2.9272023  89.3503857  54.8452711   3.1543249
  80.1725483  35.5645657  90.5732727  80.8376598  35.2044296  89.9866104
  79.7102213  34.7974110  90.9108448  14.1234243  81.5736389  17.8603768
  13.9946020  81.5636730  18.8088155  13.7322199  80.7544327  17.5569141
 101.8551350   9.8374754  81.1575222 102.7594852  10.0022364  80.8906174
 101.5687561  10.6602597  81.5540695 115.8326905  87.4804020   5.8892679
 115.6199555  87.4184322   6.8204689 116.7894516  87.4732876   5.8611703
  81.5258026  18.7262022  78.6721659  82.1465492  19.4095266  78.9250994
  80.6654263  19.1076255  78.8468218  57.7071285  19.5795810  87.9389572
  57.9574299  20.0058556  87.1192741  57.1050358  20.1962113  88.3554649
  97.2680283  59.7567892   5.4347050  97.3892117  59.9109840   6.3715994
  97.9835320  59.1681337   5.1943398   4.7170213  96.4505863   2.0374164
   5.4731095  96.7856216   2.5194040   3.9672250  96.9038582   2.4228790
 112.2755432  15.8736527  93.2967949 111.9598007  15.0935054  93.7527752
 111.9375324  15.7835603  92.4058056  11.1811781  79.4797230  18.6275077
  11.8597484  79.5869875  17.9609740  10.6515503  78.7465000  18.3142757
  21.0703897  97.9714775   2.4509703  21.9394946  98.3118248   2.6632285
  21.1111832  97.0452404   2.6889917 112.4022675  50.8360624  33.9253020
 111.9944859  50.1615667  33.3821583 111.9643021  51.6475248  33.6685014
 110.8734512  51.9924355  10.8717513 110.2342033  52.0016193  10.1593578
 111.4924240  51.3037348  10.6292701  32.2679782  89.0505409  22.2415090
  33.1641746  89.2506313  21.9712687  32.3689437  88.4507370  22.9806113
  26.9109869  88.2440662  20.9545827  27.3898172  87.4602127  21.2238979
  27.3403382  88.9598179  21.4231825 107.4497414  32.2313476  87.8545284
 108.2852745  32.4218750  87.4281216 107.2278881  33.0387950  88.3182526
  84.5690918  15.4854381  76.6989899  84.5828915  14.8309112  76.0006809
  83.6391449  15.6274211  76.8758345 116.2360764  81.8367290  61.0617685
 115.4311085  81.3192749  61.0840750 116.0584736  82.5808620  61.6370583
  96.6435146  20.4022574  93.1737041  96.1367416  20.6401372  93.9501286
  97.1888828  21.1693382  92.9993820  30.0218320  56.9945717   9.9093360
  29.7692609  56.5527964   9.0986121  30.5754781  56.3605595  10.3651214
  81.9138336   3.9466912  90.8961868  81.4522171   3.5098913  91.6119671
  81.2910938   3.9385423  90.1693058 106.6844177  72.9995775  13.7459767
 107.2854805  72.9847002  13.0011749 106.6926098  73.9097452  14.0422189
 112.9683495  43.0324602  30.9944105 113.6058712  43.6965895  30.7322383
 112.7298164  43.2699585  31.8904710 109.1407871  49.2840672   2.7803990
 109.1357613  49.9519157   2.0947029 108.4152794  49.5262241   3.3559254
  91.0047913  38.1653476  94.8012066  91.3500690  37.2728252  94.8217297
  91.6579437  38.6856437  95.2690887  45.1615906  11.4739680  64.6721268
  45.3119755  11.9299603  65.5001879  45.9142923  10.8898234  64.5802307
  14.4419360  80.1403332  11.3116169  14.2887342  80.3482533  12.2333169
  15.3857493  80.2493668  11.1951613   2.1883658  87.8374863  18.0433762
   2.3050545  86.9386768  17.7355361   2.1402892  88.3604145  17.2430861
  22.4638247  11.6196597  91.2971115  23.0919218  11.7228091  90.5822086
  21.7060137  12.1382129  91.0268211  10.7701397  84.1416550  33.1989288
  10.6600916  84.5931625  32.3621106  10.7337940  83.2115269  32.9758263
 109.5027065 106.6386414   7.3515522 109.5966816 107.4469090   6.8474668
 109.2948151 105.9713173   6.6975778  93.4037113  78.8725328   5.5301803
  92.5851345  78.3871794   5.6330824  93.4126282  79.4856739   6.2651700
   6.6448665  48.8201904  34.5215464   6.6247439  48.4876442  35.4188967
   7.5153422  49.2074299  34.4290853  33.6290050  97.9315948  10.8081388
  33.6847234  97.4127865  10.0056612  34.2138314  97.4870682  11.4218223
  18.4078944  66.6863203  93.2124519  17.8369427  66.9370747  93.9386559
  18.3511138  67.4190092  92.5991154   4.7203040  92.1765423  27.8458214
   4.7372884  91.2321568  28.0009842   5.6308258  92.4528027  27.9500437
 105.4907322  47.6790857  42.9276896 106.2451363  48.2388973  43.1113052
 105.6794834  46.8631554  43.3912182   2.0140445  44.1086388  28.7876439
   1.2862983  44.4827080  28.2909656   2.5004247  44.8680496  29.1085196
  28.9441109 107.3161507  83.3566093  28.2833886 107.6318932  83.9730453
  28.4852386 106.6643333  82.8267097 109.9892902 103.8875771  11.7781222
 110.6311417 103.4681892  11.2050784 110.2433205 104.8104095  11.7873359
 105.2975559  79.5261908   1.0454530 105.3874111  79.8314190   1.9482225
 106.0133457  78.9009476   0.9316555   6.2255162  77.9583120  17.1991920
   5.9112036  77.1578503  16.7788315   5.6154424  78.6365318  16.9092631
   0.3429009 105.1610279   9.2236227   1.1026858 104.6002293   9.0672177
   0.5623922 105.9872818   8.7930936   8.0389190  63.7242174   1.6202091
   8.2998097  64.2004776   2.4084617   7.1590894  63.4016943   1.8154295
  17.2384214  61.6549301  30.5351329  17.1518517  61.0509586  29.7976017
  18.1733906  61.8568945  30.5708480  90.6627178  56.3519287  25.0424814
  91.2656975  55.9126091  25.6421900  90.0187492  55.6808949  24.8161006
 108.5344028  79.4508028  24.4269943 108.0542564  79.2262745  23.6299515
 108.9970016  78.6465883  24.6625113  89.9526405  27.8594542  82.6006413
  89.8300171  28.5342693  81.9329453  90.8308983  27.5163078  82.4359131
  18.0138671 105.6334591  90.5102253  18.2346368 104.7450829  90.7900047
  17.3073745 105.5159664  89.8751736   2.6551372 108.2310486  20.5749536
   2.5423974 108.6546326  19.7240174   3.5427555 107.8737164  20.5488992
   3.6207974  84.6186256  26.3546181   3.8070306  85.3899479  25.8192539
   3.0826595  84.9502373  27.0734191  65.0614977  91.1483383  82.6604176
  65.6571102  90.7275486  82.0404053  64.3469191  90.5208969  82.7695751
 109.4500923  52.0471668   5.0454992 108.5459900  51.9097853   4.7627366
 109.4081783  52.8129482   5.6182575  63.6087704  35.9500480  64.7212839
  63.4073162  36.8853784  64.7496700  62.7531910  35.5209494  64.7117472
   3.3264914  63.9563513   9.2764008   3.2542616  64.0343094  10.2276826
   3.3728597  63.0137968   9.1161627  10.1652539  79.9780512  10.9846425
   9.3761116  80.2466011  10.5141437  10.6552756  80.7901478  11.1135423
  75.9946632  75.1718378  31.9078827  76.9050360  75.2288628  31.6177082
  75.5760574  74.5928526  31.2708735  95.4983902  47.7712917  26.9357848
  96.3498688  48.2063627  26.9796944  95.6974792  46.8852186  26.6333461
  70.2361250  70.5559683  24.4556475  69.6092987  69.9597740  24.8653769
  69.9134541  70.6649780  23.5610890   2.2522785  55.9451675   3.0574062
   1.5130630  56.0330248   3.6591315   3.0204630  56.1511612   3.5900331
  42.5645590  61.2139463  86.4727879  42.8335094  61.7149401  85.7027912
  43.3856058  60.9086561  86.8586731   7.7254301  54.4273758  30.2262664
   7.0850259  54.2731047  29.5317793   7.2476763  54.2495537  31.0364294
 104.0006256  95.9339714   9.5968819 104.2739201  96.8375301   9.4383770
 104.0155888  95.5240059   8.7320501  67.3789406 100.2932644  94.5382118
  67.0171404 101.1259460  94.8414612  68.3130598 100.4663944  94.4212627
  83.5591888  50.1193571  13.6570609  82.6718426  49.9177790  13.9540565
  83.4346676  50.7080507  12.9126370  80.9740353  23.4004974  73.1577969
  80.4035378  23.5443687  72.4027777  81.8240452  23.1796217  72.7770853
 115.7728481  55.1745367  45.1365995 114.8782730  54.9391699  45.3826952
 116.2909698  54.3971014  45.3448772  56.6789293  15.2709162  21.4742374
  57.2053051  15.6280351  22.1895170  55.7820606  15.5318570  21.6834450
   4.7065452 104.7163963  34.6375251   4.9051291 105.3223038  35.3514409
   4.5404118 103.8800430  35.0724244 114.1735458  97.5624752  22.2390842
 114.9606037  97.1051407  22.5350857 114.1076374  98.3235931  22.8157854
 114.9369812  99.2161369  19.7309673 114.3117046  99.3288898  20.4468942
 115.7110023  98.8361740  20.1465940 106.8728447  87.7069283  51.0194063
 106.6611767  86.7915154  51.2022924 107.1523476  88.0613804  51.8634892
  33.1346011  67.1274281  13.7542892  34.0265417  67.1869850  13.4120500
  32.6006556  66.9001484  12.9930556  32.3224664  90.3737164  10.6313586
  32.8587675  90.6731987  11.3654745  31.8190694  91.1454391  10.3719926
  49.5245504 100.8884430  13.0066299  48.8695240 100.2133369  12.8293943
  49.4015074 101.1047649  13.9309108 105.6852436  79.7743893   9.3039376
 105.2645302  79.2597771   8.6151588 106.5640926  79.9507952   8.9681870
 101.8653393  73.6631155   6.3269776 102.2748280  74.2245674   5.6687051
 102.5706577  73.4611750   6.9417727 102.9612255  34.4655490  94.2085361
 102.4590492  33.7362170  93.8450432 102.4283981  35.2389359  94.0235996
  95.0795364   5.3021371  80.8007050  95.2097130   5.8827311  80.0509071
  95.7645607   4.6394515  80.7122612  32.6296616  97.2537041  41.7132425
  33.3284712  96.5995598  41.7127752  32.9870415  97.9856110  42.2160530
  36.7508936 102.7361107  27.1210742  36.8519735 103.4061241  27.7971649
  35.8499074 102.8390217  26.8147016  81.4615436  55.6509615  94.9259635
  82.3596569  55.6201275  95.2556127  81.5332313  55.3822609  94.0100526
  54.9878407   6.1395830  19.0776110  55.7711315   6.5233111  19.4718778
  55.1955223   5.2094108  18.9888382  87.7338314  24.4755507  71.5354395
  87.1456814  24.4527602  72.2902870  88.5371590  24.8745203  71.8696928
  85.7909203   0.6769499  41.0881376  85.4854012   0.2123714  41.8672752
  85.3466892   0.2419916  40.3603363  76.1955452   1.4299145  20.4884291
  75.7554293   0.6953350  20.9161234  76.1710978   1.2139122  19.5562398
 112.5972843  30.5433154  84.4518661 112.3656845  29.6645880  84.1511536
 111.7608452  31.0052180  84.5087242  11.9174865 109.3175848  28.8225698
  12.3093274 110.1489858  29.0899014  11.0749820 109.2930310  29.2762399
   2.8293306  81.5882015  36.1784673   3.7501958  81.6860676  36.4206696
   2.4071193  82.3771381  36.5184045 115.3201103  62.0414877  35.1824045
 115.7901478  62.3503256  34.4078588 114.5374107  61.6150999  34.8333979
   0.3501378  67.8580618  32.0735049   1.1704312  68.2853556  32.3200035
   0.1851521  68.1545734  31.1784649 114.5266342  83.1084538  20.3912640
 113.5933018  83.1530857  20.1836085 114.7544479  83.9976978  20.6625009
 105.4361439 107.8859615  10.1546407 106.0157967 107.1446514   9.9794424
 105.9042072 108.6439610   9.8045212  16.2507987   9.5341885  28.5111260
  17.1665704   9.3315601  28.7022662  16.2820530  10.0421393  27.7004218
  97.7595234  35.3023887  85.4404831  98.4860802  35.9090257  85.5830860
  97.5189209  35.4283929  84.5226288  95.5294323  76.0524940   7.8361213
  94.9338341  76.2952185   8.5450554  95.1353359  75.2706242   7.4493438
  30.5272031  83.5749626   5.3432655  31.3961816  83.1866550   5.4448920
  30.5510783  83.9936066   4.4828019   2.5041386 106.6539478  39.5375228
   2.0269786 105.8248425  39.5711923   3.4006476 106.4244461  39.7821283
   6.0749662  72.1605968  31.0232568   5.9672248  71.3804007  31.5672398
   6.8043566  71.9478035  30.4410720  66.3007069   5.9247220  88.2073975
  65.9467268   6.7497277  87.8752899  66.2198400   5.3164154  87.4727917
  54.2735347  -0.2617370   9.1931909  54.4726214   0.2148903   9.9990600
  54.6325776   0.2866734   8.4956485  75.2122164   2.8757361   1.1259378
  75.0024271   2.0428991   0.7033255  75.7912159   3.3196014   0.5062771
  78.0629206  11.0367191  38.2937455  78.4551764  11.8618941  38.0083418
  77.3173809  11.2999046  38.8333154  17.9393172  98.1374359  18.9811909
  17.6395309  97.3364353  18.5513616  18.8917530  98.0485821  19.0158653
   7.2509396  94.0741348  66.6546488   7.7929205  93.7150002  67.3571539
   6.3671577  94.0965652  67.0216084  23.5597587  24.1683984  67.7307844
  23.0198479  23.3782530  67.7508163  24.3542886  23.9038849  67.2671175
  43.7552834  73.5454512  60.7945442  43.0507088  74.1366482  61.0596704
  44.5453644  73.9281893  61.1760139  97.5481224  29.3784976   1.3612904
  98.0803776  29.1240168   2.1150652  98.1816864  29.6900272   0.7149389
  98.5448933  50.1862049  94.2264080  97.7415466  49.8071337  93.8697910
  98.9103317  50.6964540  93.5036755  78.4283257  26.1998630  90.7114792
  79.0651321  25.7218456  91.2427139  78.4045315  25.7247043  89.8808861
  73.2478619  29.1154146  32.4642467  73.3240318  29.2104435  31.5148258
  74.0127277  28.5975242  32.7152467   5.3868234  77.9941320  25.3958869
   4.7205836  77.6689148  26.0013556   6.1849207  77.5281477  25.6451440
 112.7633762 100.0517845  36.8288946 113.4910011 100.1432419  36.2137294
 113.1807804  99.8395729  37.6637411 101.4868546  57.7359676  85.6611538
 102.0410061  57.1044970  85.2024746 101.2482929  58.3764505  84.9910069
  64.6601772  73.5561037   6.2220937  64.4438267  73.2265282   7.0943350
  63.8693810  73.4025526   5.7050872  25.4114532 104.7706509  12.6052463
  26.0630274 104.7131252  11.9064093  25.7704067 105.4154015  13.2149088
  13.8579273  80.6584167  35.0141692  13.9435637  81.6106987  35.0594664
  12.9944396  80.4776478  35.3855777  22.3645115  64.3908548  31.1711860
  22.1121693  64.2374992  30.2606702  23.2898521  64.6315432  31.1259890
  32.5977898  83.8101006  18.9096892  32.6987910  84.0855122  19.8208284
  31.7598987  84.1845608  18.6377585   4.7256389  46.4759827  22.0021701
   4.3380103  46.5803719  22.8711224   4.2526409  47.1006012  21.4522982
  35.3804922  71.6124582  10.0493765  35.4522467  71.2487936   9.1668630
  34.7971463  72.3650408   9.9516046  99.5491219  10.9455240  85.5659962
  99.7061729  10.7348657  86.4864254  99.2092609  10.1339126  85.1891518
  96.4519215  82.3043537   6.8777978  97.0495510  82.5940514   6.1884820
  96.6760826  82.8478813   7.6331556 102.9968929  53.0246496  44.0977430
 102.7175236  52.8326607  43.2025766 102.7727699  53.9463425  44.2261171
  24.3025494  97.2736359   4.9655738  24.8995352  97.2431755   5.7131791
  23.8397002  96.4362812   4.9943972  87.9112911  95.9822083  11.9776595
  88.3289623  96.0251045  11.1174607  87.8666306  96.8932438  12.2679269
 115.5179596  86.7083931  23.1876850 116.0291767  85.8992386  23.2000351
 116.1611366  87.4004269  23.3414102  38.9147687   2.6705533  26.9568205
  38.6576176   2.0354083  26.2884688  39.5368910   3.2468200  26.5128469
  47.3593283   1.7196137   2.7853161  47.5616646   2.5615665   2.3773873
  48.1736803   1.4605270   3.2165140  54.0529108   4.8811319  22.0810437
  53.8698959   5.0135416  23.0112076  54.5062399   4.0389165  22.0436573
  85.8339214  27.1669960  94.7413254  86.7342854  27.2301388  95.0600433
  85.5394650  28.0752826  94.6738815   8.3088601  66.7824125  32.5856543
   7.3875397  66.8368483  32.3318100   8.6582285  67.6557016  32.4080539
 104.3725491  53.5536814  91.7483330 104.2344856  54.3761826  91.2785816
 103.6177444  53.0140018  91.5132904  26.1662054  85.1239109  44.8247290
  26.9203281  85.0356579  45.4076052  25.4170609  84.8652458  45.3614855
 104.8151398 104.7268200  45.6672430 104.8846149 104.4062042  44.7680140
 104.0207386 104.3153000  46.0075426  82.3859119  26.5599012  80.7784367
  82.6188660  25.8692312  80.1579952  82.4452019  27.3686671  80.2698898
  88.0756187 100.4765320  33.2721186  88.5332298 100.3871250  32.4361539
  87.1577454 100.3041172  33.0623579  72.9264688   6.0037982  94.5680618
  72.7744722   6.4445150  95.4040623  73.6266327   6.5089893  94.1547966
  14.6337616 108.3653069  29.6904135  13.9958024 108.6011600  29.0169072
  15.4266739 108.1436920  29.2021441 108.8118458  34.9047303  92.0971298
 109.5189285  34.4342899  92.5386620 108.4735394  35.5061865  92.7604771
  97.1620750  65.5801678  25.5292654  98.0561638  65.7793570  25.8070350
  97.2633839  64.8932552  24.8703861  19.1619098  69.9319315  24.2520857
  19.3566108  69.8831606  23.3161664  19.5356536  70.7677698  24.5312357
  16.0188663  76.9451523  34.5799208  15.7571518  77.3889446  35.3866363
  15.6918550  76.0512829  34.6813750 105.2627563  84.6278191  41.5046167
 105.3964043  85.5583191  41.3242388 105.8464146  84.4400978  42.2396898
  19.6243632  89.4031525   1.8702596  19.5529938  89.3879223   2.8246737
  20.4579520  88.9704609   1.6854784  97.3417950  76.6380978  10.4295957
  96.5823269  77.2061539  10.5590367  97.0467186  75.9844589   9.7956234
  90.1243973  36.6373277  89.7728825  89.6055794  35.8392620  89.6721268
  91.0230064  36.3636398  89.5889568 115.1216221  90.4456615  67.2221947
 115.6353474  91.1828232  67.5522280 115.7207108  89.7000980  67.2602987
  10.2490652  91.7662144   6.5836692  11.0573840  91.8081570   6.0726964
  10.5034173  91.3345528   7.3992711 107.0201969 105.5369854   9.7604483
 106.7486954 104.7914124  10.2958333 107.3831558 105.1427650   8.9672989
   7.4972421  81.3272190  17.2826004   8.1119972  81.4991665  17.9958630
   8.0159599  80.8621120  16.6262209  13.0834579  30.3928852  52.0577908
  14.0330231  30.2754045  52.0302773  12.7376521  29.6728015  51.5304089
  49.5713902  26.6260266  72.4008942  50.1230431  27.3920870  72.2425842
  48.7540627  26.8205357  71.9422245 116.2317276  71.0324192  26.0683870
 116.9388008  70.7502985  25.4881287 115.5720901  70.3426838  25.9950399
  95.2369404  19.9274445  74.4504690  95.2925491  20.8436441  74.7219753
  95.2412605  19.4339073  75.2706099  64.6259594   3.5711235   1.2257919
  65.5589294   3.6410618   1.0235341  64.5383167   2.7235967   1.6619673
  55.5684996   7.7395928  91.6619301  55.8425570   8.2823575  90.9226513
  55.0253296   7.0563322  91.2690449   6.0513926  74.7235250  31.6903639
   6.1270571  73.8096046  31.4160299   5.1370001  74.9497461  31.5202379
   6.3519390  59.6593411   0.6245578   6.9674022  60.2206127   1.0961593
   6.9005973  59.1514857   0.0268234 112.5184536 108.8746929   3.8201079
 113.1518269 108.2398891   4.1549200 112.8182411 109.7162437   4.1638300
 113.1404972 102.2871494  29.5036507 113.0965042 102.3720837  30.4560590
 112.3628139 101.7792797  29.2723060 105.3786850  84.7973061   5.4478282
 105.4659748  84.3371868   6.2826353 105.3538895  85.7239342   5.6865215
  14.3999982 102.4801731  13.4490097  14.9571073 103.2526493  13.5446239
  14.8316932 101.8069458  13.9749730 114.4214630  78.5248852   3.3253482
 114.4881344  79.4169426   2.9847354 114.5234585  78.6217785   4.2721543
  16.0338724 104.9013805  15.1681972  16.3209319 104.7632790  16.0708356
  15.1337767 105.2169323  15.2487385  23.3667636   0.6126421  16.4299285
  22.7085567   0.9856465  17.0163274  23.7405419  -0.1176633  16.9230568
 115.7622623  68.2925701  12.3734713 115.3598690  68.0493212  13.2072222
 115.0395298  68.6406231  11.8512237  32.8858089  90.3397751  17.0743895
  32.8578234  89.6475506  17.7349007  33.4865594  90.0093365  16.4064479
  84.1924191 101.9329453  38.3375335  84.9086189 101.3720417  38.0397511
  83.8624763 102.3444462  37.5387597  32.3654413  13.4069514  62.8372669
  33.2823253  13.2239139  63.0423307  32.0984268  14.0537155  63.4904385
  11.3211083  90.7045364  48.8576984  10.4541934  91.1090851  48.8898039
  11.9292891  91.4297867  49.0003872  74.1528511  21.3531494  86.0663319
  73.7335920  21.9497275  86.6864586  75.0715542  21.3357544  86.3344860
  24.2785645  89.1017723   2.6207882  24.8921704  88.5445976   2.1419665
  24.8313379  89.6172810   3.2080957   7.6600569  64.1253948  25.3988457
   7.5886786  63.7966919  26.2949991   7.5965148  65.0764227  25.4867864
 110.6803131  80.6065845  33.4894800 109.9855232  80.7978058  32.8594565
 111.4342880  81.1041069  33.1728864   5.5712664  69.7744513   7.4801254
   5.6786764  70.4119062   8.1860608   5.6073231  70.2963972   6.6785622
 114.6189976 100.7274342  34.3108439 113.8003063 100.4355717  33.9098454
 114.6261787 101.6753483  34.1780043  85.2698326  72.9832172  18.1286371
  85.1884651  72.0362949  18.0148387  86.0386944  73.2215166  17.6106620
 114.0200424  23.7809587  80.5665779 114.7447109  23.4170818  80.0579834
 113.3285046  23.9338160  79.9226475  89.3326283  43.7266541  91.4164352
  89.6305656  44.2286158  90.6578159  89.4672775  44.3139982  92.1601582
  65.6923819  23.5038948  92.6533985  65.7916594  22.6186109  92.3031902
  64.9230194  23.8542056  92.2044086 100.0996590  86.9609070  11.9169295
  99.9707413  87.8966713  12.0717514 100.3920650  86.9067287  11.0070968
 116.0237883  65.5880737   3.4085533 116.3915199  66.4120102   3.7281397
 115.7865376  65.1079750   4.2019325  91.8504524  88.3925915  13.6655080
  92.1354008  89.3063927  13.6690629  92.0481777  88.0766201  14.5471513
  97.8489971  76.5394115   6.8534780  97.1074963  76.2540674   7.3873085
  98.4792423  75.8216763   6.9157994  12.2768593  52.3331118   4.0083262
  12.0406747  52.9621220   3.3265677  11.7969823  51.5378237   3.7770960
  85.5121803  21.3756824  88.6454773  86.2193871  21.3404346  88.0013752
  85.3408623  22.3101687  88.7621689   0.8810081  99.1329384  16.6022289
   1.3018656  98.7467003  15.8341575   0.3554310  99.8518276  16.2512314
  10.3925228  56.2336063   8.6749166   9.8417425  56.6294718   7.9995179
  11.2723172  56.5618277   8.4892768 112.5627995  99.5251179  50.8767557
 111.8219090  98.9829731  51.1476564 112.2854710 100.4215145  51.0659456
 113.3428383  71.1006975  34.2136288 114.0141487  71.4591932  33.6330557
 112.7128315  70.6862259  33.6241126 116.0907173  62.8088999  37.6146460
 115.8568382  62.8233767  36.6865706 115.5230999  62.1381235  37.9942513
 101.0388851  84.4282150  12.7603304 100.8006287  85.2758121  12.3847759
 101.8518353  84.1890240  12.3152018   6.9851196  80.1756191  76.5785551
   7.6443166  80.5098152  75.9702778   6.4565676  80.9413338  76.8033600
  65.6125307   1.1521281  31.6987419  66.4587450   1.5956520  31.7573786
  65.6452799   0.4824245  32.3818636 105.9525681  13.2817960  22.0568871
 105.6471443  12.7292812  22.7763844 106.3402367  14.0435565  22.4877810
 106.4289665   9.9596119  86.4798641 106.4679146   9.1445720  86.9802856
 106.0154247   9.7131646  85.6525326  35.7552624  70.7822132   7.4089122
  36.5643167  71.2521553   7.2068900  35.6464624  70.1691437   6.6819036
  67.9900551  15.1704311  67.2589827  68.1273365  15.3510153  66.3290501
  67.0455408  15.2625883  67.3839808  26.2952828  97.6888084  54.3663359
  26.6375947  98.5328388  54.0719509  26.5657401  97.6270199  55.2824497
  26.0223651  80.4616928  22.2480989  25.9423256  81.3665390  22.5498939
  26.4787817  80.5284405  21.4093733  67.7725792  14.1825831  31.2605453
  66.9176149  13.7574553  31.3278794  68.1238508  14.1563928  32.1505761
  21.2996745 107.1615410  27.1489501  20.7103443 107.9039955  27.2819233
  22.1732092 107.5166702  27.3134255  77.7077579  37.2083688  85.2137852
  77.1025085  36.6195512  84.7630119  77.9247808  36.7522120  86.0268307
 114.4751263 105.1911545  30.6831670 113.6897945 105.7340240  30.7524085
 115.0966740 105.5903435  31.2918949  80.6615162   7.1191436   6.4393568
  81.2498474   7.8278071   6.1787850  80.3818893   6.7241246   5.6135243
  19.9226582 104.6515369  44.2716885  20.3988194 105.4418659  44.0169668
  19.0003669 104.8794365  44.1547632  36.0384011  97.0160770  15.4392719
  36.8318248  96.8756962  14.9225473  36.2545753  96.6756344  16.3073730
  23.6087012  90.0387287  21.2713981  23.5406661  90.4348278  20.4026556
  23.5705638  90.7797241  21.8761349  70.9189749  95.5184937  89.1518784
  70.5930662  96.3302422  89.5405483  71.6717434  95.7898140  88.6265659
  38.6682153   4.4286525  77.7426958  38.0347705   3.7659669  78.0180645
  39.5186114   4.0629265  77.9862118  20.4378772  90.0054646  36.2729383
  20.0080729  89.1969490  35.9939885  20.6547308  90.4554558  35.4564142
  75.2831602   4.9876940  17.9110181  76.0539341   4.4201183  17.9122186
  75.3351736   5.4604995  17.0803666  30.4238200  99.3086720  18.6570930
  30.5196095  98.5941505  19.2867875  29.5829225  99.7100067  18.8763177
  65.1655197 100.6639576  10.8886778  65.9818459 101.0148430  11.2446606
  65.0055122 101.1826801  10.1002872  13.7768567   7.5916868   0.3405740
  13.8829613   6.8413377   0.9253380  13.7517476   8.3492392   0.9251389
  25.3175092 105.0989056  18.7754524  25.8566427 105.8111763  18.4315825
  25.5812788 104.3319511  18.2670939  88.5005665  13.3056748  91.8285084
  88.6078548  12.5774848  92.4404335  88.6582851  14.0879464  92.3570919
  48.8579082   9.5233715  25.7302570  48.9026976   9.6823186  26.6731048
  49.0568304   8.5919619  25.6346655  28.5267973  92.4896526  31.9943190
  29.4141030  92.6710129  32.3042083  27.9941797  93.1912231  32.3689604
  10.9004331  87.7747726  43.5635710  11.3015127  87.0773315  44.0821648
  10.9183788  88.5405922  44.1375351 105.3365326  43.4802818  93.9531994
 105.5535221  43.7813473  94.8355293 105.3113937  44.2793941  93.4268761
  68.7077427   8.1534302  34.1935468  69.4458294   7.5453269  34.1526723
  68.1608105   7.8188276  34.9042773  20.1565862  82.6596451   8.9837575
  20.2754784  81.7099857   8.9680243  20.6292582  82.9730129   8.2126451
  51.0628700   4.5511463   8.5528696  51.3918877   4.9217474   9.3717909
  50.2118397   4.1785654   8.7834442  21.9686389 104.7640896  18.5423470
  21.5389991 104.9863052  17.7163541  22.8262830 105.1855564  18.4871876
  80.0288010  10.4805183  40.8537626  79.3607712   9.9948394  40.3699446
  80.0995731  11.3157070  40.3915071  46.2053156   5.6721163   2.9949784
  45.5882978   4.9665454   2.8008476  46.6569090   5.3838795   3.7882105
 103.7821579  81.4326668  90.2139282 104.0706825  81.5143013  89.3049049
 103.4317398  82.2961998  90.4324627   4.7098151  72.5272465  54.1114187
   4.0736505  71.8968344  54.4492149   4.1765767  73.2232237  53.7273550
  56.6710472   7.7868640  16.0334218  57.5482702   8.1162107  16.2289882
  56.6464186   6.9181418  16.4346027  92.5578403 107.0844269  15.6460512
  92.2282028 107.8686714  16.0848534  92.0142937 106.3735390  15.9857941
 116.2820014  73.8048410   7.6115149 116.2343841  72.9558182   7.1720582
 116.3500167  73.5895824   8.5417140  20.4492760  69.5924091  52.2956228
  21.3627887  69.3890810  52.4965858  20.0212097  69.6415091  53.1503630
   3.3950332  70.0951576  89.9793720   3.1766185  69.1859484  89.7747612
   2.7769881  70.6120729  89.4626045   4.0629050 103.2732391  16.6463208
   4.2345986 103.2962990  15.7049274   3.1228715 103.1060696  16.7143118
 104.8431778  48.9344788  81.9217300 104.5018673  49.2895937  81.1009789
 104.1323757  48.3907700  82.2614002  27.3547673  60.0803471   9.7161007
  26.5270686  60.3862047   9.3451571  28.0184436  60.6431293   9.3172979
  48.5878134   0.7072625  14.9333692  49.0219307   0.7438571  15.7856822
  47.6694822   0.8985385  15.1239109   9.2800939  79.0190601   7.6663190
   8.3249301  79.0731382   7.6974559   9.5240855  79.5325661   6.8962461
  29.2078495  91.8112278  26.9865060  28.9185810  91.7418766  26.0767007
  29.8359251  91.0968304  27.0932579  16.2276542  94.3428135   3.9305738
  15.4215539  94.8144531   3.7208328  16.8072081  95.0104332   4.2974958
 102.9766369  34.7656751  88.7512016 102.3075771  35.4193544  88.5480118
 103.3655643  34.5495868  87.9036903  97.1772957  11.4913988  88.1819248
  98.1251049  11.3609290  88.1522274  96.8792248  11.2847733  87.2960949
  28.3700681 100.3707695   5.4097927  29.1408658 100.4807186   4.8530054
  28.5696673 100.8763313   6.1977017  87.0795441  51.2361813  93.7376595
  87.7853870  50.7442427  94.1571999  86.8897343  50.7470846  92.9370403
  18.7834060  91.6649914   5.4566950  18.1528091  91.8045998   4.7502333
  18.2465100  91.4347363   6.2149531 104.5316315  46.7522764  84.9795723
 104.2734528  46.3627815  84.1441917 105.4383564  47.0280123  84.8452282
  59.3239641  93.8736629  25.7717347  58.6822224  93.3386612  25.3046489
  59.3624878  93.4907913  26.6481781  20.8482885  98.1060886  16.2754488
  21.0060787  98.1940460  17.2154474  20.2304482  97.3785496  16.2033415
  46.5451717  30.3681135  26.3306952  46.8954229  31.1421585  25.8897734
  46.9222784  30.4020715  27.2098255  65.7880783  13.0521572  81.8838596
  66.1215830  13.4030247  81.0580826  64.8863792  12.7969134  81.6888618
  52.7983379   7.2858483  42.0215845  53.6390877   7.7139395  42.1831799
  52.3124647   7.9086190  41.4809227 104.2306805  68.0825472  48.4741735
 103.6947727  68.3148623  49.2325068 104.0027809  68.7342358  47.8111506
  39.2745519  56.1009121  30.0813007  39.2964363  55.1631165  29.8907948
  39.5148802  56.1631918  31.0057449  32.7839589  56.0266399  19.9878109
  33.2236624  56.2690115  20.8027649  32.4648499  55.1376534  20.1430535
  36.0757613  46.3162518  16.3114572  36.2076688  46.1996460  15.3705871
  35.8122754  47.2317314  16.4047265  63.5259676  42.1738958  91.5992546
  63.1659222  42.4617481  92.4381447  64.4353056  42.4724293  91.6138077
   5.1355827  28.9474177  93.0133533   5.8512068  29.5555615  92.8282166
   5.5144984  28.0804372  92.8684425 110.3223610 103.8258457   7.5999302
 111.0020638 103.6199760   8.2416987 110.1556778 104.7608471   7.7191657
  62.7549601  10.8900118   2.0825547  62.1300364  10.1679981   2.1488781
  62.2342300  11.6294444   1.7690034 109.9065399  76.6680670  22.6009130
 109.9265385  77.0011854  23.4980559 108.9755821  76.6226101  22.3829985
  42.9324627 104.2367077   8.2944363  42.1466064 103.7477875   8.5386121
  43.1682253 104.7216415   9.0853107  21.2508202  91.5860081  17.5878477
  20.5383062  90.9512806  17.6632655  20.9275627  92.3640633  18.0421233
  26.2995696  64.3497849   3.3180374  26.1101842  64.8260880   4.1264325
  25.4770112  63.9115238   3.0999580  28.4651089 102.8234673  14.0747976
  28.1743765 102.0556068  14.5668256  29.3746877 102.6314735  13.8466787
  20.2175140 102.4493408   3.8326418  20.1346183 103.1943607   4.4278809
  20.6761885 101.7834091   4.3448669 110.9418392  65.4595280  75.3474617
 111.3936901  65.2053213  74.5428228 110.0580406  65.1056576  75.2478790
  23.7581754  62.5631952  10.4429400  23.5972333  61.7039680  10.8328795
  23.4780145  62.4693108   9.5324862  79.7991848   5.2925766  19.9058998
  79.8704672   5.3649485  20.8576941  80.6989956   5.1595622  19.6077538
  25.4464459   1.7429705  11.9929373  24.8768926   1.8767089  12.7505362
  25.0164413   1.0520310  11.4890218  51.4999723   1.1111390  19.6083438
  50.9677219   0.8775716  20.3688598  51.6993093   2.0392269  19.7314274
  63.7013149   5.9067321   4.7368938  64.1740847   5.0957489   4.5497376
  63.6622334   6.3608879   3.8952008  75.7800102  86.2607193  35.7204628
  75.2707386  86.4955425  36.4961767  75.1338148  85.9126854  35.1060295
  81.0477066  17.3615801  19.7110176  81.6770458  16.9650781  19.1085708
  81.5294361  17.4558234  20.5327773  44.1368818  14.2924905  25.6517696
  44.4820166  13.8535476  26.4292312  44.4046497  13.7334454  24.9223876
  93.5443020  24.6964264  82.0755196  93.3778095  24.4711947  81.1602116
  94.0467548  23.9565611  82.4166584  49.3211031  88.7227058  93.3214760
  49.2391109  87.7717495  93.3936024  49.0492058  89.0522003  94.1780663
 115.3398323  35.5105019  89.7207546 115.8277225  34.8897457  89.1795921
 116.0128593  36.0663772  90.1135349  90.5153084  20.8074212  81.8832302
  89.6846771  21.2499475  81.7087078  90.2721596  20.0331354  82.3907757
  46.3924217  11.8188524  45.1136541  45.9112358  12.6459992  45.0908375
  45.9827042  11.2845647  44.4332886  37.8772879 104.7975063  58.1853819
  37.6771140 105.4356766  57.5006199  38.6269069 104.3087959  57.8455877
 103.4395885  92.5419712   8.3087218 103.7619114  93.2875252   7.8022790
 104.1416454  92.3540878   8.9316517  94.4820595  99.4906616  88.3858204
  94.3481541  99.9229336  87.5423527  95.4305553  99.5041084  88.5139370
  34.9948621   8.2516450  59.0747499  34.4739676   8.1106311  58.2841730
  35.4686999   7.4293208  59.1992140  56.5355206   5.1619124  12.0323610
  57.0911217   5.0614232  11.2594199  55.9209251   5.8569193  11.7968321
  25.4743767 102.3402882   9.2589915  25.8274698 102.4209499  10.1450217
  25.4536867 101.3975906   9.0943033 110.3334522  96.9352722  21.0669017
 109.4674301  96.8597984  20.6662202 110.5177212  96.0592461  21.4058232
 113.0617619  31.5453529  93.7777996 112.9294205  31.3612747  94.7077656
 114.0116692  31.6100502  93.6792564  59.0296602   3.2834536  14.5855772
  58.9753056   2.3590288  14.3432641  59.5544338   3.6825091  13.8916051
  23.3041453 100.6687641  27.5182414  23.3005619 101.5793610  27.2232223
  23.6530781 100.1774216  26.7745590  10.7941890  85.9275055  39.8843622
  11.1767435  85.0533390  39.9599743   9.9616182  85.8659172  40.3526211
  31.5646887  92.6530457  17.1958506  30.6310463  92.4668694  17.2952712
  31.9864392  91.7951202  17.2439015   3.7345263  58.7465906   0.4685083
   4.4912684  59.2623520   0.7470143   3.0327684  59.0103531   1.0636526
  40.1915503  10.8354044  44.1664696  39.7809434  10.1022553  43.7080765
  39.8773384  11.6127789  43.7047434 101.3242245  79.3972683   9.5932263
 100.6197929  79.7764826  10.1187754 101.5954494  78.6199045  10.0814581
  86.3350010  35.1166606  91.3500881  86.5279770  35.2467918  90.4216194
  87.1942902  35.0745893  91.7697144  17.0388615 102.4788189   5.5013639
  17.7950382 102.0465088   5.8982754  16.5068448 102.7614880   6.2451988
  48.0582666  90.9162617  19.6950793  47.5599670  90.9932137  18.8814414
  47.3946714  90.9318924  20.3847384  32.2542191  76.4688158  10.8743227
  32.0661378  76.4095020  11.8109870  32.6951814  77.3121500  10.7715106
  46.7736101   9.4906360  18.8104904  47.6389837   9.1046792  18.9461160
  46.4909697   9.1523552  17.9608345  31.9725037 105.7273102  40.9683657
  32.8609800 105.9175587  40.6672955  31.4153647 106.3131618  40.4559183
 100.8182812  99.1638660  21.8044066 100.6627083  99.9859333  22.2694135
 101.5792179  98.7816811  22.2416115  61.2394094  23.9143872  21.6749859
  60.8039951  23.1471658  21.3034749  62.0039845  24.0502858  21.1153507
 110.0564766  47.5818682  93.0966282 110.0485420  47.6992607  94.0465736
 109.5856380  48.3430386  92.7572918  50.8125877  95.7143402  18.5858226
  51.4990330  96.3066387  18.8927639  50.2924919  95.5252934  19.3668437
  43.9042187  78.1414557   9.5255107  44.3900299  78.7063551  10.1264346
  43.0297899  78.5288858   9.4867188  28.0538225 100.1731968  57.9147530
  28.2602477  99.5061493  57.2600269  28.9021516 100.4140568  58.2869864
  54.0240335   4.3152559  34.1378522  54.4285488   5.0979710  34.5119572
  53.1095743   4.5614797  33.9986682  54.8461246   2.2889951  45.1971149
  54.7025585   1.5713468  44.5801878  54.5652533   1.9381315  46.0422421
  68.3070183  15.4014719  64.3301010  68.4924555  14.6504354  63.7663698
  68.6883163  16.1478782  63.8677979  32.3332977   4.6741870  26.3969636
  32.1539116   4.5893598  25.4605579  32.4430060   3.7736690  26.7023540
  10.5538452 108.1344032  13.4745383  10.1712990 108.9157867  13.8737011
  10.8915961 107.6287270  14.2137599  80.8615017  -0.0556643   9.2881262
  81.1443233   0.8587298   9.2993283  81.4482117  -0.4801929   8.6622071
 110.4397297  93.5911655   6.1473006 109.8068619  93.5419750   5.4308569
 110.0231743  94.1581535   6.7963278  81.3307190  55.5370617  91.1760807
  81.4632130  54.6217203  90.9294605  80.8333874  55.9114504  90.4489422
 112.5732899  95.6156445   9.7777599 112.6745415  95.7889652   8.8418442
 112.0004654  96.3158989  10.0904262  85.1403332  13.7123525  14.9765503
  85.5004978  12.9722810  14.4878674  84.3127155  13.3860767  15.3298593
  21.0616851  85.9655666  27.4256420  20.8196664  85.0461388  27.3147202
  21.6416192  85.9703922  28.1871438  12.5235236  94.1950989  15.2534711
  12.1746123  94.9097824  14.7208166  13.4713209  94.2442513  15.1289880
  24.4591951  71.9112110   7.6170373  24.5233130  72.0789433   6.6768318
  24.6611953  70.9800529   7.7085328  31.5544438   4.0469131  36.9893503
  31.0621905   3.2448235  37.1641922  32.1118617   4.1585171  37.7594566
 113.8704300  93.9226055  31.6068292 114.6690941  93.7951565  31.0948586
 113.5110092  94.7504330  31.2878585  85.1291943  21.1051607  76.3139772
  85.6656265  21.7762375  75.8919191  84.9573994  20.4659605  75.6225014
 112.1636200  84.9542618  17.5274682 113.0818367  84.9998283  17.7940047
 112.1904182  84.9780369  16.5709388  70.2219868   3.9574209  18.9735937
  70.2380991   4.0097368  18.0179608  71.1433029   3.8949591  19.2256117
   3.1781685  80.8168030  11.3516819   3.0519632  81.3414860  12.1422577
   2.3011941  80.7329082  10.9773695  25.0758433   4.1168043  58.3372211
  25.3110957   4.6638632  59.0866280  24.3077803   3.6264959  58.6303234
 112.9607296  82.9357243   6.5131962 112.9139233  82.0831776   6.0805106
 112.3389149  83.4824944   6.0329771  57.2323513  91.3920307  54.5226812
  57.6135731  91.1486721  53.6790705  57.7150679  92.1753311  54.7866106
  13.9572442  78.5172796   2.0868033  13.3694506  77.7658844   2.0084544
  13.5480869  79.1981554   1.5527344  15.7167947  68.6320639  34.5309520
  14.9018741  68.6282396  34.0288329  15.4394019  68.7696075  35.4366922
  93.0045509  49.6164083  92.6527691  93.5622311  48.9110899  92.3245049
  92.5604820  49.2373276  93.4112644 113.2812405  79.2487478  69.2647696
 112.5721645  79.6615744  68.7718058 113.7031460  79.9719810  69.7286224
  77.6717901   6.9900858  32.2227979  77.2289228   7.5955600  31.6282368
  77.0236588   6.3072807  32.3958230 115.9027672  96.1609745  62.0353651
 116.4163494  95.5190277  62.5256395 116.5136242  96.5119076  61.3873434
  92.6867485  59.4527006  67.5544691  93.0929756  59.5916033  66.6989470
  91.7936420  59.1734123  67.3530293  18.3690691 103.0731869  29.9841595
  18.2028961 102.6127052  29.1616178  18.0116928 103.9500713  29.8441768
  53.1611061 101.8414402  25.6565309  53.7208986 102.4640656  25.1926422
  52.4791145 101.6152191  25.0241208  53.0054379   1.2362994  59.1950655
  52.8834105   0.4064253  58.7339258  53.8348818   1.5768147  58.8599396
  44.0733719 108.3353329  27.1001768  44.1778374 109.0450954  27.7338648
  44.7404766 107.6944923  27.3461914  99.6155357  77.6760101  92.2746944
 100.2243328  77.3205948  91.6271782  99.8579121  78.5989428  92.3500538
   0.3990981  30.6980538  85.0430965  -0.0053128  29.8416209  85.1816750
   1.1600537  30.5171394  84.4913292  12.7173698  58.8416910  14.8697960
  12.1625745  59.5818377  14.6235859  12.1867287  58.3400536  15.4886734
 110.4614639  58.5372877  94.1173649 110.5598831  58.3227968  95.0450134
 109.7481251  57.9747486  93.8158321  93.3919621  33.7166762  81.6645813
  93.3649731  33.4832454  82.5924873  93.5671997  32.8901672  81.2146854
   0.3103982  50.3216314  67.8068304   0.5417214  49.3928146  67.8024912
  -0.6250133  50.3364468  67.6042747  23.1056404  96.0063553  19.4221950
  23.3775091  95.9687519  18.5051858  23.9228487  96.1068153  19.9103653
 100.8490467  48.6959457  84.9064541 101.6215038  48.6841583  85.4716110
 100.1115704  48.5849094  85.5064678  96.6260910  68.8627577  78.6810207
  96.3721085  68.3098984  79.4199848  95.8949184  68.7929440  78.0672312
  29.9528146  88.8544369  52.4982500  29.6680140  88.7594509  51.5893507
  30.9039307  88.9468288  52.4428082 111.1627579  84.3189907  45.0132036
 111.7960930  84.5305729  45.6990290 111.2085152  85.0593853  44.4082546
  37.4692202  10.3444040   3.3978602  37.4647665   9.7140306   4.1181666
  38.0302334  11.0561538   3.7059319  30.7862186  95.1017380  24.1731358
  31.2492776  95.0282860  25.0076485  31.4788866  95.0861168  23.5126829
  64.0283823   2.3501155  67.0628023  64.7495222   2.7839738  67.5188208
  64.3876696   2.1270691  66.2040901  62.9105186   7.5651485  42.9057932
  63.6733055   7.3923862  43.4576416  62.2645140   6.9139695  43.1794310
  47.0520830   2.7758986  63.1126642  47.9245520   3.0873856  62.8718185
  46.8077421   2.1780306  62.4062061 103.8389969 106.7839813  23.8696980
 103.2793713 106.1938572  23.3649182 103.5043430 107.6587582  23.6722064
   2.0738490  59.1052485  83.6958599   1.6952437  58.2261276  83.6895275
   3.0106315  58.9635754  83.5594845  34.8228240   5.2106220   8.3095086
  34.6290135   6.0887825   7.9816318  35.3944278   5.3571081   9.0631938
 115.4012546 107.5860596  20.4654241 115.0244162 108.0131435  21.2347245
 116.3473128 107.6711750  20.5835819  47.5059128  44.8850679  37.6808000
  47.8070974  45.2807283  38.4987092  46.5990782  44.6337175  37.8560209
  96.5771294  90.5135632  80.5129528  96.5389919  91.3682365  80.9422588
  95.9011650  89.9956131  80.9500217  47.1670675  21.4403462  17.4288273
  46.8364000  20.8926892  18.1408405  46.7226648  22.2799587  17.5462568
  51.6522551  24.5942378  11.3266778  52.1477127  23.8807917  11.7288542
  51.5396881  25.2338147  12.0298862  70.5096340  19.3477571  24.5096517
  70.8576918  20.2066112  24.2699575  71.2838984  18.8257277  24.7199512
  23.9764714 108.3155346  51.3821936  24.6721268 108.1752682  52.0245504
  23.3874822 107.5703239  51.5004253 110.2123642 105.2194118   0.5811222
 110.0650883 104.3523788   0.2032394 109.3415451 105.5169582   0.8445071
  37.7885079  11.9404614  70.2683926  37.9205155  12.4871504  69.4938326
  38.5951376  11.4303756  70.3418303  77.8553057  16.9904101  13.8181579
  78.6434984  16.8244219  14.3353009  77.2710562  17.4576604  14.4152832
 103.6031628  49.4090605  94.1272163 103.8162708  49.9609470  94.8797035
 103.2103157  48.6242914  94.5093632  73.6502838   1.3532260  16.2663245
  72.8554726   0.8754209  16.0292399  74.2613983   1.1706470  15.5525744
  10.6728876 104.5508003  32.8636217  11.2142885 103.7741756  33.0049491
   9.7816277 104.2597866  33.0564857  57.5978756   3.9160985  25.9859133
  56.6817141   3.8486120  26.2548518  58.0839014   3.9886770  26.8073416
  82.9609489  11.1843300  70.8973932  83.0678654  12.1333194  70.9623575
  82.3796749  10.9585214  71.6235876  36.7157316 100.8632183  74.6564722
  36.3846397 100.9030437  73.7592411  36.4292812 100.0090218  74.9797821
  83.9512825  31.8397641  84.3150902  84.2124557  30.9885192  83.9638042
  84.7660351  32.3400497  84.3611717  44.4041395  15.4747784   7.1929747
  43.5733604  15.6011796   7.6513004  45.0543976  15.8956039   7.7553833
  43.5956812   9.0070212  22.1926427  43.7821579   9.8430151  22.6199269
  43.5336161   9.2222756  21.2620282  47.4801683 106.8329144  44.5123053
  46.7308760 106.6711998  45.0855780  47.4895477 106.0858822  43.9139080
  32.6304293 105.3885078   7.3035097  33.1302214 104.6115494   7.0529449
  32.6355696 105.3782177   8.2606411  15.3722048  97.0563984  33.7289572
  15.7028413  97.1045780  34.6259475  14.9888873  96.1818886  33.6616373
   8.9797240 104.0282345  43.5121727   8.5568005 103.3174038  43.9939260
   8.5853922 103.9946938  42.6406145  13.4693718 103.7989521  36.8416667
  13.2995749 104.3802452  36.1003900  13.7424648 102.9735756  36.4411497
  49.4183493  34.2950439  10.7904971  48.6917925  34.2760396  10.1676118
  49.9874496  34.9963069  10.4733455  79.7025967  24.7418785  46.1681795
  79.0797377  25.4443097  46.3549089  79.9237633  24.3831444  47.0276117
  11.1683416  96.8189907   2.5141087  11.4721036  97.4157715   1.8301409
  10.5755115  96.2185764   2.0621324  59.6118307  12.9814160  17.2689807
  60.0298119  13.8419795  17.2380579  60.3260088  12.3751950  17.4656498
  23.6037543 109.2673829  23.5581708  22.7968171 108.9259286  23.9435172
  23.3356717 109.6102233  22.7056313  35.7106471  96.0665798  24.5858359
  36.3756609  96.2328529  23.9177489  36.0652685  95.3424931  25.1017690
  14.3108833 106.7866898   9.3853867  14.7409856 107.6332855   9.2648745
  13.8275266 106.8783379  10.2064836  54.0425253 100.3770065   8.6111850
  53.7801361 100.0622654   7.7461284  54.1341257 101.3237572   8.5039604
  23.2031584  84.7354794   9.4315612  22.8611398  84.5086670  10.2963233
  22.5884175  84.3333721   8.8178515  30.3182507  91.4486122  48.7269115
  29.5955825  90.9089375  48.4063864  31.0980439  91.0707283  48.3202648
  45.4954576   3.6497265  39.5229030  46.0778856   3.7933722  40.2688122
  45.0590754   2.8199756  39.7160769 112.0458412  86.5267086  25.9902287
 111.6425133  85.7454205  25.6118917 111.6568375  86.5989017  26.8618321
 112.9228687  31.5208316  66.4304304 113.3518887  30.6817532  66.5981293
 113.5889721  32.1761346  66.6380835  47.8228998 102.3998547  22.0423079
  48.2264900 101.5363598  21.9544959  48.1140375 102.8802490  21.2672639
  14.3227279  48.2251787  89.8045444  14.1139472  47.5305176  89.1799736
  13.9840531  49.0227222  89.3977833 106.3531971  95.7708836  33.7771177
 106.5455532  95.8330250  32.8415060 105.6832027  96.4374828  33.9286828
 113.2036114  88.6558628  50.1846743 113.2279682  89.4985294  50.6380653
 113.0399895  88.0158329  50.8773613 102.7887154  91.4693069  28.2605624
 102.9309559  92.3088264  27.8232908 102.2097397  90.9869194  27.6703811
  58.6397171  16.1696899  46.3573742  59.5175695  15.9169245  46.0715103
  58.4276676  15.5504131  47.0557737  19.6546841 105.8730888  32.1232843
  18.8945830 105.2920341  32.0941591  20.2664590 105.4991531  31.4891434
  13.8245320  98.4530354  18.2847738  14.0621614  97.5340462  18.1613731
  13.3227921  98.4633160  19.0998709  39.5705366  94.1579533  15.7018173
  39.1857815  94.7442722  15.0503361  38.8244176  93.6807919  16.0649347
  54.3254375  29.5968366  13.0036128  54.6146059  30.2815461  13.6067593
  53.3725023  29.6842551  12.9811358  54.9654722  93.5611534   9.9155653
  55.6809330  93.3160973   9.3288004  55.3685570  94.1533089  10.5504715
  10.9537554  73.9614677   8.6914647  10.7972777  74.7452927   8.1648064
  10.7869005  74.2405701   9.5917386  13.6030126 107.6602554  22.1502733
  14.1816640 108.1317711  22.7495003  13.6208940 106.7555237  22.4623108
  89.8918438  13.1465971  31.6208911  90.3917789  13.2025075  30.8065343
  89.0585136  13.5725701  31.4200807  46.2520123   8.3366650  16.4733815
  46.1735868   8.7298667  15.6042016  46.5978527   7.4593794  16.3090765
   2.3396774  56.2782907  76.7652559   1.4652355  56.2929964  76.3761950
   2.1845114  56.3591433  77.7063274 102.4351692  18.2679689  84.2755604
 102.0669842  19.1515243  84.2746162 101.6897964  17.6976919  84.0872860
  29.8584468 109.9972330   0.5660117  30.0709732 109.3948923   1.2789310
  29.3250759 109.4777046  -0.0355088  63.7926531  15.6658733  45.5367756
  64.3507051  16.4241219  45.3639412  64.2314959  15.2032673  46.2506723
 102.5943756  36.5874004  57.7812481 102.4072266  36.3590121  58.6917686
 102.9205608  35.7756090  57.3928785  93.1837654  87.4682903  83.1090355
  93.4874058  86.5982246  82.8501511  92.8995895  87.3624611  84.0169334
  23.5126114   7.1676213  13.5225928  24.0802956   7.5905436  14.1668785
  23.4322762   6.2647605  13.8301957  52.5652885  91.2578297  29.2224836
  51.8858528  91.6056442  28.6448812  52.7911377  90.4088211  28.8424921
  83.5929108  24.9412560  94.6655750  84.4883347  25.0749946  94.9763203
  83.1182098  24.6220446  95.4330254  65.0949335   3.0019596  24.5976925
  65.6587839   3.2733893  23.8733792  65.3758192   2.1091610  24.7983050
  66.7039537  28.3875823  21.3073874  67.2956610  27.7338099  21.6798067
  67.2730303  29.1218209  21.0765696  95.8905411  16.8428779  14.9929225
  95.1936054  17.2244585  14.4591618  96.1650372  17.5537312  15.5722058
  45.8252239  53.6484003   6.6032404  45.8146334  52.6912642   6.6000521
  45.9286022  53.8898516   5.6827807  86.4051437  60.9905767  65.8869934
  86.7257690  60.0937223  65.7916451  87.1481037  61.5386677  65.6343317
  84.8470688  52.9166365  88.6739159  84.6812057  52.0276546  88.9876556
  85.7979393  52.9617214  88.5736275  30.3090858  46.4058113  69.7236681
  29.7766161  45.8133364  69.1929340  29.6987081  46.7639828  70.3681707
  57.9799318  91.3756943   9.7125125  58.0921364  90.4405785   9.8834074
  57.2608328  91.4194012   9.0822577  10.5805576  76.8312263  14.1368568
  10.1605713  77.1672058  14.9286640  11.5009403  76.7287445  14.3789852
  87.7807617  84.5227432  20.4197693  87.2136974  84.7306156  19.6771693
  87.2092056  84.0662479  21.0371637  81.1012077  22.3532820  80.0607300
  80.8156490  22.4668264  80.9672546  81.9001961  21.8300986  80.1250458
 110.4850769 103.6159897  23.8337469 110.3495979 102.9091263  24.4648004
 111.3954926 103.8816071  23.9634323 112.3216534  65.4563284  37.9013014
 112.2810936  64.9850941  37.0691204 112.2624016  66.3798571  37.6567197
  33.1092620 105.9874249  63.4421682  33.7847996 106.3943577  62.8996849
  33.4497619 106.0485840  64.3346643 102.6828957  33.3473349  12.6615393
 103.5393810  33.4388232  13.0790246 102.5816059  34.1468096  12.1449995
 113.3705521  76.5875578  37.6015782 112.4374580  76.3744211  37.6134920
 113.5935211  76.7383909  38.5201430  63.4040880  26.3299680  76.4406681
  64.0158129  25.5937529  76.4374971  63.9344835  27.0809340  76.7070627
  47.7452660  80.1651669  67.2573423  48.4306765  80.6031513  67.7619362
  47.3811293  79.5169783  67.8602457  12.5391173  96.8067646  34.0140319
  13.4602642  97.0657539  34.0393901  12.2260392  96.9475937  34.9075532
  97.0179939  70.4603720  12.5744152  96.4044952  70.9864283  12.0614541
  97.2335911  69.7213268  12.0055938  57.4372625  96.8577671  93.1252956
  56.8638468  96.3380241  93.6885738  57.0220900  96.8229485  92.2635174
 103.5070801  44.6107388  12.7538180 104.0781403  45.3068256  13.0787492
 102.6223660  44.9645185  12.8452253   1.2485471  11.0009217  80.9928322
   1.1820645  10.8924758  81.9415474   1.9172986  10.3702271  80.7259464
  68.1270409  18.2420433  54.1340351  67.8718758  17.9290843  55.0018930
  67.3644066  18.7285340  53.8210678  53.9165020 106.1827660  84.4262886
  53.3580399 106.9503880  84.3033504  54.3811989 106.3533878  85.2455425
  15.8672929  53.4634018  15.1220691  15.0071311  53.8529587  14.9652314
  16.4604914  54.2116404  15.1889980  31.2807655  80.7408142  10.2382684
  31.2007070  81.6868305  10.3602290  30.9280419  80.5814838   9.3628079
   7.4645615 103.0472660  75.9109783   6.9190228 103.4225273  76.6022110
   8.0828178 103.7435627  75.6892443  96.4992619  72.6807308  24.8607206
  97.1774197  72.8761816  24.2140913  95.6806946  72.9314661  24.4325757
 102.2489262   9.8185360  67.6928711 101.4941978  10.4056084  67.6484776
 102.9670906  10.3223193  67.3098993  57.3288965   8.9550906  73.7186050
  58.2445621   8.7026304  73.8371420  57.0410538   8.4592915  72.9520798
   8.9251453  61.1115551   2.1978417   8.4688115  61.1433363   3.0386636
   8.5639644  61.8459415   1.7014012  51.9122410  17.3747981  91.1676407
  52.2593927  18.2031727  90.8367157  51.9496202  17.4628484  92.1200466
  21.7181373  69.5131207   1.3674311  22.0624828  69.8809910   0.5535971
  20.7923937  69.7564888   1.3674466  67.2590780  18.5194707  86.4162445
  66.9192219  19.3246007  86.8067551  67.8233957  18.8187027  85.7033348
  17.4324119  45.6829548   5.4858541  17.3740053  45.4426575   4.5611495
  16.5329134  45.8944893   5.7356268  59.2050219  82.1426296  11.1709476
  59.6736479  81.9014835  10.3719008  58.6036110  81.4140701  11.3250172
 106.1185360  13.6433864  10.6301177 105.7151413  13.4474719  11.4757645
 106.9946575  13.9599085  10.8502734  77.5926065  31.9726682  89.0725422
  77.5776005  32.3490047  88.1925488  77.9558086  31.0953403  88.9516735
   0.1241960  71.1435986   6.9047439  -0.6241949  70.7091808   7.3139185
   0.8394286  71.0284567   7.5303769 111.3316727   0.9962136  48.5984325
 110.7069778   1.7008170  48.4265900 111.5528584   0.6555555  47.7316809
 111.7715168  47.0431614  10.8601105 112.5198364  47.2642231  10.3056931
 111.1908150  46.5400648  10.2892256   5.0878042  89.4322109   2.8752491
   5.1514328  90.1052952   2.1976486   4.4037405  88.8406181   2.5617075
  43.2901859 103.8570499   1.7179848  42.8728342 104.5951843   2.1620664
  43.9337015 103.5316181   2.3474354  96.6595173  49.3693399  10.2147293
  96.8509007  49.5899916  11.1262763  95.8844090  49.8884439  10.0003028
  87.2783852  32.2324967  70.2953196  86.9938469  32.8577924  70.9618568
  87.1234798  32.6813221  69.4641829  47.5231934  97.3211479  19.5890594
  47.5914383  97.4018764  18.6377144  48.4079218  97.0925903  19.8741114
  87.2345066  38.8669777  13.3874547  86.9299698  39.5022774  12.7394676
  86.8464088  39.1607428  14.2116630 104.6516609  41.4360094   4.7165936
 104.3189716  41.9150162   3.9575797 103.9660263  41.5292072   5.3779888
 112.2092819  67.6894999   1.0963858 112.6289654  68.4404755   1.5160590
 111.3749790  67.5937605   1.5557441  52.7764273 108.3667183  85.9883213
  52.6609278 107.7293682  86.6930771  53.4337950 108.9769268  86.3225937
  84.3193913  17.0260251  82.1481419  84.2906094  17.0361161  81.1914253
  84.4569683  16.1060667  82.3739338  23.8590884  92.6075268   3.9965340
  24.3088102  92.2304440   4.7527012  22.9591441  92.2898674   4.0701643
  94.1881943  25.0032496  93.8912296  93.5911465  25.5297565  94.4227982
  93.7132072  24.8547077  93.0735779  81.9528484   3.7566116  72.2284126
  82.3828125   4.5993084  72.3741198  82.6651955   3.1615478  71.9945335
 101.5412045  10.5909455  90.5693817 102.1147156   9.8253936  90.6048107
 101.4714527  10.8802629  91.4791489  95.6820107   1.5449063  78.1755877
  95.8608532   1.3061950  77.2660446  96.0321426   0.8160150  78.6877918
  95.9984970  10.4094422  73.3163834  96.0067940   9.4605285  73.1909847
  95.0706673  10.6333864  73.3886385  76.5256405   9.9835718  91.0640526
  77.1153545   9.2572546  91.2663746  76.0207748  10.1129520  91.8669224
 112.4989796  38.6080384   6.9069707 112.0433331  39.3799257   7.2428352
 112.0802593  38.4303117   6.0647625   6.5725493  35.2410126  23.7601137
   6.3308483  36.1179686  23.4621906   6.2456369  34.6570039  23.0757928
  15.0737512  33.8799763  42.9000139  14.9245358  34.7647047  42.5665188
  14.2164469  33.4572291  42.8495359   9.9749684  38.4356761   0.7855228
  10.5840659  37.8751993   0.3047959   9.1128016  38.0592179   0.6089422
  99.4749069  39.7179985  86.2486267  99.1659832  39.5933819  87.1459866
  98.7695599  39.3714142  85.7021904  26.9270492  80.5794811   5.2410722
  26.4122558  79.8788786   5.6415516  27.5451994  80.1252365   4.6685475
  84.2635536  41.4689541  87.4211693  84.7707081  41.5733910  86.6161156
  84.8948574  41.6240501  88.1237602   0.5707799  37.2107196   2.1613789
   0.5934392  37.9562807   2.7612603   1.1510430  37.4633813   1.4432657
   8.3868498  14.1288102  19.4269753   7.8210407  14.5372880  18.7718129
   9.1222233  13.7791276  18.9238048  10.5621529  15.4499316  60.5792809
   9.9396765  15.7954371  59.9394560  11.2015069  16.1528087  60.6951380
  71.6184568  26.3426590  86.1442375  71.4480495  26.4848971  87.0753479
  72.4980545  26.6937304  86.0053635  10.2467048  47.6393080  34.9785686
  10.6837392  47.0526028  34.3613076  10.9569788  48.1489229  35.3684855
  66.0539722  32.3061323  93.0435181  66.8638706  31.9767094  93.4331036
  65.5438852  32.6273584  93.7870598  75.9578896  25.2390862  93.7958908
  76.4070892  24.4767952  94.1610813  75.7847214  25.7999969  94.5519543
 112.0986366  59.9165916  17.3184168 111.7329502  60.7445574  17.0069981
 111.3769150  59.2924166  17.2426021  20.1805711  85.9827232  15.3787982
  20.1120734  85.2215099  14.8025239  21.0151052  85.8652210  15.8326459
   3.2910824  78.4988451   6.2867188   3.0082411  78.4478569   7.1997535
   3.0914640  79.3973732   6.0239655  29.1547155  80.1487637  77.8817511
  29.3144608  80.0753880  78.8226700  29.2365241  79.2530203  77.5543547
 114.1124153  93.1145191  55.8624554 113.9635468  93.6277390  56.6566086
 114.4275570  92.2682190  56.1797667  37.8053954 108.9258530  84.0549469
  37.7463630 108.0999677  84.5352173  38.4190515 109.4555674  84.5639229
  67.4202442  91.4053440  86.4238548  67.0496464  91.8779278  85.6785011
  66.7919445  91.5449619  87.1323586  16.7594278  66.2876081  10.2729654
  17.5479770  65.9884310   9.8202926  16.1866677  65.5208397  10.2884579
  14.3484795  10.2988350  84.1173649  14.7706282   9.4521058  84.2625141
  14.7884941  10.6567907  83.3463287  90.8661556  32.2448325  91.6953850
  90.8725548  32.3167586  92.6498508  91.3752270  31.4554167  91.5112591
  18.8440859  74.8459339   6.4821255  18.8074398  74.5523405   7.3924506
  18.1503677  75.5019331   6.4139229 102.9921341   5.2832353  86.7772770
 102.4706078   5.5471671  87.5352859 103.3812523   4.4471252  87.0336723
 115.4664707  58.5158968  10.9539068 115.5303860  59.3948746  11.3274741
 115.8315277  57.9422092  11.6275883  72.4229813  39.7068930  89.9624062
  72.5481462  39.1594625  89.1872406  73.1823063  40.2896595  89.9692154
   0.7732362  44.3081617  37.7698159   0.9068223  45.2320671  37.9814458
   1.3421120  44.1503572  37.0163512   1.1727329  30.4650307  29.8843122
   0.7899191  30.6594729  29.0288138   1.7218484  29.6959805  29.7317886
   9.3467873  71.4840126   8.0095017   9.6613312  72.3171902   7.6586354
   8.7914252  71.1267090   7.3165810  81.6946697  27.3927283  85.2407646
  81.7851353  26.4449692  85.1417542  81.1273766  27.5007272  86.0041428
  66.2470055  33.4153557  81.2909222  66.9660759  33.8617301  80.8438015
  66.6674995  32.9462194  82.0115662  53.8833284 101.6940594  69.9431038
  54.3465805 101.0489368  69.4088316  54.0315437 101.4091015  70.8448076
  96.2970543  76.5877771  19.4875503  95.8306694  75.7523537  19.4595861
  95.7487679  77.1499681  20.0348687  57.0245075  77.9658651   4.1966632
  56.7210722  78.8728952   4.2348385  57.6746273  77.9601622   3.4941402
  68.3921194   7.1530175  55.5493975  68.4742880   6.2213951  55.7532597
  68.3362913   7.5811237  56.4037085  77.2583771  10.5359805  70.5136299
  77.7485514  10.0055707  71.1418247  77.0067024   9.9203360  69.8252439
  21.5996909  87.2930813  19.5661485  21.0998845  87.9342461  19.0608442
  21.2954283  87.4078369  20.4664183   8.7942660 100.1870441  12.9883790
   7.9391247 100.5875683  13.1450415   9.4202602 100.8985901  13.1228149
  37.0455980 108.2002544  87.1373177  36.7482448 108.9933395  86.6914177
  37.8143764 107.9201317  86.6405869  24.4668961  82.7599239  23.0000472
  23.6504650  82.5940990  23.4714031  24.6236920  83.6971760  23.1149602
  26.0352230  52.0601511   4.9618015  26.9199896  52.3989773   4.8253620
  25.6600285  52.6326847   5.6308830  77.8119135 100.5784225  62.9805565
  76.8588400 100.5472946  62.8974247  78.0171013  99.9114132  63.6357117
  69.8989820 109.9060059  69.2586994  69.5677137 109.8792267  70.1563501
  69.9123669 108.9900970  68.9809179  99.8547554  31.6936064  78.5397053
  99.4038105  31.8362045  77.7075100 100.7317924  31.4025235  78.2900763
 107.2101371  32.5112595  94.4135173 107.0797412  33.4371914  94.6181367
 107.3330347  32.4906982  93.4644622  38.3652067  91.6199207  49.5446587
  37.8895831  92.0610809  50.2484989  37.7865863  91.6880894  48.7851954
  63.6612844 100.9866905  61.5918255  64.4888926 100.9817696  61.1109114
  63.6431789 100.1442909  62.0460033  55.2098942  97.4771023  40.4949379
  54.4082451  97.0814419  40.1528120  55.6790304  96.7508602  40.9056807
  99.1195202  39.6932268  76.1070442  98.5140133  40.4154968  76.2741232
  98.5830116  38.9054990  76.1958170  26.3206506  69.0715075  16.6500449
  25.4905963  69.4345570  16.3411164  26.6716790  69.7416306  17.2365117
  78.4867668  26.1951661  84.7484970  79.1361570  25.5848432  84.3991661
  77.7126598  26.0599613  84.2019463  13.1413579  28.3740807  21.4534354
  13.1447327  27.4305320  21.6144776  12.6346350  28.7390614  22.1788692
  56.4087915 106.1000729  71.2162876  56.9922924 106.3374138  70.4955769
  55.5472040 106.0135651  70.8083439   5.2213937  58.5425472  41.6516829
   5.5727553  58.1629276  40.8462858   4.4230404  58.0431795  41.8234253
  16.7556596  82.4444771  19.2651939  16.1640525  81.7857265  18.9014912
  16.3948262  83.2801056  18.9689589 110.8285713  15.6264091  91.0507774
 110.1169682  16.0957086  91.4862251 110.3868008  15.0015187  90.4758167
 102.9112434  74.7025013  22.3266506 102.3411846  74.5314360  23.0763173
 103.5431671  75.3455973  22.6481056  19.1405177  70.7680464   0.9756149
  18.3711362  70.2232790   0.8097465  18.8894570  71.6379929   0.6651477
  95.4740906  68.7983322  20.7017374  95.1373577  68.1861258  20.0474834
  94.7120476  69.3175745  20.9584832 103.1356716  83.7208271  22.4293470
 102.7854538  84.2938995  23.1113768 102.3832035  83.5255718  21.8708777
  88.2307720  11.5847564  85.2501297  88.2886410  12.4873221  84.9366665
  87.6933479  11.6396368  86.0403252  27.2505498  97.3312283   8.5535973
  26.6152287  96.6585636   8.3084124  26.9184685  97.6849461   9.3787283
   1.5399204  58.3197451  64.1424417   1.5023413  58.8254023  64.9543142
   2.4181405  57.9390383  64.1378212  24.3356824  90.1643181  39.6755457
  25.1621318  90.4048920  39.2568135  23.9089680  89.5824814  39.0465665
  88.6152744  23.0981994  92.2493839  89.3736649  23.6571407  92.4186993
  87.8687572  23.6971927  92.2617054  34.0436912  91.4544773  13.0203867
  34.5701671  90.9442139  13.6357594  33.4102750  91.9145012  13.5711968
 105.7211018  30.2860856  79.1253376 106.0571098  30.8619642  78.4385395
 104.8090267  30.5539632  79.2375422  76.7984343   7.5932699  78.2190943
  77.1415281   7.5768167  77.3256493  76.9327545   8.4950310  78.5106754
   5.8498484  77.1594238   5.4937977   5.5384362  76.9490004   4.6134704
   5.0838983  77.5226307   5.9383577  34.1639185  84.7616196   9.9905711
  34.9881077  85.2472115  10.0244582  34.0193844  84.5998764   9.0582740
 106.5353680  59.1753387  88.1889439 105.9745789  59.1824722  87.4132538
 106.6361713  60.0987196  88.4201145 105.1589108  21.2111068  84.2135143
 105.0406551  21.7586970  84.9896526 104.4606686  21.4847350  83.6186886
  86.0132313  10.3810763  76.3287258  86.6397190   9.6774185  76.1595917
  85.2975082  10.2172720  75.7145977 108.2597733  64.4437695   4.7680926
 108.8082409  63.6616421   4.7073543 108.8807392  65.1637459   4.8788500
   9.7892451  30.1849627  90.5813885   9.4491971  30.5975556  89.7874260
  10.6252444  29.8032618  90.3137302  15.9064305  40.3375959  10.0541854
  15.2095294  40.9869194  10.1487470  16.4335585  40.6569338   9.3217963
  70.1861429  79.2605734  73.3236599  70.8613014  78.6058474  73.5017824
  69.3855810  78.7510633  73.1982040  69.2530346  29.3507624  83.6880302
  69.4192982  29.0753651  82.7865028  68.6974955  28.6607552  84.0506554
  24.3156219  59.5347118   1.6214874  25.2025509  59.1868067   1.5290180
  24.4411039  60.4680967   1.7926016  27.2917151  35.3499389  66.2256622
  27.8964639  35.1794958  66.9477844  26.6636181  35.9779906  66.5824270
  22.0310044  93.1860638  35.8570290  22.9469490  92.9092789  35.8312368
  21.8396711  93.4646416  34.9614763  80.0411797   4.6768054  81.1454582
  80.8344650   5.0311548  80.7437611  79.3605423   5.3165346  80.9363747
  94.6564198  14.8873341  94.2343521  94.0438652  14.4103587  93.6744499
  94.3390942  15.7903159  94.2217541  55.4796124 100.1403427  88.1313992
  55.7060575  99.9031544  87.2321224  55.3575373  99.3018913  88.5767365
 113.5740662  26.7652988  92.8755665 113.0789185  25.9535861  92.7651596
 112.9091740  27.4538755  92.8714848  20.9674573  86.9237137  24.9086499
  21.3551879  87.7977657  24.8647690  21.0315013  86.6793633  25.8319163
 100.6097317  45.2910995  87.2906303 101.1892128  45.2143526  86.5326405
  99.7962093  44.8694468  87.0138454  85.9289360  23.6205029  83.5522366
  86.5627766  24.1387343  83.0563450  86.3497162  22.7676797  83.6611557
  16.9697618  78.4375858   1.1026330  17.0036674  78.9742374   0.3107428
  16.1783803  78.7287617   1.5555830  97.5231266  41.8357801  84.9989510
  97.5516701  40.9047222  85.2192879  96.9514275  41.8831491  84.2326927
  94.0408134  38.0027652  64.5300102  93.8611889  37.1743512  64.9746418
  93.7488747  38.6739182  65.1469040  10.1324081  94.2867661   1.2903348
   9.9160725  93.4547901   0.8693235   9.7599918  94.2144489   2.1691456
  93.1254292  24.6722054  86.8284607  92.4707508  24.5348287  86.1438084
  93.1554508  25.6219268  86.9440460 111.4691067  11.9562376  92.3676872
 111.6505241  11.3990200  91.6108322 112.3127937  12.0384800  92.8122807
  59.6081638  36.7151308  90.2146530  59.3512058  35.8568072  89.8777771
  58.8691854  37.2860122  90.0043297  71.0096121  11.2487435  87.3305130
  71.1517954  11.3906252  88.2664013  71.3721609  10.3789723  87.1623230
  40.9658051  76.0145760  14.0062749  40.3750086  75.2730608  13.8745725
  41.0646152  76.0762835  14.9563599  68.5406733  20.9997940  68.2005596
  68.2186365  21.5065837  68.9460039  69.2836094  20.5069852  68.5490036
  86.1772060  34.0208578  58.5420847  86.9141388  33.4100056  58.5465002
  86.2909698  34.5391726  59.3387270 103.2970238  56.1790133  22.1105409
 102.5539684  55.5777979  22.0591211 103.8418770  55.9513712  21.3571858
   3.4033322  88.3992386  38.6362505   2.6754579  88.2459164  38.0338216
   3.0081668  88.3503628  39.5067024  74.7060680   6.8229115  57.9347658
  75.5845022   6.8587005  57.5562143  74.1575909   7.3010588  57.3128510
  36.2033606  76.1688089   8.0368638  35.9153724  76.1323166   8.9489841
  36.0781074  75.2777910   7.7103204  11.3670707  32.7983975  89.1222191
  11.6822362  32.2768164  89.8603535  12.0927095  32.7930164  88.4979916
  59.0593004  29.2052150  80.6914520  59.8658609  29.1313601  81.2015820
  58.3598661  29.0425229  81.3243389  97.8888702   1.9568121  60.5731964
  97.4324989   2.7981853  60.5662727  98.5195160   2.0204990  59.8559427
  80.9700871  49.6554375  14.0998435  80.7885456  48.8738108  14.6216953
  80.4421329  49.5435619  13.3092856 112.2069263  58.0039024  87.3323154
 112.6136398  57.2970343  87.8334713 111.6472340  57.5563192  86.6977692
  80.6183243  29.5583010  90.8427811  80.6974697  28.7706423  91.3808918
  80.7334518  29.2474580  89.9448109  60.8582926  44.9169111  91.2411785
  60.5249643  44.0789795  91.5620899  61.5915537  45.1211071  91.8215752
  12.3572385  41.3602114  66.0631657  12.7874887  41.3787985  66.9180155
  12.4061501  42.2636557  65.7507133  94.1565704  85.1039886   8.7697130
  94.5372295  84.3558979   8.3096182  93.2493687  85.1355839   8.4660447
  29.3988943  65.9216118   5.8114904  29.5135593  66.7937708   5.4341030
  28.8023520  66.0558367   6.5479356   5.7777041  34.2683268  82.0238972
   6.0648644  33.5401177  82.5747871   6.1654323  34.0881705  81.1674786
  78.2071352  19.7795665  65.9463072  78.6863041  19.5895088  65.1397657
  77.4120474  19.2503738  65.8828926  98.9216232  27.2063446  72.2011280
  98.4864235  27.4268508  71.3775921  99.3154430  28.0289769  72.4916649
   7.5243747 106.3030338   0.6253693   7.1902668 105.4173946   0.7676744
   8.2018644 106.1989594  -0.0427680   5.1017910  37.0027900  87.6043606
   4.7833902  37.6883817  88.1915760   5.2993762  36.2654781  88.1819057
 109.9819851  57.6379585  16.8459594 109.1993427  57.0940828  16.9348562
 110.6202507  57.2375107  17.4362862  90.2898216  26.1039615  71.5529299
  91.0110378  26.4702058  71.0411215  89.9995804  26.8268609  72.1091747
  94.7843075  71.6049147  31.3749051  95.4555321  71.2104082  30.8180904
  95.0952530  71.4550066  32.2676945 106.4647770  60.3947687  47.6699734
 107.3158360  60.7768965  47.8842306 105.8555222  61.1322165  47.7047539
  11.7792702 100.1427364  10.3378212  12.5814092  99.6409512  10.4827774
  11.7887914 100.8124065  11.0217011  65.3409004  87.5027084  92.5498009
  64.4402838  87.2777271  92.7832508  65.6697369  87.9895210  93.3055210
   0.3587685  19.3015099  66.2654305   0.2056084  19.8324358  65.4838371
   0.6453572  19.9291122  66.9289160  99.2328739  44.4658661   4.3783408
  98.7606239  43.7756968   3.9126438  99.3242073  45.1692533   3.7355867
   8.6148316  61.1191797  82.3659515   8.3388853  60.7250881  83.1934643
   8.0556005  60.7082129  81.7067051  73.9269781  22.4700785  77.0954609
  73.6003304  22.6640248  77.9740477  74.5672464  23.1597257  76.9203234
  99.5936489  27.9361176  81.7100906  99.6041298  27.1917486  81.1083984
  98.6644268  28.1064057  81.8642712   2.9589570  81.5064621  28.8900805
   3.0660176  80.5816555  29.1125512   3.6640123  81.6863823  28.2681799
  44.1235542  10.1719809  14.2683589  43.3376217  10.4398680  14.7445679
  44.4303179  10.9726286  13.8428104  94.4749737   4.0484154   7.5441188
  94.9079990   4.6641374   6.9528383  93.5859966   3.9690858   7.1982080
  62.9440260  65.8072805  27.5887012  63.1589317  65.6590509  26.6677904
  62.5294924  64.9923658  27.8720856   2.0750152  77.8724289   2.6883820
   1.8188669  77.5063562   3.5349119   1.2494233  77.9894161   2.2183357
  95.3714085  34.4217205  74.0434647  94.7305393  34.0284801  73.4511232
  94.9581432  34.3792725  74.9058104  30.0121570   4.9883032   7.2040522
  30.2314782   5.5459142   7.9505110  30.7117558   5.1494938   6.5709567
  97.1159363   5.6174648  85.1972198  96.6038895   5.7254189  85.9987068
  97.9426479   6.0643297  85.3791523  69.9888086   3.5837260  94.1560650
  70.5045080   2.8419274  93.8397980  70.3953648   4.3488687  93.7492466
 112.5737858  62.7302170  85.3398418 111.7089939  62.3783827  85.5510139
 112.3928833  63.5350180  84.8542500  55.5780602  70.8846998  25.4787159
  55.7542515  70.1580858  24.8810387  54.8205662  70.5972672  25.9884429
 116.3358459  53.9524698  84.7568321 117.1733758  53.5006189  84.6538544
 115.6950897  53.3627319  84.3595028  48.4985971  76.5451193   2.2806184
  48.8423586  77.2985268   2.7606544  47.7234793  76.8811846   1.8306437
  10.9785688  69.4567966   8.2873714  11.6570747  69.8608160   7.7464181
  10.5418694  70.1940107   8.7140340  90.1257706  31.6588998  45.0091743
  90.0530243  32.3130560  44.3141794  89.2618656  31.6501713  45.4212666
  94.1363716  13.0857325  83.8765717  94.9083996  12.8323925  83.3705807
  93.9732838  12.3400688  84.4541645  70.2834034  25.5947852  92.2060871
  70.6326151  24.9587560  91.5817928  69.6811104  26.1308742  91.6902542
  87.1755219  13.9875412  79.2411613  86.2460232  14.1515172  79.4004536
  87.2385788  13.0369377  79.1483688  31.2607009  69.8662411   0.6786502
  31.2840088  69.5267640  -0.2160298  31.2313087  70.8171724   0.5733073
  50.3096581 107.4260902  93.4991169  50.5041218 107.4469185  92.5621128
  51.0304928 106.9262791  93.8822842  58.4837484  29.6119666  13.3238411
  59.2825413  29.9809146  12.9469597  57.8689766  29.5731950  12.5911891
  13.1944287  64.9622917  16.0931873  13.5095596  65.6052971  16.7283762
  12.7332985  65.4820776  15.4348457 101.7342186   7.2437096  88.6702156
 102.4753475   7.7895319  88.9329720 100.9944439   7.5869155  89.1713810
  76.8832159   3.7008864  85.8545494  77.3151350   4.4171295  85.3890610
  76.2284422   3.3745098  85.2373123  16.1851001  77.0791006  37.5640011
  15.7504106  76.2267017  37.5903535  17.0020628  76.9463062  38.0448008
 115.4905605  21.4403582  88.5971069 115.1629257  21.0154629  87.8044224
 114.7599792  21.3928938  89.2137337  52.6847982   5.8742172  87.9542065
  52.6472759   6.2419081  87.0712376  51.7707586   5.8324450  88.2353020
  27.5128031  91.4734650  29.3017888  28.0142641  91.6742992  28.5115767
  27.8407860  92.0897293  29.9566770  90.9492207  33.3932900  75.2101421
  90.6589413  32.6738763  75.7708693  90.9869194  33.0128026  74.3326235
  96.3267040   3.8374412  89.0621758  95.8867836   3.1506947  89.5632553
  97.2366047   3.5459998  89.0040493 112.2546005  63.1918573   9.7559983
 111.7309189  62.9514217  10.5203116 112.5465488  64.0852690   9.9371254
  16.9606185  76.7450953  25.2161193  17.3999226  77.3426342  25.8212590
  16.5829420  76.0691595  25.7788849  15.3510499  82.3802757  22.8398871
  16.1739361  82.8397655  23.0071044  15.0730669  82.0660591  23.7002516
  21.2159872  65.8237743  10.9715688  21.1885166  66.7788553  10.9141171
  20.8664107  65.5232143  10.1327038  24.3158293  98.2737064  13.0058539
  23.9208460  98.4580708  12.1536636  23.6529636  97.7641201  13.4718668
  34.9721122  86.1368084   1.5222013  34.1935468  86.6869831   1.4363164
  35.0781035  86.0174179   2.4659942  13.2568002   4.0958774  83.1310368
  12.9467154   3.2120013  82.9339504  12.4674058   4.6368518  83.1101608
  42.1159935  87.7968025  17.9199708  42.8444624  87.3074818  17.5377011
  42.3030281  87.8104687  18.8586211  63.4380054  94.1265392  78.4819317
  63.2338095  94.4338417  77.5986958  63.7491322  93.2298946  78.3576107
  41.5030622  96.0074425  70.2340889  41.0678864  96.0712814  71.0842514
  41.9893312  96.8278027  70.1517200  33.5747290  81.9201756  25.6886435
  33.0834842  81.2954617  25.1551247  33.2202125  81.8122196  26.5711927
  16.7954981  76.3903046   7.0530063  16.4877605  76.3465977   7.9583347
  16.0239136  76.1792803   6.5273076  11.9119632  30.1625085  83.9869118
  11.3246489  29.8775840  83.2868290  12.6123214  29.5100498  83.9923859
  16.8408883  95.8812714  18.0046999  17.0215321  95.4792595  17.1550012
  15.8856642  95.9177780  18.0541635  25.1325250 102.7392006  14.3314123
  25.1312494 103.3747005  13.6156154  24.2338276 102.4111176  14.3620205
  21.6560626  80.5186367   0.6171743  22.0626760  80.3386974  -0.2304804
  21.7066050  81.4699936   0.7099249  93.8925934 106.8090725  79.7259903
  94.8451233 106.7148685  79.7321224  93.7431526 107.7418137  79.8805475
 108.7945461   7.2078431  90.2411938 108.8895416   8.0896145  89.8810768
 109.4047451   6.6742074  89.7321606  46.2782574  74.1146135   3.4554243
  45.8901834  74.9216318   3.7935933  45.9838343  73.4349060   4.0616781
  76.6348267  23.6642766   9.9279988  76.5495539  23.0026770  10.6144726
  75.8980417  23.4961963   9.3405193  18.3561015  14.3270671  69.4886589
  18.9050674  14.6468163  68.7726784  18.8268065  14.5801258  70.2827787
  92.5733662  60.3013039  78.1978512  91.9027901  59.6412182  78.3734846
  92.7192402  60.7254314  79.0434694  24.9372554  95.5136299  27.2969508
  24.1036654  95.9833717  27.2704601  25.2784181  95.5806923  26.4051318
   3.6266652  28.3230710  70.3161383   3.2047337  28.6804652  71.0974693
   4.5282230  28.6410713  70.3641129  17.4366736  54.9852610   4.8033562
  16.6290224  55.1833868   4.3293560  17.9108512  55.8164358   4.8264971
  90.8529758   4.8091209  75.2975941  91.4607525   4.5862001  76.0026789
  89.9857235   4.6463466  75.6685400  67.8930971   0.1558007  16.3378167
  68.3322999   0.6416215  17.0358932  68.0473563  -0.7641517  16.5525770
  60.3718090   6.7909354  11.9686878  60.1620913   7.0714813  12.8594995
  59.5607853   6.9248134  11.4782321  97.1240234  21.8972373  76.9979620
  97.2849369  22.1062088  77.9181099  96.4801979  22.5461531  76.7140198
 113.6171150  78.3899069  15.3844833 113.2476616  79.2512989  15.1902282
 114.1499424  78.1793594  14.6176744 100.9767246  42.4710798  92.1209240
 101.1483860  43.3108234  92.5470638 100.0963593  42.5629330  91.7565727
 106.7055321  60.7394171  74.2000580 106.2538624  60.2960443  73.4819746
 106.0317230  61.2842035  74.6067762 105.6612492  26.3447165   1.3533080
 105.0386524  25.6297231   1.4851728 105.4905415  26.6496611   0.4621844
 113.7766457  32.3689365  82.4641323 114.1874790  31.9437480  81.7113686
 113.4593964  31.6452146  83.0043316  87.9327774  47.3983812  83.5697079
  88.8821983  47.5200081  83.5636806  87.7586365  46.9127083  84.3759537
  16.5847266 100.6423664  18.0413055  16.9754195  99.7884655  17.8556955
  15.6412446 100.4811382  18.0322337 110.0484085  20.2903175  86.4187145
 110.8652878  19.8623836  86.6752815 109.5838451  19.6305490  85.9038162
  80.5314541  44.9883652  84.4390106  81.4431763  45.2640915  84.5337200
  80.3037071  44.6171618  85.2914047  15.5829859  79.8582411  29.7236371
  16.2873209  80.4827309  29.5499778  15.1345026  80.2107048  30.4923129
  85.0654697  27.5652552  81.7523003  85.3644562  28.3286500  81.2582684
  84.7134399  26.9728708  81.0879326  16.1350131  68.7430000   4.3269750
  16.1763287  68.9365959   5.2634817  16.9346702  68.2478285   4.1492558
  13.8144541 108.3307076  58.3861113  13.9202976 107.4320793  58.6983585
  12.8669894 108.4545994  58.3296013   8.6425948  38.9044499  92.1540070
   9.4200557  38.5295701  92.5678349   8.7687927  39.8509717  92.2203541
 102.4922562   3.9916000  71.4361238 103.4431171   3.8948098  71.4883041
 102.1590424   3.4866908  72.1779251  27.4561214  82.9096889   2.0166212
  27.0390487  82.2828960   1.4255098  27.9442000  82.3668194   2.6357350
  30.4343486  77.4744129  18.6058044  30.7002807  77.1917152  19.4807875
  29.4776154  77.4773836  18.6355257  46.0185337  91.0745716  22.2721648
  45.9830427  90.1606846  21.9897151  45.4761076  91.5426731  21.6374278
 108.0776691  63.2637835  87.6705074 108.1851006  63.4016943  88.6116123
 108.1828117  62.3196268  87.5532627  35.1607633  55.1184082   2.4340118
  34.7161055  55.1597881   3.2806510  35.6204414  55.9550619   2.3637550
  52.8212643 107.9402351  15.7182002  52.7433014 107.4750805  14.8852670
  52.9469299 107.2486401  16.3679147   2.1682248  17.1647203  83.7136364
   2.9575992  17.4977589  83.2867813   2.4152905  17.0697296  84.6335125
   0.9106375  10.2502704  93.3765888   0.2734064   9.5775688  93.1365013
   0.6368205  11.0254359  92.8863049  34.4939327 108.7633991  29.3003654
  34.0806818 109.3995190  29.8841572  35.1882744 108.3694077  29.8284674
  28.5290909  58.7295866  32.5603652  28.1034136  59.5138025  32.2139049
  27.8194237  58.0944633  32.6564121  72.9448557  17.0474267  64.3993711
  72.2574615  17.3957145  63.8315582  72.7699518  17.4390721  65.2550936
 106.3725376  22.2342348  70.8686638 106.4313698  21.7153144  70.0664806
 106.3899517  23.1428170  70.5679893 104.8783302  32.8661847  87.0045662
 105.7121181  32.4346161  87.1910572 105.1002884  33.5559630  86.3791275
 108.0774212  71.1430788  20.6031394 108.5936165  71.5770102  21.2824655
 108.2028484  70.2084494  20.7673597  62.7555561   2.8098407  11.2529647
  62.7798414   2.5641480  10.3281534  63.0303240   2.0196128  11.7180181
  99.5216465 107.6022053  62.0090628  98.9126110 107.8748989  62.6953173
  99.7583771 106.7044258  62.2418261  16.2114835 104.7283173  34.3940973
  15.3556585 105.1546764  34.4389558  16.8326223 105.4105854  34.6488857
  27.6932573  37.1616244  69.7244310  27.4448037  37.7694011  69.0279341
  27.8389645  36.3290834  69.2751265  87.4968147  59.8118830  58.9517117
  88.4354591  59.8703194  59.1299152  87.3449707  58.8846254  58.7690353
  96.2674522  18.6435556  26.0882664  97.1005249  18.5132015  26.5412951
  96.4240646  18.3200324  25.2011156 108.6997700  39.9336481  90.5939102
 107.7553940  39.8414660  90.7199287 108.7901783  40.6734991  89.9933434
  48.5414314  94.8963451  29.6932983  48.7828445  95.2243996  30.5595160
  47.8410053  95.4804230  29.4026327  21.2000346  41.0108757  63.6173296
  20.6163454  40.4256487  64.1000795  20.6809306  41.8022394  63.4741306
  25.5457234  76.3921213  14.1430521  26.4342022  76.5193462  14.4756985
  25.0546575  77.1421146  14.4786143  16.1591780  86.3981724  22.9702282
  15.9981823  87.0749950  22.3127842  16.7570150  85.7855415  22.5418591
 113.1113815  13.7468791  84.7024155 113.1260777  12.7966547  84.5880032
 112.2090912  13.9439046  84.9539948  58.2488823   4.0982944  81.0753536
  58.9439201   4.6432677  80.7063580  58.4950924   3.2038853  80.8394623
  73.5034561   7.3550922  74.6062803  73.7689734   6.4364207  74.5641565
  72.8491354   7.3835272  75.3043413   9.0066075  47.8986835  74.6487284
   8.7859273  48.4558392  75.3951216   9.9536359  47.7755117  74.7135115
  75.6314564  17.2416735  79.0872002  76.1548758  16.5074551  79.4084311
  76.1421680  18.0181885  79.3161869 113.0370331  68.0984545  11.4142048
 113.5754299  67.8421497  10.6654251 112.3128319  68.5928917  11.0304165
 104.2622089   2.7122229  87.9376698 104.6451950   2.1136035  87.2964096
 103.4618950   2.2737339  88.2265377  36.6397095  69.9343109  11.5193307
  36.3182855  70.6419992  10.9606779  37.5030017  69.7222519  11.1643815
  34.3462205  78.8339806   5.5035257  34.7758365  79.1256762   6.3076252
  35.0591493  78.7392569   4.8718679   2.6523307  40.1124191  93.1867123
   3.3956385  39.9650192  92.6019001   2.0611313  40.6742859  92.6856899
  26.1448455  40.8310699  92.5754452  26.4000201  40.0279570  93.0294514
  26.5717268  40.7691145  91.7209435 109.0745068  38.6086535  41.0062742
 109.3904877  37.9372931  40.4015732 108.3005238  38.9728141  40.5766535
 114.6934032  68.6903429  38.5087299 114.0920639  68.9414310  39.2098498
 115.4343414  68.2875204  38.9614844  14.2056167  38.5254407  70.5398464
  15.0822294  38.7313724  70.2152300  13.7609386  39.3720150  70.5823183
  87.1485519  25.4573345  69.0572262  87.4826336  25.1569891  69.9024582
  86.2374783  25.6944370  69.2303371  83.1122589  17.1306729  72.4192095
  83.8874245  17.6665258  72.2512341  82.6482773  17.1116459  71.5822029
 111.6788673  30.0390673  90.3874207 110.9275532  30.1095223  89.7985172
 111.4218140  29.3729758  91.0249805  50.2441978  91.7537403  17.1321058
  49.4470787  91.7350292  16.6024995  49.9335337  91.8848038  18.0279529
  23.6521506  13.8672173  75.2000523  23.5814762  13.2238841  74.4948149
  24.5581841  14.1727626  75.1556110  39.8532939  84.5551872  17.0536971
  39.7925568  85.2745628  17.6822186  40.2131271  83.8258457  17.5584829
  31.1195660 101.8401241  13.5322464  31.3818073 101.1545277  14.1465926
  31.1190128 101.4086628  12.6778030  37.6646423 108.6411381  22.1696949
  38.5913181 108.7993813  22.3498726  37.6643920 107.9628277  21.4943194
  24.8712897  91.4307690   6.3401729  25.7655787  91.2810040   6.6468453
  24.5557475  90.5627251   6.0888469 111.2014580  87.6909542  37.1195626
 110.6303215  87.9823875  36.4088583 110.9649849  86.7735100  37.2559762
 109.7227287  37.5334239  92.0648193 109.4022369  36.6611075  91.8355179
 109.0628719  38.1310964  91.7132473  49.2134380  15.1170182  57.1842670
  49.3831062  14.1756284  57.2193241  49.3802595  15.3566718  56.2726927
  13.4882796 100.0733852  21.6106558  13.4022284 100.6491375  20.8508301
  14.3300688 100.3127098  21.9984007  96.1601830  61.2924814  91.5932369
  95.3570557  61.6817427  91.2472630  96.2494373  60.4659557  91.1187649
  15.6887257  53.3233404  73.1011963  15.2156675  52.5737095  72.7399445
  15.2824831  54.0849257  72.6874447  48.2456493  84.1123390  21.0106111
  48.4577656  83.1802559  20.9609795  49.0930271  84.5457363  21.1123371
  35.0998092  93.3737659  11.2711239  35.9060097  92.8713322  11.1534894
  34.5952630  92.8707981  11.9104099  12.7209294  62.4778509  10.7105601
  12.6180983  62.8360271  11.5922451  12.1960187  63.0542469  10.1551592
  67.9726696   3.8821507   4.8254362  68.3098269   4.7287983   4.5326123
  68.7181425   3.2870150   4.7459710  13.0966353  69.4353151  -0.1488497
  12.3803663  70.0573349  -0.2764353  13.4253013  69.6254349   0.7298229
  30.4426956  96.5141296   1.0866506  31.2387872  95.9959030   1.2046025
  30.0901198  96.2234688   0.2455574  74.7928238 108.5356903  77.7364635
  74.3280220 108.2684422  78.5294151  74.5582485 107.8732300  77.0865774
 103.0597305  22.2207427  82.8152847 103.6059284  22.5160241  82.0867920
 102.5045109  22.9734397  83.0187988 106.2811852  36.6394234  93.4445477
 105.8300877  36.5527153  94.2843246 106.0476875  35.8451390  92.9641056
 101.0564613  41.1849546  78.8245344 101.5669060  41.9363117  78.5226393
 100.9436035  40.6427956  78.0437899   6.2065637  46.6381311  81.2242794
   6.8956286  46.8994761  81.8351078   6.3069236  45.6898117  81.1414814
  89.0915298   5.0319046  89.6997356  88.7725925   4.2687985  89.2178822
  88.3181286   5.3710192  90.1503849  14.1596425 108.2314205   2.5321874
  14.0605032 108.3211327   3.4800035  13.2820082 108.0121899   2.2192559
  27.8941107  72.6871443   1.7545447  27.1079612  73.2042217   1.9301227
  28.5702205  73.0856228   2.3025608  76.5304470  91.1891747   1.9095637
  75.7398558  91.7284298   1.8895900  76.4037609  90.6060123   2.6579660
  74.4031286 104.2703438  84.1530323  73.6001587 104.7792244  84.0411472
  74.2911530 103.8281631  84.9945641   7.2586864  33.9488673  71.7476940
   7.4347293  33.5106516  70.9151030   7.8581661  33.5341620  72.3680735
  88.0646706  15.8733654  55.5594873  88.5498238  16.4747131  54.9944782
  88.5913658  15.8162344  56.3567066  10.3222692  81.1211872  23.0329680
  10.5358768  80.4411507  22.3940897  11.1575747  81.3259125  23.4531832
  43.5132933  35.1750326  47.6598406  42.8186798  35.7698131  47.9426432
  43.1599236  34.7479272  46.8794918  21.3328671  67.4206638   6.8343598
  22.1224904  67.8412151   6.4939719  20.6132126  67.9553795   6.4990962
   5.3963774  34.9899292  89.5495319   5.2511692  35.1113296  90.4878330
   5.8418053  34.1452646  89.4834137 109.0915775  32.5374722  60.4856491
 108.5921097  32.5623751  61.3018274 109.0434074  33.4318399  60.1479864
  45.7638741  77.7049541  13.7766457  44.9559546  77.2967625  13.4653914
  46.2898779  77.8280306  12.9864562   8.1443805  43.2992077  23.3502626
   7.4426734  43.6951780  23.8670301   8.5164034  44.0279007  22.8534293
 111.2930393  64.3829489  79.9525499 110.9927177  64.8586559  80.7269764
 110.5479050  63.8362122  79.7033834   9.1778953  -0.2953636  85.7364655
   9.6061905   0.4590977  86.1409187   8.3302887   0.0390900  85.4433250
  92.0980167   9.2172247   5.6175041  92.7918148   9.6334428   6.1289990
  91.9903660   8.3542943   6.0174966  35.7370472  85.0318527  23.3294392
  35.1887608  84.8142052  22.5756216  35.9106779  85.9686089  23.2368159
  74.2407465  20.3855515  13.9421201  74.0681267  19.7542369  13.2436395
  75.0000715  20.0300908  14.4039690  60.2753925  94.2248917  11.6395175
  60.1362085  94.1704464  10.6940567  59.4137764  94.4404221  11.9964361
 114.1993809  49.5421314  67.6447201 114.2319679  48.6096287  67.8582764
 113.2804108  49.7827816  67.7622175 102.6207161  75.0723457  72.4978209
 102.1099758  74.5727015  71.8608522 103.2633972  74.4470978  72.8328657
  19.9878478 105.6119442  16.2133193  19.4682753 106.3128185  16.6070867
  19.7940862 105.6669331  15.2775502  93.3963585  33.9050651  84.7864246
  94.0016651  33.8793731  85.5274868  92.7224350  34.5319390  85.0492573
 112.0614338  46.5345383  70.5140209 111.1233044  46.3482666  70.5520678
 112.4583912  45.8845425  71.0938168  84.7038460  20.0680399  61.2053251
  84.1320705  20.5084848  61.8340683  85.5873680  20.3399944  61.4536524
  84.2736626  28.9181328  87.1771240  85.1088905  29.3181777  87.4191570
  84.4591427  27.9797792  87.1407795  88.4610558  46.3595438  88.1963348
  89.2916679  46.2150764  87.7430820  88.7033653  46.8212318  88.9990520
  84.2511654  57.8299332  94.5968151  84.8974800  57.1249914  94.5572948
  83.7027168  57.6956511  93.8239002   9.3615705  25.8193517  69.5882750
   9.6292895  25.5815196  68.7005854  10.1825380  26.0028338  70.0449800
   8.9908928   4.4000617  85.3368378   8.8522846   4.3404233  86.2820625
   8.2439059   4.9057597  85.0166607 111.3230801  91.4352417   8.2899976
 111.0214901  92.1659184   7.7501994 111.5972328  91.8418980   9.1120070
  20.5570745  66.5522289  69.5027924  20.1922369  67.1878529  68.8870764
  20.9045386  67.0843506  70.2185774  65.3574753   1.9154862   9.7516185
  66.1018896   2.1762796   9.2093426  64.7970104   1.4107418   9.1622615
  56.7481184   8.0733764  30.3467512  56.3789463   8.4753793  29.5604086
  56.2204361   8.4229940  31.0647726  45.2006531  79.2717886   4.5679408
  44.2782784  79.5214844   4.6236807  45.3932142  78.8752794   5.4176062
   4.0318936  84.8659325   5.5075955   4.5367983  84.0591145   5.6093210
   3.6985788  84.8284626   4.6110860 107.5012302  52.7685356  81.3836098
 107.6906395  53.4407425  80.7290173 106.5485954  52.6772118  81.3644123
 113.7314510  69.1198921   3.5832062 114.4062424  68.7240601   3.0316469
 113.4592915  68.4154940   4.1714084  30.2718163 101.5281773  22.1020889
  31.1592197 101.3766193  22.4273229  29.9572134 102.2790623  22.6055074
  48.5109615  91.0694027  55.9391403  47.7916050  91.5808105  56.3095856
  48.1857681  90.1691723  55.9315538  34.3715861 109.5135417  21.7060685
  33.9473250 109.4787374  22.5634027  35.1161721 108.9169544  21.7829061
  68.3241701  32.7472329  10.1504195  68.6656618  33.1653523  10.9408557
  67.3887920  32.6384115  10.3220522  85.2955246   3.3087674  24.4068313
  85.1378918   2.7145854  23.6731195  84.4371414   3.6870801  24.5973396
  63.8431072  95.7434559   9.5212418  63.8014793  96.6784477   9.7219801
  63.3043718  95.6427479   8.7364799   2.6281664  26.6868711  68.1843805
   3.3110577  26.0164666  68.2055521   2.8192917  27.2472811  68.9364767
 108.0243492  49.3641901  88.0334759 108.4221745  48.7324858  88.6325741
 108.3030224  49.0777349  87.1636963  50.5072069  89.2888355  32.5928950
  50.5991030  89.7285652  31.7476559  50.7400084  88.3775139  32.4153399
   4.5795420  59.7260571  72.5266218   4.1548231  59.0185118  73.0116224
   4.9604926  60.2854156  73.2035446  65.8267021  51.9113493   3.5882780
  66.2557888  52.3600292   4.3168384  66.3706684  51.1401844   3.4281492
 114.5613384  60.6581736  84.6224499 115.0932789  60.7215357  85.4157066
 113.7795830  61.1753750  84.8163509  79.7373581  24.9315834  41.4905691
  80.3554821  25.4938364  41.9575024  79.3334150  25.5072117  40.8411789
  85.2121639   1.6611727  30.1171827  85.2508259   2.5231704  30.5315447
  86.1150169   1.3440101  30.1394415   8.3880603  36.1024022  77.3362780
   7.9869193  35.5850840  76.6379213   7.7311653  36.7645550  77.5513887
  64.2227221  30.6113458  20.4324055  64.5059013  29.7505736  20.7408023
  65.0091696  30.9987569  20.0481653  94.8357868  43.4254026  94.2325687
  95.2410412  43.6626434  95.0666714  94.1485405  42.8024197  94.4688034
  38.7503123  35.0495672  63.7016439  38.6945271  34.0976858  63.6177540
  38.8928437  35.3608441  62.8077650   8.5609138  32.9654694  76.2495995
   9.3465078  33.5097480  76.3028336   8.1650662  33.1977582  75.4096127
  10.5863106  97.3143387  56.3556910   9.7260445  97.1608067  55.9650469
  11.2032747  96.9211960  55.7384205  21.2129855  96.9495106   5.3964823
  21.3855314  96.1595535   4.8842072  21.8537688  97.5856876   5.0788230
  10.8392024 100.2142334  56.9273949  10.7334423  99.2726707  56.7913628
   9.9906296 100.5047417  57.2617006  54.8855591  88.4779549  25.9103990
  55.5144882  87.9495239  26.4017630  55.4266167  89.0410900  25.3568983
  87.6352310  20.7462382  45.6105804  87.4846077  21.5680814  46.0776138
  86.7700386  20.3406191  45.5544472   1.0648423 100.8151817  37.6885843
   1.5798709 101.5789700  37.9486036   0.5568884 100.5920029  38.4685850
  82.4410534   0.9292910  46.9332457  82.5925064   1.8584234  46.7600155
  82.9000854   0.7611529  47.7561998  26.2775087  87.4851894   1.8234783
  27.0315933  87.4125576   2.4085546  25.8444142  86.6337299   1.8841335
  20.0705385  94.7453785  13.0813217  19.4067740  94.2214966  12.6327658
  20.8108020  94.1490078  13.1935072 105.9809780   9.3436730  42.9187012
 106.0837269   8.6754602  43.5963202 105.7798576   8.8497698  42.1238184
  80.2672482  10.6880677  34.2201829  79.7293282  11.4206934  33.9199686
  80.1358986  10.0079715  33.5595441  59.2009640 105.8433723  19.2025232
  59.7002935 106.0868454  19.9820232  58.3596563 105.5386639  19.5425069
 113.5384941  21.2990141  90.4245377 112.6975727  20.8513951  90.5178642
 113.7384033  21.6190386  91.3042259  47.8807068 103.2810974  19.0524578
  47.3875475 104.0403271  19.3632507  47.2137022 102.6167488  18.8793337
  79.9910069  13.6247253  22.7517533  79.9044180  14.0066230  23.6251879
  80.9355927  13.5699022  22.6068807   1.3897388  30.0638843  89.0665913
   1.2145602  30.9461522  89.3939304   2.0532206  29.7149396  89.6617889
 103.1292725  48.5535479  86.3886833 103.5324955  48.7705517  87.2292519
 103.7357807  47.9325199  85.9853172  71.7165089  14.2195594   0.9990942
  71.9166899  13.3695161   0.6071961  72.2546673  14.2513442   1.7900461
  60.2670717 105.8790874  38.1032729  60.0126219 106.2525272  38.9470911
  61.2006092 105.6894588  38.1970048  18.8857067 108.5589123  18.8471341
  19.2847705 109.3481636  18.4809792  17.9878509 108.5685444  18.5154808
  18.5243940  86.3320541  17.8297889  18.9667618  87.1743679  17.9349458
  18.9950264  85.9018326  17.1158957  53.0468798   8.5310864   0.9160051
  52.8864956   7.5909162   0.8348272  52.9601240   8.7088722   1.8525398
  52.3149157  19.1172945  79.3674326  53.2174873  19.0067184  79.6663713
  52.2173405  18.4804261  78.6595392  21.0105777 108.3901978  15.4164481
  20.0849867 108.2747078  15.6313336  21.3426900 108.9772892  16.0956097
  62.2314501  29.9371934   3.0346748  61.9116497  30.8186078   2.8421426
  63.0945063  30.0754571   3.4248635  81.4635110  28.9718270   0.4217208
  80.9715960  28.1545949   0.3418601  81.7435625  28.9943814   1.3367522
  34.8568869  73.0018473  13.8188410  34.5771527  73.2855272  14.6891880
  35.7892847  73.2157326  13.7853885  41.9329262  72.7853394   6.8734568
  41.2561131  73.4568071   6.9588000  41.8139410  72.4362421   5.9901625
  58.2071114  44.1659689  12.5350869  58.1648350  43.4521008  13.1713545
  58.0479527  44.9563742  13.0509949  27.8499722 107.1016598   7.5989389
  26.9433546 107.3260593   7.3893708  28.0410028 107.5961208   8.3959615
   2.4580476  29.4095111  86.6762733   2.7270713  30.3252530  86.7489052
   1.8623811  29.2756748  87.4134922  72.2430086  25.4729533   2.5716698
  72.5819254  25.1749158   1.7275472  72.1940088  26.4251757   2.4873881
 113.0548954  34.3804502  88.0371761 112.7238464  34.5223618  88.9240265
 113.9879704  34.5862675  88.0940247  22.1151567  17.7714276  93.0764675
  21.4419413  18.4030437  93.3295918  22.9131198  18.2931662  92.9911518
  57.6747131  17.7062678  11.8946385  56.9549274  17.1589398  11.5806735
  58.1071138  18.0135441  11.0978699  63.3844614  42.5704670  10.5681324
  64.2064047  42.1254826  10.7746005  63.5514259  43.4900284  10.7749140
   1.7838584  39.3025303  81.9798183   2.4737394  38.6724114  82.1877766
   2.2492945  40.1240206  81.8224716  33.6606169 107.4395561   6.0311604
  34.5477438 107.1108341   5.8856124  33.2435918 106.7709446   6.5745598
  94.2765236  17.4911773  18.5689616  93.6950779  16.7653930  18.7956595
  95.1512146  17.1784449  18.7998939  49.5836306   0.7879283  21.7151022
  49.1089773  -0.0400770  21.7882204  49.8746920   0.9767413  22.6072145
  34.3936682  98.3611298  19.3897879  34.9697280  98.6745262  20.0870466
  34.6228886  98.8972282  18.6306500  28.4116054  81.9071388   9.4687521
  27.4965930  81.7002964   9.2784995  28.3955669  82.2730541  10.3531075
 102.2973728  48.0716228  82.5351238 101.7421341  48.2006693  83.3040810
 101.8431854  47.4040174  82.0210648 107.4650478  43.5928440  89.7900391
 106.7912006  43.3688259  89.1481876 107.3535061  44.5321751  89.9364853
  54.5480680  20.5169320  38.8745832  53.8189888  21.1352658  38.8262534
  54.5866632  20.2637529  39.7968864  15.0016201   6.9823611  82.8112507
  14.3780804   7.1802807  82.1124935  14.7223532   6.1307210  83.1473255
  96.1382961   4.3401954  32.2724605  95.8672428   5.2497393  32.1479917
  95.4127026   3.9371461  32.7492213  10.4858577 101.1333179   6.3295490
   9.8349321 100.4324627   6.2930286   9.9746561 101.9391155   6.2547678
  21.7744255 107.7959633  24.5530272  21.8479490 107.4377728  25.4376316
  20.9095120 107.5167656  24.2526913  42.7592230  86.1821270   6.2146884
  43.4244633  85.8081818   5.6368881  43.1219769  86.0808372   7.0946777
  41.2318420  99.3300438   6.6837555  40.7652426  99.5400238   5.8747900
  42.1447754  99.5493507   6.4975166  16.6156065  69.6322918  89.4947624
  16.5805566  69.0801239  88.7136650  15.8078408  70.1448202  89.4622040
  92.3902702  38.5676503  86.5225029  91.4973068  38.7887359  86.2579918
  92.7037239  39.3465853  86.9821167   1.7529894  32.5324678  72.2371912
   2.5450730  32.8474021  72.6726770   1.0656525  32.6200008  72.8975964
  56.7642832  98.9560986  13.0694282  57.5075722  99.1677475  12.5046611
  56.5853119  99.7678661  13.5440266  81.9869995  15.7498443  17.6660419
  82.3429394  14.9334502  18.0168128  82.1178436  15.6813681  16.7203033
 103.6439705  46.4771652  79.9481153 103.8875484  47.0506239  79.2214489
 102.6959133  46.5818787  80.0284576  53.9127874  84.0562725   2.5940156
  54.6829414  83.8772678   3.1335115  53.1833792  83.6775112   3.0846536
   9.1949648  81.3879108  91.2139034   9.8532748  80.6978989  91.2960052
   8.5966361  81.0689354  90.5382633  16.0309839  99.5608330   9.6659726
  16.3126969  99.0029335   8.9409751  16.5715122 100.3468895   9.5873511
  62.0738697  92.1125412  33.3641887  62.6511908  92.2819519  32.6197219
  62.2226620  91.1914539  33.5779238  20.4343581  76.8735695  87.1461868
  20.3744125  76.5136051  88.0311012  19.6117020  77.3474598  87.0241547
 110.3673172  72.0523453  88.2270336 109.7930241  72.8175116  88.2577610
 110.0318527  71.4734554  88.9115620  49.5448637  96.6773033  11.7124283
  49.9941206  96.1433125  11.0572577  49.4157648  97.5235367  11.2841117
   3.2339385  56.1322451  67.8628731   3.2428715  56.1660051  68.8194370
   3.5126358  57.0062971  67.5897503  56.9280672   6.6541910  56.9755793
  56.8641901   6.1201751  57.7673960  56.5514660   7.4981529  57.2248411
  94.0830612   9.8398101  16.3811100  95.0027275  10.1051617  16.3865459
  93.7476730  10.1554346  15.5419886  90.0220013  62.1675968  67.8487635
  90.7690907  62.7419853  67.6808929  89.2640686  62.6640415  67.5400352
  74.6585369   2.6693603  39.9559164  73.8110065   2.9578131  40.2946138
  75.1198673   3.4804809  39.7426271  43.4566832 109.1248035  94.7396278
  44.2187214 109.2354012  94.1710472  42.7051878 109.2349052  94.1570759
  31.8727326  85.4541206  72.9435921  31.1764336  84.7973633  72.9349089
  32.6817536  84.9462795  72.8818226  86.4338493   6.7344093  57.8893805
  86.1812019   7.6165563  57.6169491  85.8526039   6.1556739  57.3959684
  83.0692673  29.0774393  83.5754776  83.5961342  28.5708785  82.9573917
  82.6309586  28.4179616  84.1132641 102.3816776  16.6369784  63.1961107
 101.5418530  16.3639784  62.8267956 102.9998875  15.9656978  62.9072714
 106.5749264  76.5039492   9.1516936 107.5216866  76.5870380   9.2655557
 106.3852978  75.5937099   9.3791676   1.2385557  32.2343922  81.1170578
   1.8478963  32.4539185  80.4122543   0.6212779  32.9657078  81.1364555
 110.1582336  44.4306374  83.4352303 110.2071857  44.5160055  82.4831009
 109.2204952  44.4229889  83.6271286  95.8576775  32.1220446  63.7935066
  95.0206184  31.9214559  63.3747864  96.4011765  32.4713159  63.0872154
  57.8072548 107.9440403  88.5841846  58.3807325 108.5248280  89.0842247
  58.3947325 107.2802925  88.2228756  17.6311672 105.5870819  12.9001856
  17.3288202 105.0691795  13.6462426  17.0819116 106.3708878  12.9143977
  39.6705294  58.1200981   1.4000601  39.7726727  57.5991201   2.1965419
  39.0786672  57.6053667   0.8514389  75.4084063  98.7250614  71.9206285
  75.4470634  99.6806335  71.9610119  75.9474707  98.4322834  72.6554251
  91.0829258  13.8788211  64.4805384  90.5306435  13.6295223  65.2215242
  90.6454182  14.6411633  64.1015244   7.1590227  27.3510218  40.8411551
   6.4694673  28.0149055  40.8430290   6.7328656  26.5621066  41.1761713
 108.7763977  54.7452545  79.5065880 108.3713055  55.6124926  79.5125961
 108.6151314  54.4116831  78.6240005  69.0365696 109.2755127  71.7151594
  69.4583273 108.4270287  71.5793991  69.3036842 109.5375156  72.5962019
 107.3617649  90.1341629   6.2514156 108.1746864  90.1067162   5.7468015
 107.1688271  89.2167854   6.4448303  28.7101054  23.7183189  65.7742357
  28.6855268  24.6721101  65.8510971  28.7033010  23.5537601  64.8313141
 102.1398258   5.4168707  83.0717564 102.3396969   5.9093225  82.2756577
 102.4776554   5.9624219  83.7820148  57.6550913  92.5549030  12.2737646
  57.4645090  91.7265034  12.7138376  57.9856443  92.2982788  11.4128876
  76.5360689  29.3506002   0.9751837  76.1062717  29.1985869   0.1335184
  77.3730755  29.7551084   0.7470986 105.9591866  25.7594562  60.6220579
 105.3397942  26.4789605  60.7441473 106.3285828  25.6111050  61.4925575
  16.1398590   9.6413392  74.9629545  15.3038406   9.2173350  75.1566696
  16.8003619   9.0077835  75.2432632  70.4815197  98.7102509  73.8723230
  70.1994324  99.5973969  73.6495543  70.7153845  98.7589359  74.7992373
  37.1797347  53.0540514   3.0965897  36.5292287  53.7321329   2.9141635
  36.9091272  52.6821947   3.9360696  86.6442680  10.4264820  67.0313883
  87.0697594   9.8355132  66.4101505  86.1139393  11.0067344  66.4852238
  68.8178158  15.6102693  79.7130203  68.0210638  15.1850379  80.0301838
  68.5854006  16.5365601  79.6482182  22.8580070  75.4723024   8.7221777
  23.0537844  75.7655668   7.8322911  22.2820234  74.7169590   8.6041629
 114.4198513  19.3432677  81.5799427 114.2323685  19.4580674  82.5115585
 114.7567081  18.4498966  81.5117264   1.4300358  38.3103585  85.7921314
   2.0135655  38.8721347  86.3021660   1.9343954  37.5097966  85.6473637
  40.8371449 108.5809326  89.8861408  40.2533293 108.1953526  89.2329025
  41.6503286 108.7502003  89.4104099 103.4364986  22.6974106  64.6704817
 102.5797558  22.9023552  65.0449276 104.0635395  22.9990506  65.3278065
  70.9646273 109.6523571  82.3316383  71.0459471 108.7452412  82.0371056
  71.6677475 109.7601604  82.9721355 100.0384045  29.8568177  71.6833305
  99.2056751  30.3197861  71.5914297 100.5467224  30.1238918  70.9174871
 112.2982693  25.5331993  85.4373932 112.0417500  26.4086342  85.7273006
 111.4729691  25.1045656  85.2106953 102.7586365   8.0850345  64.4741726
 102.8999329   7.7894390  63.5747910 101.9215012   7.6949930  64.7257614
  32.2864532 105.0022125   1.8689035  32.3810029 105.9463692   1.7429954
  32.8408861 104.6136379   1.1922611  16.3925576  52.8833342  11.3731563
  15.5555892  52.5590372  11.7056453  16.4973068  53.7413979  11.7842281
 116.3738823  66.0824203  89.7380161 116.0583496  66.3850498  90.5895329
 116.3514042  65.1274824  89.7998333  68.1289911  26.0389137  90.2957726
  67.3530865  26.2632418  90.8094597  67.8982306  25.2190542  89.8589516
  73.2325459  23.2017326  69.3262911  73.9919662  23.1437588  68.7465048
  73.5019159  23.8110399  70.0136185  49.0389633  63.0301142   9.9429345
  49.3581581  62.5784016   9.1617179  49.7349358  63.6494541  10.1626539
  13.1587648  76.8181229  15.4359972  12.7743411  76.1497164  16.0031664
  13.5587430  76.3239098  14.7204530   1.0957258  92.6883698   0.1262138
   1.4918150  92.5288105   0.9828842   1.8097854  92.5531673  -0.4967395
  15.9963369  32.6963067  82.7469730  15.2236688  32.7578568  83.3086014
  16.1533439  33.5946918  82.4563122 101.1024666  17.5042939  70.2084637
 101.7445469  16.7944837  70.2203417 101.5349770  18.2104886  69.7284126
 111.4532375  86.6041946   0.3267798 110.9116173  87.3837662   0.2036628
 111.0615730  85.9471226  -0.2486257 108.3633232  21.7534709  74.5201111
 109.1687393  21.2952375  74.7600460 108.6400032  22.4001241  73.8708591
   6.6006100  41.1923456  54.8889780   6.7281783  40.7505226  54.0494871
   5.7496482  41.6227531  54.8062372  95.8383274  25.7618928  58.3133602
  96.2678432  25.3346992  57.5722456  96.0940742  25.2382898  59.0727425
  46.0529613 108.1648827  75.4436541  46.6607571 108.8501835  75.1658440
  45.1879835 108.5685349  75.3722048   9.4465095  82.5467396   7.4280387
   8.7043184  81.9690323   7.6059139   9.0470600  83.3824348   7.1866357
  15.5081761  72.5725222   4.4261193  15.8197165  73.0714464   3.6709723
  14.8239708  72.0044041   4.0720886  24.5567155  86.8320656  10.7447433
  25.4610324  86.6201687  10.5133486  24.0267086  86.2817764  10.1681054
   2.1220544  34.6284342  91.2726974   2.6880574  34.5406437  92.0396137
   1.5694964  35.3851986  91.4681911  96.1584663  18.2418585  82.2232819
  96.6533947  17.5921667  82.7224636  95.4286194  17.7497959  81.8472004
   5.6702518  18.8388729  92.7941895   5.4570913  17.9152787  92.9274750
   6.5993404  18.9045250  93.0148983  85.8763885  22.7866077  31.6473532
  85.4156685  23.4613514  32.1460366  85.6056976  21.9626522  32.0523906
  16.9508696  35.5871129  57.7642727  16.6382134  34.7922659  57.3321867
  17.6128447  35.9387589  57.1689844  70.9244537  11.0949373  76.7571115
  70.0964546  11.4922059  77.0269775  70.7798862  10.8344615  75.8474493
 111.2626839   6.7582136  88.9699078 112.0353413   6.7385775  88.4052563
 111.5994644   7.0168078  89.8277855  73.1601763   9.0531856  86.7595577
  73.3630991   8.1206661  86.6856480  73.4647846   9.2960215  87.6339054
 114.4932747 106.3875294  93.9207363 115.4137707 106.2805843  93.6810017
 114.0334415 105.7227898  93.4079933  99.9128723   0.3225971  73.9997625
  99.9535561  -0.6317626  73.9383268  99.7035503   0.4948032  74.9177790
  27.5631642  21.9546962  88.1590462  27.5781560  21.8135452  89.1056633
  28.3136725  22.5242162  87.9898930   1.7283019  25.6705022  83.7044144
   1.8179844  25.2126384  84.5402145   2.2080494  26.4896226  83.8273716
  20.7033944  66.8262434  -0.1388481  21.2642670  67.4214220   0.3585577
  19.8743558  66.8224478   0.3395997  95.5172253  23.7893891  86.3819027
  95.4319286  22.9767084  85.8833981  94.6311378  23.9731550  86.6938400
  89.0794945  18.1747925  54.0054846  89.7891998  17.8147137  53.4736156
  89.2627430  19.1134310  54.0456009  10.1431513   4.0113580  62.0901585
   9.4828212   4.4787136  61.5785217  10.7458448   4.6943539  62.3842859
   2.5552306  13.8730764  90.1631546   3.2656527  13.5140193  89.6315384
   2.2239664  13.1236100  90.6579208 107.1001720  37.4802876  90.7581043
 106.3000298  37.2778773  90.2733040 106.8456936  37.4144387  91.6785049
  76.2216043  18.5483766  94.4052124  75.5103683  19.0469623  94.8074436
  77.0173883  18.9061975  94.7988224  32.6216912  91.9354343  69.0219927
  33.1034303  92.0465565  68.2023478  32.8102899  91.0362720  69.2906427
   4.4981846  30.7759356  76.0539341   5.1816583  31.1627078  76.6012001
   4.0055820  31.5257692  75.7202816  29.9048281  63.1379986   6.2246406
  29.4782090  62.6191139   5.5427402  29.6281290  64.0374470   6.0495353
  97.4586678  30.3358150  73.8991928  96.5321732  30.3562975  74.1388083
  97.4579144  30.2114487  72.9501057  45.9298563  65.4865837   2.4783891
  46.6309071  65.9710169   2.9143715  45.1872063  66.0904837   2.4756905
  88.5141182  93.7866211  77.8840256  87.6111317  93.9648438  77.6211691
  88.6573887  92.8713036  77.6434135  11.4276695  82.5673771  10.6925142
  11.1764610  83.4281731  10.3576350  12.3015380  82.4159813  10.3324246
  10.0285542  48.9809656  81.3511848  10.4691052  49.4981956  80.6769371
  10.7212198  48.7587738  81.9733429  35.0176072  69.9018049   4.8007476
  34.9478984  69.0560150   4.3580180  35.3856158  70.4884338   4.1399404
  43.2915115 100.3331280  45.4811287  42.5700092  99.8450184  45.8778858
  43.9404392  99.6647644  45.2611065  92.2901249  30.1681399  41.6351891
  91.6385937  29.6485186  41.1643028  92.2170639  29.8772240  42.5441790
 111.8611813  21.7410588  61.0413742 111.3769531  21.3059306  60.3396511
 112.3044395  22.4712467  60.6094313 100.9325695  28.5357952  78.5948944
 101.1495972  28.5436177  77.6626539  99.9994755  28.7470865  78.6253691
 102.3383999  34.7056866  85.8330154 103.1311226  35.2153993  85.6656647
 102.5914097  33.8014174  85.6472301 102.8170490  42.4171782  87.3938656
 102.5706577  41.5813398  86.9977570 102.0404434  42.6884508  87.8832912
  26.8655372  57.9420090  28.2404065  26.0352063  58.4177160  28.2183886
  27.1594477  58.0151129  29.1484284 109.1563988   0.4560070  62.9196119
 109.3293953   0.6645472  62.0015621 109.5713329   1.1664014  63.4088993
  90.2947712  30.6638908  84.6512604  90.9180260  30.8033442  83.9382839
  90.6333447  31.1943340  85.3725338 110.7118130  47.2681046  74.1939497
 110.0777149  47.8198433  74.6519089 110.2877426  46.4118099  74.1377974
 105.2275562  27.2727680  80.2429485 105.4037189  28.2032084  80.1033974
 104.3080139  27.2400451  80.5067921  44.9317646  80.5651855  11.3209713
  45.6785107  81.1352158  11.5044427  44.2299461  80.9033775  11.8771267
  56.1748409  87.9308796  11.0516369  56.9937801  88.1304359  10.5980468
  55.6910944  88.7568283  11.0470819  80.8040142   5.2163255  16.6574645
  81.3520908   4.6521351  17.2029281  80.7177925   6.0257757  17.1610391
   9.4256824  20.1319528  73.9915752   9.5887363  20.9328914  74.4897127
   8.9508802  19.5646119  74.5989609   1.8908766  36.0564756  55.1682568
   2.7742144  35.6935716  55.1030874   1.3196564  35.3533173  54.8592138
  93.5722065  20.8389854  81.5613651  93.8039112  20.3778386  80.7552052
  92.6597309  21.0989690  81.4347649 115.8892688  29.2361760  82.3135376
 115.5543026  28.8563013  83.1257725 116.1780801  30.1145244  82.5611782
  25.4166222  16.0467529  92.3535633  25.4136372  15.5644131  91.5267754
  25.3275061  15.3708720  93.0254841  41.3004255  83.9901733   0.3314782
  41.3561583  83.4636879  -0.4659799  40.6766462  83.5207081   0.8853140
  71.9761753   1.2473783  24.5889163  71.9434118   0.6865515  25.3639221
  71.7940760   2.1263024  24.9214292  93.5607433   6.5658367  40.7660675
  94.3401718   6.0425800  40.5791950  93.8794136   7.2828799  41.3142729
  92.7390194  97.9602337  56.8303633  92.4768734  98.5927677  56.1614752
  92.9471302  98.4945393  57.5968170  92.4271679  28.7868142  49.0734959
  91.5559196  29.0134954  49.3987226  92.5642109  29.3715286  48.3281374
  68.8858986   1.2190532  36.6528487  68.3555889   1.7601383  36.0678458
  69.3852520   1.8479584  37.1737719   7.7160716  85.9333706  19.2628539
   7.4716711  85.6863308  18.3709610   7.4696720  85.1779938  19.7966456
  45.9242058  59.5007992  74.4711637  46.3213634  58.6423063  74.6177292
  45.4544163  59.4090033  73.6422443  54.8673248   2.9591697   1.4524557
  55.7533264   2.6701391   1.2340779  54.9770546   3.8610333   1.7538404
  42.7060652  88.0588341   0.7768971  43.3704567  88.7457561   0.8312806
  42.1325922  88.2204342   1.5260604  79.7822380 100.1970100  87.4894524
  79.4902086  99.8363590  88.3266354  78.9967394 100.1989365  86.9424343
  39.3451858  52.1954298  10.2944160  40.2078104  51.8081474  10.4431522
  39.1009474  52.5686550  11.1413419  39.5140576  93.5791111   4.7081366
  39.6345043  92.6336479   4.7965372  39.5584440  93.9110947   5.6048262
 107.1478271  27.9349089  90.6968975 106.8451405  27.8935909  91.6040325
 106.5880489  28.5946226  90.2874279  32.7992153 102.4015141   0.7512714
  32.0687628 101.7889404   0.8374494  33.4766650 102.0491600   1.3284528
  57.8212118  80.8398438  15.8602226  57.3768234  81.3088894  16.5664423
  57.5112772  79.9377060  15.9397364   6.9683802  33.4832764  86.1588573
   6.8411839  33.1039262  87.0284176   7.6225805  34.1695547  86.2902927
  26.8550038  25.2550673  90.2015781  27.0712471  26.0073471  90.7525253
  25.9980416  24.9666214  90.5156612  56.7711544  86.8738461  27.1632695
  56.0262299  86.3651276  27.4834752  57.4449396  86.7597389  27.8335118
 112.8905392  18.7796783  79.2558002 113.0372334  17.8952396  79.5911789
 113.2227993  19.3552351  79.9446869  99.6174622   9.4675845  61.5143776
  99.7964191   8.9675796  62.3107433  98.6685181   9.4094425  61.4032316
  99.1747856  43.8721752  94.9547291  98.6120129  43.6734152  95.7030773
  98.5665703  44.0247965  94.2315292  63.8824320  13.5149848  19.8460746
  64.7983027  13.6130631  20.1064444  63.6963844  12.5843275  19.9705553
  60.0310469  95.7581806   6.7755610  60.3169918  94.8966980   6.4717352
  59.8071575  96.2324047   5.9747982  27.4058461  69.3693590   6.6696984
  27.2539020  68.4561586   6.4263719  28.1891513  69.6205044   6.1802179
 109.6517086  82.8218079  10.1185334 110.1417160  83.5091877   9.6672630
 109.0241432  83.2945728  10.6652439  33.0093122  25.3310966  88.1728840
  33.8780022  25.2727222  87.7751350  32.5379848  25.9608603  87.6274586
 116.4672947  27.0769978  63.4850931 115.7792664  27.3642826  62.8848267
 116.5086269  26.1281919  63.3655548  39.5174313  80.8302498   9.0100992
  40.2423811  81.4519596   9.0745842  39.2980027  80.6231403   9.9184972
  60.7339907   3.8987833  12.3153770  60.8078051   4.8342061  12.1262562
  61.5408087   3.5195637  11.9668555 112.9216385   4.9309796  92.4350739
 112.5712395   5.8190256  92.3656082 113.3094692   4.7587311  91.5770817
  43.2676888  56.1886120  69.8217964  42.6400137  56.5994835  69.2272854
  44.1008091  56.6160774  69.6232557  94.1291046  31.0609698  89.8445034
  94.5077705  30.7930207  90.6817913  93.2547379  30.6714845  89.8414898
 106.9159794  38.5793686  85.4860973 106.7149544  39.5106626  85.3938198
 107.5799942  38.5447502  86.1746597 101.0904408  12.6387548  71.6216278
 100.7439899  11.9243097  71.0870504 100.5999756  13.4100819  71.3374949
 112.8915310  27.9066610  54.3796396 112.4341679  27.7395272  55.2037287
 112.1933460  28.0912828  53.7514019  23.9109516  53.2791567  74.1388226
  24.0182185  52.6206160  74.8251534  23.1244183  53.0066490  73.6662388
   5.6939292  12.0208216  60.6488848   5.8624768  12.7279377  61.2716246
   6.2568057  12.2210670  59.9010181 108.1520844  19.0774190  55.9263372
 107.8979492  18.9869261  56.8447351 107.7022934  19.8687661  55.6302118
  22.5174928  41.6291285  81.8335438  23.3835244  42.0312595  81.9007111
  22.6008391  40.8006620  82.3056984 100.3710938  30.8468056  74.9106169
  99.4360542  30.8643174  74.7065783 100.6811142  31.7248368  74.6888590
  59.7123814 100.9693718  77.5703621  59.6594381 100.2238750  76.9723129
  60.4766512 100.7846928  78.1162691  14.0223908  19.4923294  53.4401321
  14.4054425  18.9109170  54.0969944  14.7064734  19.5888329  52.7776003
  81.5977669   7.5097013  26.9994736  81.9828510   6.9152260  26.3556242
  81.0727692   8.1182903  26.4796376 111.1121178  36.6896319  85.8751583
 111.2515163  36.4165211  86.7819118 111.8761158  36.3564062  85.4045105
  28.1043744  11.9525564  87.8227425  27.1802020  11.9052827  87.5779915
  28.1725574  11.4082038  88.6071301  72.8053474  42.8586340  86.9684982
  73.0024052  43.5759735  86.3661480  72.7145672  42.0904922  86.4046288
  24.2631841  17.2923625  81.6978455  24.0381145  17.4455857  80.7801914
  23.4948778  17.5889945  82.1856499 107.7679443  40.2089787  71.6600132
 108.1695175  40.1756954  70.7917595 108.3389568  39.6713519  72.2087669
  93.6134815  56.7677450  89.3623066  93.7073135  56.8068075  90.3140926
  93.1751347  55.9326506  89.1989136 114.6545506  15.9876299  94.4372845
 114.5726871  15.2526689  95.0450420 113.7878799  16.0664499  94.0386486
  36.6724253  66.4548016   9.6832746  36.1044335  65.7245493   9.4376212
  36.1114573  67.2275209   9.6165383 109.1574287  27.2751522  73.5107231
 109.8241711  27.3993564  72.8352594 108.5596943  28.0139208  73.3959532
  28.1187439   7.1038932  92.6164818  28.5321331   6.3055599  92.2878361
  27.1962905   6.8705261  92.7206516 104.1637421  28.3799076  61.3065195
 104.0356350  29.2949343  61.0564327 103.4999180  27.9008412  60.8104849
   8.4626937  70.8492661  24.2607212   8.7782162  70.7688761  25.1608396
   7.6692325  70.3144217  24.2363882 106.4530754  19.2149329  83.2241154
 105.9600925  19.9610507  83.5654449 106.7805004  19.5123327  82.3752499
  13.8236749  18.8868940  69.5822859  14.2052352  18.0691278  69.9015045
  13.5206127  19.3342578  70.3723812  28.4593129 107.0015049  13.0897474
  28.4516954 107.8963470  13.4295058  28.0357718 106.4821815  13.7732327
   0.5023988  23.0320454  76.0694170   0.9214361  22.5261092  76.7655993
   1.1602679  23.0751562  75.3754568  93.6751080  27.3483920  90.9020615
  94.0438461  27.4151754  91.7828655  93.7177849  26.4148998  90.6946945
  48.1915331 107.8873348  88.2968712  47.7680016 107.3541164  88.9695740
  48.5028696 107.2540665  87.6501274  23.2592702  56.9203424  56.6247082
  23.1542325  57.8242254  56.9216871  24.1816139  56.7210960  56.7853785
 109.2512894  25.3058529  84.6479607 109.0646839  24.6625853  83.9641380
 109.1069984  26.1527777  84.2259026  12.3869050  79.3871403   9.2844969
  13.0014718  79.8637772   9.8424894  11.5439403  79.8140717   9.4373780
  56.3670874  68.8571119  23.7103987  56.0150051  68.0614758  24.1094398
  57.2287512  68.5995626  23.3826160  32.3669648 108.8119030  17.3329556
  32.6863766 109.2768478  18.1062794  31.5592337 108.3889771  17.6243949
  58.6276579  98.8538170  64.6614408  59.4194889  98.3807373  64.9172354
  58.6354780  98.8340950  63.7044764  51.4939833 107.1327591   6.7333841
  52.1374750 107.6493359   7.2184569  51.9200182 106.2865543   6.5967339
  17.3542964  42.5647211  66.6209793  17.6678240  41.6611052  66.5833902
  18.0611658  43.0798674  66.2321472 101.7177105  13.8990331  84.8828888
 101.2995148  13.5292685  85.6604576 102.6436424  13.6768258  84.9803543
  94.6945572  24.0000939  55.6107521  95.5856895  24.2967582  55.7954264
  94.3635273  24.6238923  54.9645853  90.5835724  18.2773268  72.1670151
  91.4542389  18.3255363  72.5617933  90.2577400  17.4109089  72.4106979
  94.5346832  21.6818643  61.3723183  94.5520973  21.5518928  60.4241419
  95.4175186  21.9814849  61.5892506  48.9204597  94.2353725  34.9654269
  48.8283539  94.4219780  34.0311217  48.1382847  94.6168232  35.3640985
   3.8684127  19.6986401  36.7281294   3.4283045  19.3747985  37.5140452
   3.1645629  20.0666595  36.1939120  78.1195784  71.5255833  31.7784905
  77.6223469  71.3645267  30.9765840  78.4647417  72.4120474  31.6723228
  47.3735428  52.1505737  94.7321224  47.6781702  51.8908978  93.8626385
  48.1758451  52.2919464  95.2346706  12.2255111  14.1131759  30.5018878
  12.7680826  14.7144842  31.0120606  11.3599074  14.1695964  30.9065819
  79.6428728 107.6495361  35.2753353  79.7093010 106.7154026  35.0773168
  79.2977428 108.0405617  34.4727063  23.0077744  13.5944390   9.3548304
  22.5783610  13.5915184   8.4993613  23.9149237  13.8350618   9.1666484
   8.0510724   5.3374743  21.9580078   8.9357448   5.1291597  21.6576886
   8.0094951   6.2935126  21.9357705 111.6005325 101.0231400  33.0689692
 111.6863823 100.1135731  32.7833986 110.7058239 101.0857582  33.4033465
  85.9713459  10.2499378  63.2521343  86.0842896  10.9196401  63.9266491
  86.7431259  10.3403962  62.6932001  66.7816305 104.1885090  24.3787217
  66.7361498 104.0252399  25.3207970  65.9128094 104.5192814  24.1507483
  17.8420615  28.1442046  12.4158645  17.9245508  28.6755824  13.2077384
  18.6930752  28.2230020  11.9848204  42.5219679  78.7030697  92.9697704
  43.3016253  78.5052443  93.4886551  42.5624704  78.0920124  92.2341061
  39.5942664  70.2546120   3.3527359  38.8890505  69.9277687   3.9113730
  39.5763659  69.6828890   2.5852436  94.8191738 104.5641041  24.4872046
  93.9230728 104.4410133  24.1740322  95.2447128 105.0769520  23.8000846
  95.1318455  92.9754353  46.5360737  95.1399136  93.3263111  47.4266148
  95.3671741  92.0534325  46.6397762 116.0249211  33.1634164  17.4798810
 116.9550129  33.3678818  17.5766039 115.8629255  32.4742746  18.1241429
  50.8679485   2.1925227  41.4997005  50.9378672   1.3208637  41.1104012
  50.5049706   2.0369957  42.3716497  15.3207564  50.8223200  26.7771697
  15.5632067  51.3345861  26.0057878  14.7377241  50.1423645  26.4395761
  47.4622002   0.5704678  18.4485638  46.9718942  -0.0470744  17.9059076
  47.0077095   0.5623330  19.2909443  90.4746056  94.4220257  36.6730070
  89.9295044  94.2580795  37.4425673  89.9234200  94.9525547  36.0977101
  19.0294409  24.3217301  79.1906404  18.2559884  24.8456526  79.3992329
  19.6483946  24.9476051  78.8145971  21.1568475   2.8721735  13.1635797
  20.6907511   3.0280420  12.3421836  20.4811502   2.5644764  13.7677228
  73.2173157  78.8616467   7.0835197  72.9876089  79.6708345   6.6267025
  73.5734320  79.1532230   7.9228038  88.9265633  92.2185135   5.6658614
  88.7403774  91.7011738   4.8823237  88.2083988  92.8496170   5.7124186
  17.5484061  74.2432117  35.8356905  17.9973090  73.8660049  36.5922856
  16.7015898  73.7975502  35.8129191 102.1802425  94.3553162   0.7885851
 102.5919151  95.0806713   1.2582827 102.5718307  93.5697651   1.1704122
  13.9506824  -0.1520168  12.5401783  13.1760128   0.4101170  12.5288701
  14.3308265  -0.0535404  11.6672361  32.5768638   8.2043743  10.3204513
  32.5174093   7.5297397  10.9968865  32.7417898   9.0140808  10.8035719
  44.1852951   9.5389098  37.7852225  43.7441683  10.3770375  37.6467371
  44.4174433   9.2421633  36.9052887   0.6902063   8.0331975  17.2915089
   0.2257523   8.6192906  17.8890121   0.0171714   7.7298111  16.6822362
  42.2112894  11.1087513  10.3190148  42.8765535  11.0166156   9.6369821
  42.3075008  10.3217602  10.8553171  92.5112724  75.2556849  92.0082855
  93.4226227  75.5347586  91.9200230  92.0709133  75.6310844  91.2457943
 106.0516357  82.0726013  10.9814179 105.1369190  82.3508549  11.0273147
 106.1333179  81.6589355  10.1220942   8.4833336 100.9673595  33.2450509
   8.9690733 100.4773903  33.9085388   7.8928888 100.3224659  32.8555393
  75.9809971  67.1921539  22.6933789  75.8225060  67.7948618  21.9668412
  75.8565044  66.3220739  22.3143101  17.7910864  28.5559940  40.1897955
  18.4789371  27.9018760  40.0664234  17.2699475  28.5096502  39.3882322
  29.6273525   0.2285565  17.1922970  29.1014202  -0.5577861  17.3382092
  29.1503627   0.7142819  16.5194046  77.5294399  71.2145758  21.2400365
  77.5598431  70.5512047  20.5506563  78.3298588  71.0718822  21.7452073
  93.7528133 104.4302845  53.9181995  94.1203594 104.2594528  54.7853518
  94.3444157 103.9810085  53.3145523   8.3006167  61.2929201  24.9970961
   9.0480953  61.8404198  24.7567868   8.1950802  61.4313889  25.9383297
   5.6646210 108.4331608  23.4320354   6.3455117 108.9359474  23.8790560
   5.0257772 108.2338524  24.1164207   0.0724564  31.8452430  13.5180187
   0.2347909  31.1854959  14.1922688  -0.2426185  31.3455129  12.7648735
  20.7626224 107.1330547  81.3815212  19.9194050 107.2812176  81.8096161
  21.3512826 106.8805981  82.0928478  96.3359070 103.5187817   5.0032902
  96.3690567 103.2671833   5.9262371  97.0286465 103.0037880   4.5896173
 114.0073109  76.6125536  40.2276611 114.7921371  77.1132517  40.4503250
 114.1463184  75.7565784  40.6328964 100.0796700 104.9461365  11.0835874
 100.7526779 104.2669868  11.1289287  99.2602921 104.4642353  10.9712076
  40.8228445   5.8192533  27.4305296  41.5806246   6.3400275  27.6966095
  40.8101368   5.8853698  26.4757013  47.0042038   4.4272289   7.3529118
  46.5866184   3.9907038   6.6104162  46.4108896   4.2704931   8.0875158
  14.6589804  14.7634041  33.9525223  14.3995082  14.9749899  34.8492599
  14.0960300  14.0291381  33.7072229  79.5615864  85.4104996  15.7892179
  79.3819618  84.9521542  14.9683106  79.3562889  84.7704983  16.4707506
  70.0690651  40.1052999  94.5962620  69.2343616  39.6374393  94.6207714
  69.8319244  41.0070610  94.3798828   7.0439494 105.8871078  48.4763336
   6.7945427 105.2726555  49.1666031   7.2850311 106.6870785  48.9434052
 109.9850178   9.8263055  29.4864130 109.6823692   9.2790848  28.7617135
 109.2136097   9.9353939  30.0425363  43.4387016   1.4404121  12.2268248
  43.4437323   2.2044212  12.8034496  43.0051517   1.7448834  11.4296019
  33.1011128   4.1373476  39.1797543  32.6497626   4.9184394  39.4997692
  33.3749723   3.6770546  39.9730778  10.4659879   4.3888804  21.4455676
  10.8251321   3.9945772  20.6507254  11.1668515   4.3053359  22.0921302
 102.4447918  85.3484821  24.3487954 103.0139637  85.0563908  25.0608134
 101.6084003  85.5389404  24.7735286   2.3946023  88.9707279  43.8524199
   3.0035359  88.5039139  44.4247103   2.8755823  89.7509384  43.5764551
  11.4986122   7.4098361  54.1664648  10.7415891   7.9701918  54.3371964
  11.3846457   6.6663599  54.7584820  73.1777334  80.2548790   2.4170719
  72.9053020  81.0584831   1.9740954  73.6985159  80.5564499   3.1614304
  87.5536537  78.6770582  24.3284631  87.0715904  79.5035791  24.3551588
  86.9774246  78.0789661  23.8525653 102.2271919  15.9025013   2.9458773
 101.9489193  15.6350851   3.8218245 103.1832886  15.9120011   2.9907855
 109.0265751  91.2786674  30.6077027 108.2119942  91.1007595  31.0778594
 109.0352821  92.2291470  30.4948258  91.3962555  38.8508987  29.2862773
  91.6454029  37.9273653  29.3215466  90.6689453  38.9265180  29.9039602
  85.0391579 105.3683758   7.3947889  85.9600544 105.3615570   7.6558363
  84.8384094 106.2928486   7.2488642  90.0039577  97.0611095  38.0408502
  89.2564964  97.2167969  37.4635386  90.5571270  97.8344154  37.9303050
  95.3747177  90.3031921  21.8374372  94.4419193  90.4378891  21.6702151
  95.6711102  91.1289501  22.2202134  66.3433981   2.4569713  64.6682310
  65.9190702   2.3283985  63.8199139  67.2370768   2.7224413  64.4512320
  11.9008601 101.6509914  32.0518827  11.7369783 101.9786835  31.1675787
  11.4143968 100.8278179  32.0962572  99.2295361 102.8966522  47.5226784
  99.8620033 102.2913456  47.9097366  98.6549282 102.3393822  46.9977903
 108.7588787  27.1435285  29.3102789 108.1820869  27.9005456  29.2079616
 108.3358097  26.6091704  29.9823713  86.2756920  84.3859386  10.8342421
  85.3327847  84.2211533  10.8354306  86.6676044  83.5361099  11.0352659
  19.1089702  95.9736061  15.3574264  18.2818496  95.4964066  15.2911747
  19.5176196  95.8649540  14.4986880  32.1196437   8.5486889  40.8400059
  32.0376086   8.5284394  39.8865438  32.3619056   7.6539224  41.0786152
 114.6420956 107.0437145  16.5110314 113.9553070 106.6425419  17.0435929
 114.6345329 106.5442085  15.6945312  93.1702995  54.2918682  14.5376754
  93.3026505  54.8712587  15.2880216  93.6632347  53.5009146  14.7559333
  44.0176105  45.9259462  82.6180172  44.3863010  45.2641249  82.0329571
  44.7241592  46.1220360  83.2332993  38.2820415   2.5054926  35.0719833
  38.8926101   2.7032334  34.3618178  37.4228168   2.7401909  34.7214389
  21.9745851  95.1830292  37.7996206  21.7241096  94.7387314  36.9896269
  22.6085520  94.5945072  38.2094407  84.9398613  97.9950333  12.0680034
  85.1520920  97.4908638  11.2825060  85.7397175  98.4835720  12.2624135
  44.6343422  47.2700071  85.4055119  44.5443296  48.0592108  84.8713970
  45.0495958  47.5732708  86.2128639  70.0114298  96.9161129  17.9528511
  70.7335091  97.0600319  18.5645056  70.1635981  96.0373688  17.6051545
  51.3353634   1.9728382  29.7567630  51.6313267   2.3881732  30.5667853
  51.2791681   2.6907575  29.1261554   2.4038172  14.9991798  17.2288156
   3.1441146  15.0595868  16.6250420   2.4913178  14.1341889  17.6292729
   9.3047398  41.4265394  10.6450272   9.4448143  40.6221437  10.1454639
  10.0526357  41.4718437  11.2407029  20.5800676   1.2156691  33.2988596
  20.3648233   0.3409093  32.9752898  20.3155065   1.8043326  32.5919533
  48.0937099  91.3611698  39.2721272  48.4450865  91.8694019  38.5410571
  48.6635447  90.5939674  39.3262506  61.4424896  22.9385161  84.4413376
  62.1798277  23.5314703  84.2965317  61.6575670  22.1592522  83.9287758
  31.5945292  17.8751266   5.6417686  31.1559153  18.3796644   6.3268161
  32.4356914  17.6292479   6.0267645 103.2642651 109.0104771  28.7467265
 103.4752846 109.7212505  28.1413245 102.7642918 109.4318199  29.4458199
 104.6677494  47.0762348   4.5634380 105.5134392  46.6871881   4.7863334
 104.0397549  46.6224813   5.1255447  75.6293297 106.7430973   9.1571516
  75.1032305 106.2931728   9.8182279  75.0132656 106.9336796   8.4497815
  26.9524431  15.5970621  30.2942777  26.4586735  15.9012532  31.0557818
  27.1075225  14.6680415  30.4648757  46.2592268  36.7072654  57.8105879
  46.8084526  35.9628892  58.0565310  45.3669834  36.3608623  57.8224897
  72.8465462  20.9156799  88.7373734  72.0663834  21.3719583  89.0526295
  72.5359154  20.3927493  87.9982662   0.3857813  99.3443966  11.9498324
   0.7415959  99.7323513  11.1503851  -0.4154883  99.8395252  12.1202600
  25.2936029   9.9020034  26.3453317  25.1236200   9.1729796  26.9418740
  25.6500435  10.5916154  26.9053483 101.1591148  75.5111456  27.3719454
 101.0447884  76.3599014  27.7994680 102.0678139  75.5149412  27.0711493
  38.3951616   5.8629400  18.9754009  39.2887330   6.2031877  19.0200603
  37.8602219   6.6237295  18.7489688  12.5516832  92.0811462  27.6754570
  12.1014440  91.5719604  28.3494353  12.3532224  91.6246700  26.8578529
  21.4656997  26.2162948  21.3338089  21.4255834  27.1198893  21.6470861
  21.1253428  26.2573123  20.4401064 111.0513687 100.3981113   4.2663333
 110.1976204 100.1337147   4.6090314 110.9686852 100.3023911   3.3175269
  73.6617708  96.3096619  19.8063171  73.7776518  95.8709145  18.9635205
  73.4462690  97.2138977  19.5779800 104.8626614 103.7865829  43.0915356
 105.4234409 104.3226719  42.5308466 104.3652344 103.2415676  42.4818182
 109.1237450  83.5374546  42.3633099 108.4140396  83.6535168  42.9950333
 109.5901108  84.3733215  42.3707533  12.0205247  34.7480702  28.1428432
  12.4873579  35.0692797  28.9142871  12.0819998  35.4639339  27.5103927
  17.0522988  25.2708888   7.3409665  17.1659470  26.1390924   7.7276683
  16.9901538  24.6805143   8.0918509 116.1377907  58.9829683  41.7147779
 116.7360210  58.5244179  42.3047638 115.2739334  58.6299562  41.9277525
 109.9554825  92.1942616  13.9758313 110.1944637  93.1131458  13.8542855
 109.3105412  92.0217609  13.2898831  59.7204685 107.3459244  14.8858786
  59.9820137 108.2546520  14.7374046  60.2915907 107.0447063  15.5925035
  34.8939776   9.3225855  51.4117813  34.4771481   8.7790740  52.0804214
  34.8537970  10.2109385  51.7659616 110.7917690  98.0239391  33.1980133
 110.7478237  98.4541321  34.0519667 110.6365585  97.0986462  33.3876801
  14.9351966  34.1187644   1.7956908  14.0972245  33.8392019   1.4270744
  14.7051954  34.8109460   2.4155417 108.1907749 106.5627289  12.7291226
 107.4819088 106.4974213  12.0892143 108.9908791 106.5190220  12.2055316
  65.8338308  28.9534593  30.6902003  65.4918623  29.8184109  30.4640484
  66.1008024  28.5749364  29.8525381   7.2146839  13.3164847  35.2343583
   7.2704130  14.2691314  35.1595807   7.8260136  12.9883063  34.5749593
  13.8724756  14.2555618  25.4730821  13.0111599  14.6722507  25.4459548
  13.7335122  13.4506035  25.9720445 109.5564747   9.0627688  25.1033306
 109.0780354   8.8609797  25.9074521 109.8303413   8.2094598  24.7670341
  23.1087303   9.8991114   7.4606156  23.2161260   9.0674913   6.9989812
  23.9442968  10.0346398   7.9074848  34.0654111   9.8378575  29.1205907
  34.4214630  10.3466332  29.8490191  34.8359466   9.4843656  28.6761260
  18.4244549  16.0746074  25.4116726  19.1518283  15.5988848  25.0106144
  18.4325159  15.7966793  26.3276005  26.3184547  15.5335760   6.1092645
  25.5548596  15.2814865   5.5900300  26.0624456  16.3551641   6.5284103
  43.2916784   4.0033850   4.9779412  44.1385126   3.6396268   5.2363586
  42.8171635   4.1142532   5.8018196 102.1095371 100.8197784  25.2021861
 102.8525829 100.5369091  24.6691680 101.4430714 101.0787296  24.5657992
  15.3186345   2.1214835  19.4753540  14.8020387   2.9270983  19.4939065
  16.0800004   2.3375258  18.9369488  60.3286839  90.4772186  45.7221889
  59.7154760  90.6428814  45.0061083  60.9144783  91.2342072  45.7158327
  15.6137061  24.9818373   5.0950038  16.0053217  24.9303961   5.9669113
  16.3526118  25.1494908   4.5100746 107.8560734  28.3601141  35.6632900
 108.3616638  27.5505018  35.7349730 107.1281052  28.2427263  36.2736344
  21.1377430  20.2588105  38.2324958  21.6534162  19.6079671  38.7086439
  20.5554938  20.6333327  38.8935184   7.2109646   2.6734594  36.4854264
   6.5003908   3.0683616  36.9907665   7.1248817   1.7336147  36.6451550
 107.7609062 106.8260384  46.6154623 106.9072247 107.1458912  46.3236570
 107.6912498 105.8729744  46.5602350  74.8916960 104.1311932   3.6007768
  75.6733179 104.6516609   3.7862808  74.6457100 103.7583733   4.4473755
 114.6492290   4.7306886   4.0113822 115.0973606   5.4866201   4.3908310
 114.7313309   4.8534611   3.0656451  12.6163042   5.5375957   8.2230192
  12.0009089   5.7101876   8.9355731  12.0627928   5.2815360   7.4852580
 101.1060905 109.9098396  21.2792802 100.1698112 110.0923538  21.3586903
 101.1484432 109.0029144  20.9760857 103.5448933  63.1533527  22.6695275
 103.5240555  63.2895947  21.7223001 103.3107281  62.2323561  22.7842450
   9.9712265   9.7742110  50.7900286  10.9155631   9.9225521  50.8395720
   9.8862702   8.8801688  50.4588127  34.0508151  17.8317213  15.4848409
  34.6386027  18.4749305  15.8810949  33.8589358  17.2152734  16.1915290
  31.2004447  11.5221369  51.1678219  31.5846658  10.9631383  50.4924536
  31.9148040  12.1005642  51.4349270  81.3638020 107.0092773  22.6780772
  82.1324921 106.8270111  22.1375966  80.9757996 106.1494255  22.8403950
  67.7270842 104.8875809  29.3603301  66.9641972 104.8710155  29.9382210
  68.3487368 104.2839050  29.7669697  33.9059448  28.5070252  14.0715933
  33.9855289  27.5542665  14.0252423  33.7688375  28.6909914  15.0008893
  81.0819054 103.7458611  30.4291725  80.7267475 104.2921257  31.1303782
  81.8314934 103.3029652  30.8269119  36.6652513  12.8121471  10.4474723
  36.5700698  11.8642771  10.5408227  37.0018005  13.1036711  11.2948108
   1.6550447  45.0650549   0.3407354   1.8942484  45.6363392   1.0705631
   1.6750452  45.6362724  -0.4270800 100.2143669 105.1263237   4.2028195
  99.8877430 104.2864227   3.8801438  99.5344734 105.7559013   3.9627910
 110.6640720  26.7421365  27.7573466 109.8747730  26.7753506  28.2978392
 110.5569935  27.4595022  27.1327233  35.9485269   1.5672283  26.6420102
  35.1430535   1.5666807  27.1591616  35.7750511   2.1820259  25.9291553
  38.7196374  22.8588438   8.5972464  38.5524511  22.1597958   9.2293936
  37.8683400  23.2786798   8.4736997   2.4055614  13.0192375   1.7190886
   1.5144071  12.9050732   1.3888724   2.9595637  12.5914133   1.0661872
 101.1987686  97.0632362  40.1229143 101.6902065  96.6889858  40.8541203
 100.7453251  96.3164234  39.7319031  29.9311090  20.5382109  25.8134580
  29.9993706  19.8504758  26.4757204  30.2645874  21.3231635  26.2480521
  75.1370001  70.9995508  13.2400239  74.5172501  70.7480669  12.5552607
  75.2287865  71.9474506  13.1436324 109.6603298  87.9786015  32.5906134
 110.1295757  87.1758938  32.8179979 109.6739674  88.0011368  31.6337752
  27.8704357   3.4956759   5.9430152  28.7948108   3.7117043   5.8201605
  27.6931334   3.7134898   6.8580848   6.0576922  30.0286508  32.1930861
   6.0668135  29.4080305  32.9217696   5.7763565  30.8550048  32.5857925
  14.5340493  49.4838299  94.5086413  14.7799256  50.1222576  95.1781104
  15.2593568  49.5001663  93.8842274  19.1510761  21.9697571  28.7143350
  19.3490624  21.0454774  28.5635400  18.1957817  22.0051980  28.7631965
   2.7047223 108.4621048   6.5284145   3.3440292 109.1690731   6.4406002
   1.9339864 108.8821983   6.9101411  76.4910793  23.8478661  86.9101048
  75.6706190  23.8861847  86.4185619  76.2656307  23.3844042  87.7167034
 108.6180210  10.7734156  56.7578697 107.7817822  11.0527480  57.1305656
 109.0723228  10.3448749  57.4832630  45.9895945  20.3361225  13.7451434
  46.1206150  21.2425661  13.4668827  45.4236889  20.4011440  14.5143986
  52.9213476  25.5432296  36.2434173  53.8041306  25.7286334  36.5636563
  52.6383400  26.3609719  35.8342266  27.4318385  32.7759743  10.6604505
  26.8835735  33.3387637  11.2071741  27.0241952  31.9120789  10.7216036
  58.3149719  81.6057873  82.9369068  58.0847692  81.5288448  82.0109844
  57.6177740  82.1429443  83.3132076  95.3186321 100.5671597  54.2725420
  94.4900608 100.8772469  54.6379852  95.3001976 100.8543968  53.3596468
  52.3964977  48.7480164  92.6660919  52.1393538  49.0113831  93.5496902
  53.3126402  49.0156794  92.5934601  97.9160690 102.5633240  32.0338655
  97.0079899 102.8049088  32.2162557  97.9496384 101.6201019  32.1933436
  74.6516991  98.8206005  32.5255561  74.2192268  98.1706810  31.9716525
  75.5855322  98.6333752  32.4300194  59.6524334   0.5806763  13.3413899
  59.8657179  -0.3412659  13.4854889  59.0925789   0.5784805  12.5649953
  89.0511227 102.4774837   9.9221265  88.5420513 102.5427437   9.1141582
  89.0173626 101.5489388  10.1521480  65.4527855   3.3224547  12.4847209
  65.3390217   3.0337927  13.3902395  65.1356792   2.5889069  11.9578600
  76.0760260  99.6725368  29.7341681  76.2809849 100.5901623  29.5547700
  76.5996504  99.1818905  29.1006684  12.9371738  18.0629694  49.1481113
  12.4437666  17.6719201  48.4270954  12.4812579  17.7698314  49.9370623
  45.3112936  15.1443493  22.4014997  44.4646692  14.8008847  22.6869631
  45.2980518  16.0642195  22.6658773 107.9154205 107.1146584  30.8352876
 107.1373081 107.2767448  31.3686800 107.5706387 106.8828392  29.9729538
   7.1074998  10.4617274   7.0921946   7.9956198  10.1193011   6.9911045
   6.6646683   9.8190987   7.6464140  10.4043293   7.9916942  16.8884516
   9.6080458   7.5067461  17.1052229  10.1143622   8.8992125  16.7959213
 105.0924873 106.5067005  36.5562129 104.2862701 106.2288284  36.9909906
 104.9772167 107.4464893  36.4157677   7.4082327  62.3690081  27.7187037
   7.2701645  63.1263351  28.2875800   7.8939217  61.7474937  28.2609749
  19.9987996  12.2827184  19.6162474  20.1500726  11.3951623  19.2912984
  20.2748919  12.8512669  18.8973892  53.5297060   7.4838704   9.5926106
  52.8169107   8.1193078   9.5264828  53.8294172   7.3654765   8.6912847
  42.5730801  25.1954031  39.7860670  42.3105812  24.4093037  40.2649975
  41.8173075  25.4051256  39.2373753   3.3300057  97.7094078  20.3500700
   2.3753142  97.7101231  20.4193187   3.5436654  98.5642624  19.9761581
   4.9389228  80.3123093  16.6784155   5.8250523  80.6624985  16.7699063
   4.5581076  80.8102417  15.9550381  11.0854137  20.0837731  38.6353540
  10.7759440  20.3054118  39.5136118  10.3741288  19.5695150  38.2534575
  98.9569569  96.1576557  19.1834390  98.1025600  95.7379532  19.2838740
  98.7680244  96.9806385  18.7326145  34.1729331   2.3633245  41.1861753
  34.4400859   1.5640244  40.7323217  34.9594855   2.6492664  41.6507244
   3.6985183  37.2498608  18.0692315   3.8871983  37.1863747  17.1329618
   4.1955617  38.0135250  18.3624816  93.5413456 107.9301739  58.7703705
  93.4639072 108.8270283  59.0957832  94.3232441 107.9423428  58.2183647
  87.5803471  93.2180214  10.2952313  86.9655514  93.8094711   9.8611355
  87.0488834  92.4627972  10.5470729  28.8768291  10.8354437  58.4298754
  29.3863654  10.2582347  58.9985847  29.3519568  10.8333337  57.5989199
  45.0175762  33.0148578  10.4627097  45.9246159  33.1512737  10.1890230
  44.5343828  33.7353158  10.0581121   9.0979040  19.7259140  27.6160359
   9.6160001  18.9226210  27.5657439   8.3833039  19.5893669  26.9939971
  25.4189038  17.5700891   7.6973355  25.2198958  17.3265433   8.6013895
  24.6677661  18.0944133   7.4196470  22.1463156  35.3932381   4.8669219
  21.2035561  35.2339911   4.8213655  22.4639368  35.2051950   3.9837521
  87.5026958  34.9277176  94.3937855  88.1130831  35.4984535  93.9269661
  87.9605691  34.6976150  95.2022637 112.2327614  99.8649216   8.2040143
 112.9928112 100.2084827   8.6736184 112.6051712  99.3060780   7.5219274
 105.5381012  50.5549192  92.7022076 104.8265934  50.1263857  93.1779575
 105.2106571  51.4367199  92.5248814   5.3672075  89.4311905  18.6836839
   5.8518505  89.3800640  19.5075393   4.6081501  88.8634205  18.8166928
  92.1756077  17.4820936  22.1005201  92.0136261  16.9463956  22.8770638
  91.3933468  18.0275953  22.0184278   6.8045610   4.7917277  29.4555759
   6.3743061   5.5224621  29.8995805   7.7350295   4.9096885  29.6467447
  18.7528610 102.2451782   7.5308770  19.5257890 101.7277527   7.7568889
  18.2888961 102.3575878   8.3605355 109.5568657 107.3080158  10.0486767
 109.4236374 107.0820236   9.1281295 110.4945183 107.4875736  10.1179361
 101.4030266  92.0342445  30.7447553 100.5017757  91.7726135  30.5562639
 101.8988037  91.7579842  29.9739695  18.1517959  16.1217332  45.7828522
  18.2180667  15.5056858  45.0532436  17.3231018  15.9011126  46.2080860
  51.5696430  23.3394098  84.1166782  52.0350599  23.6499906  84.8933125
  51.0384846  24.0864849  83.8410378  78.7592077 102.0094299  30.5048585
  79.3549919 101.2602615  30.5011296  79.3348742 102.7730465  30.5464864
 107.7563667  74.1441727  77.6240873 108.4138107  74.7764301  77.9143572
 108.2269859  73.5693026  77.0205307  65.5317116   1.5009016  14.8159111
  65.0222540   0.7739867  15.1740777  66.3009024   1.0852364  14.4263005
  33.6854935   0.4917832   9.4195873  33.2064819   0.0752592   8.7031460
  34.2919278  -0.1824038   9.7260845  57.8248358  70.3499222  93.4351540
  57.8070688  70.1209641  92.5059128  58.3797741  71.1285877  93.4794044
  54.2688942  53.2189989  91.3865662  55.1514387  53.1478405  91.0228539
  53.7043667  53.3409166  90.6232357  45.2565718  16.9884682  29.1057730
  45.2134466  16.4341557  28.3266020  44.4244671  17.4615657  29.1094971
  48.5773468  42.0559216  22.1950531  48.5638428  42.9949760  22.0100617
  49.4565964  41.7745876  21.9420671  30.0820613  44.3556070  12.5456250
  29.1607881  44.6121693  12.5863683  30.1537180  43.6222982  13.1566536
 113.3996010  95.5853558   7.3167962 113.0135727  95.2349281   6.5140414
 114.0243912  94.9154186   7.5943857  57.6659822  52.0633650  26.3769627
  57.8992748  52.9865742  26.2795615  57.0601654  51.8920517  25.6559420
  53.7504053  18.8438106  23.2218957  53.6938238  19.5707405  22.6017332
  53.5873747  19.2442870  24.0758705  54.1443634  15.8979893   7.9592997
  54.2478657  16.8486559   8.0011576  53.2852793  15.7680476   7.5576568
  42.3664379  45.3083658  87.6876068  43.2267809  45.1724052  87.2906780
  42.5458717  45.8119202  88.4816265  98.1277275   5.4736727  17.4862206
  98.4219265   6.3823992  17.5486338  97.2370243   5.5334711  17.1408117
 102.4135399  69.0137577   4.6208936 102.9755020  68.3007145   4.3175876
 102.4427700  68.9521837   5.5756640 105.1100254  77.1271133  85.1322556
 105.7395554  76.4698553  85.4288101 105.3064632  77.2447300  84.2028427
 105.7032394  77.4681234  12.0850420 105.6731129  77.7276802  11.1641991
 105.9844780  78.2576799  12.5473607 107.6909542  65.3024864  41.0230684
 107.0197678  64.6509933  40.8198547 108.1115913  65.4832411  40.1824570
   5.6582493  79.2840147  28.9729023   5.4100060  79.5481968  28.0870056
   4.8268914  79.0967894  29.4088197 100.2815056  73.8961601  29.3911409
 101.0748577  73.8047028  29.9188328 100.5590153  74.4015217  28.6270523
  98.3492565  92.1861744  17.8414869  97.7397346  92.1168327  18.5762668
  99.0602684  92.7357483  18.1711423  29.1516733  14.9816644  73.5550547
  29.1209483  14.8778224  74.5061064  29.8771024  14.4227874  73.2764101
  40.2330065  94.1172028  86.2339878  39.4967723  94.5305347  86.6849327
  40.9902430  94.3070602  86.7878723  64.6252346  66.7217588   0.6926472
  65.5509520  66.5389013   0.5318832  64.5084429  67.6298285   0.4133659
  83.7031937  87.4205208  35.5011868  83.7730694  87.4143124  36.4558125
  82.8535080  87.0184517  35.3206086  23.7532854  87.5208569  22.6069927
  22.7997732  87.4370956  22.6014495  23.9346433  88.2338905  21.9946909
  73.3220005  75.1531839  36.1021709  73.6585474  76.0361385  35.9493566
  73.8051224  74.6027231  35.4858780  84.7856998  93.4359646   4.3292251
  84.6853733  94.3604469   4.5561615  85.0125694  93.4408665   3.3993119
   5.5569500  85.0259686  28.4484839   5.3361118  84.3107986  27.8518367
   4.9970630  85.7510185  28.1708813  98.0305481  42.3370504  88.0211163
  97.2954464  41.8054724  87.7156830  98.2346058  42.9105854  87.2824383
 106.0907269  91.6540146   8.1243849 106.4968777  91.8349934   8.9720380
 106.8001080  91.2964916   7.5903559  99.5139885  88.0218220  15.0106812
 100.1422787  87.5316620  14.4803643  99.2717171  88.7697506  14.4646657
  90.4469872  56.3439655  17.1981156  89.6411514  56.2370920  17.7035213
  91.0864162  56.6678429  17.8325152  87.0081520  82.7217197   7.4660420
  87.8594112  83.1365490   7.6057392  87.0160007  81.9584465   8.0436045
  16.1824334  64.3084478  12.3570645  15.8993697  63.6807156  11.6921866
  15.8293319  65.1471949  12.0603263   3.5368702   4.6331716   7.5750005
   2.9163831   3.9588022   7.8515035   3.4396631   4.6724683   6.6235602
 110.5489540  73.6678219  25.0495625 110.6611729  74.6178770  25.0817204
 110.1031685  73.4514427  25.8685207  95.6662652  72.0780538   0.1793540
  96.3179109  71.7962955   0.8213866  96.0886571  71.9376718  -0.6680619
  30.5202317   1.4795992  84.6962452  30.5776453   2.4015649  84.9470711
  30.0083423   1.0726450  85.3952312 114.3953133 105.5514431  11.0589206
 114.1878891 104.6968079  11.4368260 114.9046612 105.3490639  10.2741647
 105.5326271  68.5005140  17.5618100 104.9722862  68.9228439  18.2128763
 105.6699276  69.1711855  16.8927968  93.2676029  98.3567715  39.7496819
  92.9657269  97.5501442  39.3319964  92.4938488  98.9198971  39.7702980
  88.5731602  16.3554299  31.2057996  87.6821518  16.0060585  31.2223387
  88.6981964  16.6500711  30.3037000  95.8017063  65.1858616  10.1899242
  95.2577496  65.9180880  10.4800725  95.4744530  64.4339848  10.6837070
   6.9284469  97.3204041  81.3905811   6.2088645  97.4380970  80.7704258
   7.3674262  98.1707287  81.4122677 108.1851482  93.8327408  25.4146767
 107.7906513  93.7602997  24.5455647 108.9945412  94.3228817  25.2702212
  49.2832804 106.1574841  83.2737160  49.7640657 106.9844723  83.2394218
  49.9604750 105.4914761  83.3923340  57.0708942  40.8679199  82.6460266
  57.4247026  40.3339911  83.3573437  57.0820999  41.7615271  82.9889107
  56.8702698  23.6701155  84.3763638  56.1907768  23.3005381  83.8125038
  57.6293278  23.7711143  83.8020229   1.7697100  89.7944450  69.6697855
   2.1843553  90.2873516  70.3778458   1.9300917  88.8770103  69.8907375
  15.2219033  57.9477024   2.1469502  15.2599800  58.8658667   1.8790665
  15.9304810  57.8543997   2.7836961 110.4082584  50.7794952  42.3612499
 111.2512779  50.9950733  41.9624090 109.8969746  50.3965425  41.6483879
  56.3055992  39.4055963  93.0600643  56.0255241  38.4955072  93.1576538
  55.9760571  39.6667075  92.2001457  79.7507763  19.6060896  92.9851532
  80.4360676  19.6710098  92.3200321  79.7970724  18.6996007  93.2890701
   1.4625464  71.8699932  11.8925130   1.1276750  71.4775753  12.6988029
   2.0395543  72.5733519  12.1901381  13.6847126  52.0480633  12.2053838
  14.2422760  51.5581846  12.8098452  12.8574538  51.5665722  12.1989596
 102.8523922  79.7390318  17.9818833 102.0802021  79.1735077  17.9698801
 102.5144577  80.6102562  17.7745426  98.5260773  35.8716297  27.0299244
  98.7530231  35.0468659  27.4594498  98.7621593  36.5461826  27.6666927
  98.0047512  67.9272938  27.7986503  97.4071121  68.2347679  27.1170974
  98.6206436  68.6497593  27.9208970  49.6690321  19.9118018  82.9521942
  49.7893381  20.8264160  82.6967716  50.5561829  19.5880413  83.1083107
 110.9149265  57.9811430  43.6642313 109.9928570  57.8869963  43.9032984
 111.3793945  57.9924679  44.5011139  88.8659096  78.0048370   9.3899435
  88.8066196  78.8564777   9.8228759  89.7793198  77.9410696   9.1109365
  58.3027363  37.9834914  94.2190552  59.0978813  37.7624249  93.7341785
  57.9280043  38.7228107  93.7402916  29.4429588  94.6050358  54.1140509
  30.2732682  94.9549866  53.7910128  29.3912339  93.7260628  53.7386084
  82.7075481  96.6243935  29.9444914  82.1981812  96.3563442  30.7092977
  83.0337811  97.4962044  30.1675510  36.1346006  24.8878384  84.3343163
  35.2922845  24.7794962  83.8927364  36.3719511  25.8016276  84.1765594
  47.4795151  61.6755247  90.4783249  48.3704376  61.9451904  90.2552509
  46.9371891  62.0372963  89.7774410  78.1913948  22.6849246  72.9070139
  78.8874054  22.2124481  73.3637094  77.8082991  23.2523942  73.5759258
  90.8906460  24.4126654  89.7693443  90.4030132  23.7151361  89.3312836
  90.7342052  25.1886630  89.2312145  76.8399239  95.4292393  14.1031897
  76.0055065  94.9607277  14.0814054  77.0756102  95.5416393  13.1822932
  23.1642938   3.4591848  40.8362007  22.9833889   3.0851763  41.6985369
  22.4154115   3.1983751  40.3001213   3.2124940  76.6135883  10.9272647
   2.2828650  76.5313435  10.7145262   3.2514822  76.5031052  11.8772674
  79.5277071 107.8679943  18.0895615  79.3884897 108.1814194  18.9832151
  78.9829874 107.0837116  18.0232251  18.1214142  68.7691879  11.1388409
  17.7429247  67.9649544  10.7836139  19.0630686  68.5994244  11.1652565
  86.6359138 107.6294613  46.7922258  85.8588314 107.4359989  47.3165846
  87.0253944 106.7729855  46.6162014  98.2152557 100.4615402   7.1277356
  99.0705299 100.6827450   6.7592204  97.9328918 101.2599945   7.5738007
  69.9337959  84.0449619  17.1408415  69.9286366  84.6006489  17.9202139
  69.4245720  83.2745457  17.3926067  80.7203674  99.0833569  33.9873695
  80.2740574  98.6782169  33.2437992  80.8684635  98.3625603  34.5995402
 104.0970898  74.1560507  19.9733961 103.4264946  74.3123198  20.6383109
 104.4462490  73.2901049  20.1842499   8.5786635  94.0281105   7.0012349
   9.0580928  93.2265091   6.7919225   8.5990131  94.5377827   6.1912632
 109.0985489  87.6415253  25.1182795 109.3719387  88.2769775  24.4566941
 109.9145412  87.3613453  25.5328774  57.9811764  25.7484651  75.7193899
  57.5559902  26.5702224  75.9646654  57.3327255  25.0738215  75.9208775
  38.5915852   2.2690308  90.8659172  37.8692389   2.8966841  90.8882046
  38.3814096   1.6374503  91.5537834  61.2809467  51.1448622  89.6898842
  60.7685709  51.6375923  90.3309059  61.2356901  51.6710806  88.8915825
  20.7307959  87.0774364  22.1654487  20.6465530  87.0056438  23.1162286
  20.3872108  86.2488651  21.8313074  62.8657055  13.9664638  75.3689766
  63.3505058  14.1829360  74.5725203  63.3311987  13.2148528  75.7358932
  20.1775932  87.7787209  13.0044246  20.3472590  88.6895561  13.2448721
  20.6181526  87.2660446  13.6821449  40.1948881  98.1039524  15.7177675
  39.5919061  98.8320541  15.5677187  39.8166704  97.6282597  16.4572930
  37.8579164  29.1119838  95.0533772  37.5225782  30.0084114  95.0393486
  38.0809402  28.9253855  94.1414165  92.8341007  86.7198086  11.5327132
  93.6949348  87.1382236  11.5435970  92.3494339  87.1506977  12.2367477
  17.5520229   1.7658705   6.3177979  17.3971963   2.4814220   5.7011563
  16.9554257   1.0727695   6.0351062  21.7948794  80.0095844  37.3702645
  22.1796298  79.4415045  38.0377078  21.4563608  80.7591724  37.8599143
  64.3015814  13.8060868  85.8537006  64.6648312  14.5142937  86.3854218
  63.5104132  14.1796565  85.4654598  74.2691183  43.0792332  41.3457489
  74.4691610  43.8558435  41.8683243  74.5822668  43.2945204  40.4672146
  11.6753769   1.8745735  11.9558001  11.1542678   2.2407338  12.6703668
  11.2360048   1.0532225  11.7354214  48.2283068  53.6853838  90.6387997
  48.2164145  52.9225683  91.2168980  48.0305099  53.3317900  89.7715759
  75.0735521  90.4039574  22.2388434  75.8654976  90.4724407  22.7720952
  74.4415617  89.9602509  22.8044820  80.4783440  12.3270285  87.2677326
  80.6850147  11.4148962  87.4715233  80.1346779  12.3009861  86.3747311
  29.3415642  88.1964207  15.9597313  28.8754010  87.7944660  16.6927767
  28.6631966  88.3574867  15.3039074  98.5318851  48.5867882  90.0419712
  98.9629364  49.1758776  89.4227791  98.0543613  47.9671955  89.4903278
  91.0623550  97.4327850  46.9218302  91.3005638  97.6282120  47.8280830
  90.5406857  96.6322517  46.9786072  56.9529057  19.3031216  75.9469843
  56.6794205  18.6794555  75.2743196  57.2336245  18.7562490  76.6807127
  80.3013992  70.0227928  31.4122653  79.6217012  70.6662035  31.6129446
  79.9799442  69.2070913  31.7963648  46.6271687  33.5427666  87.3300171
  45.6745768  33.6328411  87.3038769  46.8065071  32.7482057  86.8272781
  86.7891788  29.8134375  87.7834129  86.4184093  30.5664873  87.3233318
  87.6786137  30.0852418  88.0098152  77.9331446  77.7276468   1.6119412
  77.0342064  77.4033976   1.6667603  78.4736824  76.9377375   1.6214186
  70.1628685  97.9886341  24.6012926  70.8007002  97.3078728  24.8156786
  70.6942701  98.7462807  24.3567300  38.7782359  68.4884262  14.0818799
  38.6738062  68.3267355  13.1442320  39.6860504  68.7771034  14.1755009
 105.9744072  93.6533833   2.7767271 106.3468456  94.4107723   2.3251896
 105.6735325  93.0788994   2.0726843  50.9558249   7.4332905  69.3398809
  50.4846430   7.3808450  70.1714277  51.1880207   6.5267628  69.1385698
 109.5054150  90.4638004  11.7319489 108.6036015  90.1536942  11.6494393
 109.5372009  91.2541103  11.1928403  94.4922829  87.9911423  29.5457864
  94.7294712  88.7524414  30.0753069  93.7913513  87.5651741  30.0392246
  51.6401100  40.6897783  81.6191292  51.3533735  40.5455256  82.5209045
  51.6202545  41.6406059  81.5106773 113.3635998  65.6637907   9.6034962
 113.8382626  66.1953974   8.9644885 112.4466801  65.9135294   9.4889408
  23.5187626  36.0878420  91.4078140  22.6917982  35.6458902  91.6002750
  23.7340641  35.8152938  90.5158520 101.2266445   3.7336656   0.2465230
 100.2981567   3.6545724   0.4653280 101.6528797   3.0468276   0.7591727
  74.0076399  74.4892406  10.7451570  74.5414925  74.3602228  11.5291119
  73.1841803  74.0417480  10.9398293  44.9798298  17.9923511  83.9769745
  45.7115984  18.5921073  84.1220188  44.5266914  17.9592228  84.8194695
  90.8770561  98.7779617  53.6892366  91.0926533  99.3604469  54.4175577
  91.7256927  98.5222054  53.3277893 115.2140903 103.4242725   2.0877758
 114.8991013 103.3053303   1.1917458 114.4581604 103.7682056   2.5637132
  95.6465054 102.5101376  15.0462079  96.1338139 102.6489162  15.8583057
  94.7407055 102.7226830  15.2711189 107.2567844  25.8634639   9.2871183
 108.0547905  25.4384112   8.9728779 107.2296429  26.6979504   8.8190079
  44.7591782  14.7806942  19.0502596  45.2299213  14.1041350  19.5369840
  45.4270649  15.1868081  18.4977818  72.2551060 102.0361042  20.9109592
  72.2517920 102.6918030  21.6082931  71.6842365 102.4020576  20.2353740
  96.9080257  96.0707569   8.8913733  97.2314262  96.9148540   8.5765034
  96.2930298  96.2952614   9.5896631 107.4660110 104.6901798  33.3716393
 107.5729465 105.6071472  33.1187177 106.5650845 104.6330166  33.6899137
 114.3007088  61.3957024  16.6454065 115.2235222  61.1491442  16.7074382
 113.8238525  60.6009436  16.8845594  65.6516027  15.7065952   6.6585422
  65.3109074  14.8217392   6.5274322  65.7682991  16.0519028   5.7734567
 107.8707314  53.5638762   2.9001454 107.3399162  53.6961031   3.6856306
 107.7816963  54.3815088   2.4104670   3.2085001  78.6253691  30.0676632
   2.3883609  79.0947247  30.2203298   3.5121593  78.3829689  30.9424567
  40.3964186  10.1964247  91.5604210  40.2128839  11.0993004  91.3008785
  39.6067142   9.7124964  91.3187408  21.5404582  10.5886209  42.0279074
  22.3452306  10.3134668  42.4670696  21.3361526  11.4403737  42.4139214
  26.2146759  96.3980293  38.5612702  26.0848093  95.6189346  39.1019917
  25.5983353  97.0398426  38.9140105  57.3361731  53.7295771  16.1263192
  57.2027636  52.8045273  16.3330019  57.0176411  53.8227510  15.2284956
  30.0657821  67.5784445  19.6956444  29.7873616  67.9228115  20.5442452
  30.2777743  68.3561516  19.1794384 113.4849834  84.4976997  29.7012711
 114.2464447  84.5554066  30.2784038 113.6323452  83.7025928  29.1891003
  19.2881370   2.5685284  46.6136742  20.1544905   2.3568709  46.9613314
  18.6826169   2.3209642  47.3124504 103.1468487  17.3409891  91.4344597
 103.4939384  16.5471625  91.0275173 103.7313557  17.5061071  92.1742725
   4.8418871  93.8660526  73.9698792   4.9662665  93.2303810  74.6746302
   3.9376539  93.7339687  73.6850166  30.3794527   1.5297231  37.1171570
  30.3970718   1.3890891  38.0638051  29.4541812   1.6641943  36.9121718
   6.7839664  96.3147068  12.3270535   6.7734849  95.3980827  12.0515203
   7.6839304  96.6012669  12.1715605  61.3613176  73.3026314  17.4913597
  61.9574881  72.8181601  18.0624056  61.7551041  74.1718340  17.4161971
  53.3004570   5.9343338  14.5946777  52.9785204   5.8948916  15.4952514
  53.7061596   6.7983329  14.5229781  40.9688568  30.5050087  18.4843266
  41.6919041  30.7008481  17.8884351  41.3506079  30.5847549  19.3584776
  89.1205311  94.9694920  19.7652292  89.1776085  95.6675911  19.1128254
  89.1201401  95.4269028  20.6060624 114.1192245 103.3981800  12.5645959
 113.9404964 104.1487694  13.1310821 114.7567844 102.8765869  13.0521393
  84.2896366 108.9430618  43.2215309  84.9841881 109.1994286  43.8282490
  84.5043468 109.3964291  42.4063015 100.5159092  90.4341888   6.4701921
  99.6741486  90.8759594   6.3583618 101.0891533  90.8434296   5.8220100
 110.7074070  33.7270617  18.1568921 110.8871937  32.7873278  18.1853426
 111.1236763  34.0261889  17.3485148  15.7789397  90.9104538  12.2992265
  16.1380172  91.3035870  11.5037727  15.4367483  90.0631618  12.0142221
  77.2180721 103.4645163   0.3736556  76.3281295 103.8168131   0.3625835
  77.1132013 102.5579153   0.6622852  59.6110916  65.3640747  90.5988884
  59.7003841  64.9145842  91.4392567  59.9526930  66.2435722  90.7602119
  90.1890850 102.6622772  23.1897712  89.5806122 103.2549477  22.7484894
  91.0546589 102.9428291  22.8925943   8.8385391   9.9126643   0.8842549
   9.3354964   9.7682965   0.0790076   8.0595011  10.3920364   0.6022376
  91.6409779  61.1080027  92.4916172  92.5857449  61.1110258  92.6453686
  91.2559700  61.0684156  93.3670712  54.9553633  18.7243152  79.2239523
  55.2083445  19.6114695  78.9686346  55.0188303  18.2152236  78.4158516
   5.2280188  90.8065033   0.6451198   4.5451880  90.7854843  -0.0253515
   6.0194141  91.0653305   0.1729589  86.9139290  63.1401539   3.3288237
  87.7866173  62.7501392   3.2783800  87.0523548  63.9814281   3.7639391
  40.7958651  15.1568210  17.4809301  41.2370539  14.3202555  17.3334706
  40.4266119  15.0810444  18.3607829 103.1126881  91.4125252  47.8290319
 103.5810089  92.2446346  47.7619314 102.4861526  91.4312935  47.1056128
  68.4359074 107.5102234  16.0146666  68.7864494 108.3814049  16.2001443
  69.1981030 106.9977760  15.7450593  29.3982983  53.2297659  69.8468256
  29.7523499  52.3540163  69.6921158  28.9389181  53.4490395  69.0361929
  88.4163570  84.3741798  46.6127729  89.2021847  84.5952606  46.1129332
  88.5960579  83.5041523  46.9691372   4.9190113  75.5278349  17.8039527
   4.5328692  75.7982731  16.9708920   4.6268952  74.6238565  17.9210973
  62.8708267  45.5258179  93.1054592  63.2427931  46.3622427  92.8257084
  63.5787821  45.0979853  93.5871124 101.0486507  90.4438019  26.1129594
 100.9303093  90.7831764  25.2257991 101.2661743  89.5199299  25.9889483
  20.6296277   9.3145978  22.3640680  20.1799011   8.6732852  22.9142451
  20.0450373  10.0724638  22.3529124  54.6312237  82.1469879  94.2664528
  54.9664640  81.3204575  93.9190292  53.7115955  81.9686604  94.4632053
   9.1568691  37.1449685  25.3753901  10.0509119  37.4297214  25.5646920
   8.7691814  37.8764725  24.8949409 107.4184132  87.1506119   6.3478875
 108.2619381  86.8158054   6.6521972 106.7910385  86.8539143   7.0071322
 102.0685387  56.7665052  93.9034557 102.3152256  56.2153721  94.6461773
 102.2196198  56.2153196  93.1356049 104.8077393  99.1814804  10.3497612
 103.9751911  99.2218590   9.8791528 105.1237488 100.0849915  10.3553963
 111.1853123  74.0438366  11.5187037 111.9429970  74.0478659  10.9337854
 110.9082031  74.9592066  11.5580142 112.7882481  93.2330608   2.2729383
 112.1008110  93.8414097   2.0016852 113.5801125  93.5609818   1.8467239
  23.6092234   7.5613427   6.3900959  23.4529471   7.3709810   7.3150671
  24.2312574   6.8902153   6.1092138  76.4996815  46.1701775  94.3731022
  76.3773298  45.2459478  94.5900249  75.8551025  46.3424778  93.6867619
  34.2282343  16.0085666  17.4851632  34.7281003  15.2212787  17.7009034
  33.8988352  16.3214958  18.3276606  56.2056398  15.3895342  77.5257540
  56.7736673  14.8462534  76.9794750  56.6842365  16.2125909  77.6245403
   6.8792051  87.1636200   4.6937844   7.1280706  88.0870342   4.6538150
   6.0984045  87.1497345   5.2473092 100.9515095  99.2650318  30.6761026
 101.0902500  98.8832188  29.8093843 100.7567310 100.1861954  30.5036354
   8.2961565  73.6466026  27.4856353   7.7610850  74.3831682  27.7812743
   7.7638221  73.2175064  26.8157625  91.0825157  94.8265362  16.1053038
  90.2144051  95.2117157  15.9859192  90.9568882  94.1564274  16.7771697
  18.1193876  15.0666440   5.5374521  18.2079804  14.3666017   4.8906729
  17.3679411  15.5773509   5.2362227  59.4819975  25.7833838  89.8578453
  59.7438574  25.7896662  88.9371777  58.7920761  25.1216364  89.9061108
 114.7616557  68.7567616  28.2706761 114.9579130  68.8374186  27.3372889
 115.5603259  69.0496063  28.7095356 109.5503521  84.7800064   1.8679444
 109.8301601  84.5516777   0.9814892 108.5983276  84.8577690   1.8060336
  61.5166378   6.6707289  30.7947516  61.9559193   5.8203095  30.7874632
  60.6153917   6.4769900  30.5369806  20.7215595  14.7790003  91.3348484
  20.2487755  14.0631998  90.9101868  20.0506210  15.4391015  91.5090370
  69.8966217  35.1809406  92.8419590  69.5863724  35.3213763  93.7365341
  69.1038895  34.9895024  92.3408031  52.7004433  39.4272447  87.8636646
  52.5766706  38.8376880  88.6075306  52.1052694  40.1570988  88.0348778
 113.8411903 105.8815575  89.2639065 114.0585899 105.1093006  88.7418079
 114.5293617 106.5132809  89.0551662  48.7003517   1.3777602   7.5187242
  48.2750988   1.2157770   6.6766119  49.6211624   1.1649574   7.3669058
  25.8046293  64.1550636  24.2393112  25.2788901  63.5318899  24.7407913
  25.8134460  64.9475098  24.7761369  99.8328018  36.9579244  85.9336853
 100.6797123  36.8755960  86.3720894  99.9856853  37.5938702  85.2348137
  20.1668286  14.4198787  62.3451042  20.0176644  15.2803123  61.9531393
  21.1125255  14.3826008  62.4882793  16.0693014   8.3706462  10.9030318
  16.8008423   8.3019519  10.2895486  15.3127193   8.0530763  10.4101169
  17.1062291  75.6248617  -0.0199767  16.1710095  75.6792927  -0.2165330
  17.2463393  76.2820196   0.6617417 103.4174061  84.8005581   8.8939673
 102.7262974  84.1584969   9.0563405 103.0229282  85.6410789   9.1266352
 105.2701187   8.0008930  15.4307306 105.1792431   7.2018856  14.9115384
 104.6481037   7.8912157  16.1499667  99.3809795  13.1016576   6.0592657
  99.4487381  12.2711670   6.5303558  98.5481453  13.0441213   5.5909657
  14.4309719   0.2562035  15.0848889  13.7888820   0.9102524  15.3608525
  14.1963203   0.0578011  14.1783535   7.8293604  89.0656471   6.8599588
   8.7604398  88.9911175   6.6507506   7.8102976  89.4737911   7.7255714
   4.5382151  88.7374687  14.2824292   3.8394931  89.1598701  14.7820270
   5.1992798  89.4206142  14.1704941 102.5835800  94.7463608   4.2168161
 101.7342949  94.4500923   3.8894373 103.0810261  93.9404869   4.3559375
  16.3185918   0.3243504  21.4318967  16.2086630   0.4071960  20.4846454
  15.7915068   1.0349398  21.7972398  12.4761355   1.4056048  38.0684471
  13.3741415   1.2093222  37.8014421  12.3119617   0.8185750  38.8064694
   8.5250467  94.8959255   4.1136965   7.6764506  94.4813728   3.9579338
   8.3904517  95.8135033   3.8767338  89.7931480 104.2591095  13.6089742
  89.9571514 104.4847870  14.5246208  88.9473629 103.8110828  13.6205029
  22.9108930  96.7459106   8.7424916  23.6327219  96.1569214   8.9622319
  22.2452855  96.1758137   8.3575445  24.3776536   9.4866145  42.6346779
  24.6124315  10.3014886  43.0786276  25.1073933   9.3200713  42.0380402
  73.5360241  81.2010288  90.6611824  74.0214586  80.3827477  90.7660484
  73.3930016  81.2754345  89.7176552  75.9292555  73.2369232  93.9147663
  75.6485176  74.0149641  94.3965054  76.8744230  73.1935501  94.0597248
  69.0354681   1.6728678  41.3881350  68.4831095   2.2095312  41.9565725
  68.4234476   1.2637801  40.7763243  30.1770091  19.7555602  17.2895110
  30.2313089  20.5708575  16.7909384  29.3634558  19.8332763  17.7878296
   1.8662052   4.8486128  12.0141554   1.6016077   5.5132759  11.3781977
   1.8133618   5.2925009  12.8605616  10.5994022  38.0255437  40.8936167
  10.0647986  37.7843428  40.1371431  10.9447145  37.1937633  41.2178612
  93.5405731  83.9613724  20.8555126  92.5885487  83.9097118  20.7705808
  93.6832619  84.5463657  21.5995884  74.5373678  98.5102844  10.2166486
  74.8450947  97.8216839   9.6272755  73.8995743  99.0014553   9.6987641
  57.6290751  32.3008251  94.2468166  57.5239611  33.2369089  94.0767288
  57.5985622  31.8950558  93.3804131 105.2968884 100.5628204   6.3227755
 104.7012234 100.1354504   6.9382197 105.3129005 101.4783955   6.6015404
 110.3767014  86.0350895  42.3762512 110.6353283  86.5312386  41.5996075
 110.4743481  86.6543579  43.0995750  54.3099022  27.0584512  30.4022861
  54.6487331  27.9335690  30.2136087  54.6831083  26.8358612  31.2551665
  92.8221035  73.0295706  27.5719070  93.1202412  72.1284151  27.6954746
  93.5336304  73.4535980  27.0921540  82.0821571  52.4532604  93.3485889
  81.2097168  52.8119087  93.1859684  81.9719219  51.5064144  93.2616043
  18.2789481  11.2977624  21.5799165  17.8634501  11.9235122  22.1732378
  18.8883460  11.8254387  21.0637522 107.5484753  40.4071617  14.6164596
 108.3014011  40.9769344  14.4593167 107.5420952  40.2746582  15.5644226
 116.3655853  83.4875202  10.2163923 116.8596554  82.7039242   9.9753344
 115.8699608  83.7100315   9.4283116  96.7758179  97.5868130  49.7079563
  96.3291645  97.4664497  50.5459595  96.1347866  98.0363274  49.1572762
   8.5221118 100.6169796  16.6860163   9.2347240 100.0744629  17.0237887
   7.7795029 100.4194832  17.2567677   7.1490848  57.6629210  57.8418398
   7.7494705  58.3866262  57.6628923   7.4853349  56.9371700  57.3160505
  77.7651691  62.6677608   3.2468423  76.9503164  62.3692179   3.6507139
  77.5965452  62.6227522   2.3056883  11.3359094   8.7059486   2.8256881
  11.8942297   9.1982180   2.2238734  10.6516445   9.3256229   3.0787036
  60.0570726  24.3259168  86.3695145  60.6904316  25.0414634  86.4250469
  60.3002501  23.8519859  85.5742264  17.7318418   7.1959615  46.6673851
  18.1908226   6.3992721  46.4012003  18.4216714   7.7697831  47.0006943
  22.0979905  68.5523367  21.0545015  22.5156713  69.1651821  20.4493618
  21.1742401  68.5602570  20.8037925  95.3875732  90.2630901  34.1087079
  94.5100689  90.5384254  34.3740416  95.9452343  90.4908848  34.8525834
 105.0839901 108.2008362  18.0672288 104.5484638 107.4775696  17.7411544
 104.6432877 108.9881802  17.7476990  19.2693412  96.2115002  10.4594052
  19.1002977  95.5041981  11.0818124  19.0072119  95.8523560   9.6117401
  95.8089161  88.0727386  15.3322852  96.4106560  88.0612183  16.0766017
  95.9029865  88.9503002  14.9618030  85.6625938 101.6197395  50.3483868
  84.7928905 101.3092899  50.6003046  86.0992050 101.8090343  51.1789131
  98.1824684 103.5187817  22.6484966  97.4426460 103.3296967  22.0713162
  98.5891724 104.2978477  22.2691822   3.7873334 102.5823212   1.7397177
   3.7294704 102.8514004   2.6564956   2.9793897 102.0938683   1.5820146
  64.2603302   7.4709493  24.3719220  63.3450842   7.2055215  24.2819047
  64.2182159   8.3636242  24.7148347  37.1766257  40.8189154  88.4432030
  37.8589153  41.3288307  88.0065060  36.9339943  41.3459539  89.2045116
  54.2225266  33.3891201  83.4381199  54.4164896  33.1099558  84.3329239
  53.6816645  34.1718268  83.5433388  61.2416410  34.9651933  88.2626915
  60.2872372  34.8928380  88.2733345  61.5283251  34.2658019  87.6754189
 115.0580215  53.8784456  34.0893269 114.2506886  54.0550327  33.6063623
 115.7566071  54.1650724  33.5010529  53.9186001  21.7975330  85.8101177
  53.8546658  21.1822701  86.5405941  53.6110306  22.6294494  86.1700439
   0.9777941 109.4711399   8.5906088   0.9753256 109.3530846   9.5404965
   0.0724858 109.6948242   8.3747017 110.7200623 109.4186497  25.5795050
 111.2857246 108.7645817  25.9899330 109.8581219 109.0035915  25.5474329
  89.5083332  27.5905466  90.8934784  88.7172031  28.0515766  91.1723995
  89.2538834  27.1457505  90.0850010  69.9212074 107.3154259  11.9949305
  69.5250368 108.1058502  11.6281629  70.8627748 107.4859715  11.9704866
  93.3370113  94.1856289  22.2252774  93.1247711  95.1079273  22.3685813
  94.2862320  94.1745758  22.1024251  43.5014820  20.9762979  81.0374546
  44.3011618  21.3086963  80.6297207  43.7712765  20.7189083  81.9190407
 107.2860146  91.9951916  10.6665885 108.0964756  92.4568081  10.4514408
 107.0685959  92.2920990  11.5502203  58.9403868  14.1218793  78.1294918
  59.5613861  14.8479462  78.1879377  59.4889927  13.3463776  78.0117655
  10.7104003  96.3946915   5.3147799  10.1436150  95.7149410   4.9501875
  11.0981286  96.8191624   4.5494547  91.3744736 103.0122375  64.3231869
  91.5730000 103.9320278  64.1476536  91.4580345 102.9261875  65.2728415
   7.2182930 101.4462376  22.2352004   6.8924177 101.7230511  21.3788056
   6.5934086 101.8145943  22.8597498 107.7991676  95.4214191   2.0767321
 108.2686520  95.7507515   1.3103385 108.3471584  94.7086811   2.4052949
  17.6467979  27.0142293  22.4168801  17.0403159  27.1967697  21.6991830
  18.1288004  26.2380147  22.1315861 112.5159740  96.6604328  17.7956808
 112.0594788  97.4549484  17.5189269 113.4408188  96.8469715  17.6341152
  20.4726124 100.2767181  10.5220675  20.5768490 100.7320213   9.6865642
  20.0625753 100.9226322  11.0973001  41.8273020  17.7141786  17.1927142
  41.4370537  16.8458021  17.0934081  41.8273544  17.8701651  18.1371188
  98.4673500  86.6049862   1.1045013  99.1481400  86.7001343   0.4383957
  97.7413654  87.1396351   0.7830524  25.0819278  62.2065353  36.0969806
  24.8902845  63.1109571  36.3450265  24.5277858  62.0450497  35.3333831
 100.2779293  80.8834553  23.7113094  99.9743843  81.7418385  24.0067506
 100.2094364  80.9205151  22.7572823  31.0113215   5.9678161  28.4929180
  31.3196301   5.2797288  27.9032469  30.9339643   6.7429876  27.9367185
   8.1248748  86.3794041  31.4368868   8.3563775  85.6546879  32.0177722
   8.3011514  86.0466766  30.5568552   3.0772260  92.7292919  25.4728341
   3.1291324  91.8664932  25.0615931   3.6670566  92.6722050  26.2245464
  64.6514702   8.4737182  30.6069446  63.7535143   8.5668409  30.2887702
  65.1946974   8.8021761  29.8905277  37.6044393  10.5640626  35.1148629
  37.1298933   9.8132277  34.7580886  36.9640255  11.2754679  35.1121068
  94.2828560  71.3048124  36.2756109  94.4454384  72.2192812  36.5070081
  94.3919754  70.8267021  37.0976400  38.4263539   6.9614375  36.8398476
  37.9652810   6.7202413  36.0364389  39.0435886   6.2446117  36.9861817
  67.2593021  23.5034132  73.6768579  67.4039364  23.8871908  74.5417452
  67.7169609  22.6632905  73.7080383  27.6592898  62.4958372  14.7668493
  26.7163515  62.5063610  14.9311304  27.7361321  62.3800755  13.8197875
  98.8738823  96.0902882  24.0007377  99.8038673  96.2487030  23.8386369
  98.8590717  95.5045509  24.7576547   3.7137097 106.8298817  28.7453270
   3.1337222 106.9936562  28.0016708   3.7795675 105.8761024  28.7922049
  90.9839439  93.5733986   6.7593783  90.9744644  93.1653881   7.6252115
  90.1803303  93.2651424   6.3405383  27.5874543   3.7534744   8.8272554
  28.4295511   3.3548400   9.0467948  27.4493098   4.4118071   9.5082450
  72.7618074  23.7019610  93.3697319  72.3528767  23.8664126  92.5200462
  73.4591436  24.3548656  93.4303093  43.0820847   5.4155719  16.6071129
  43.7950993   5.9260923  16.2234330  42.6755238   4.9739632  15.8615112
  25.5517483 100.4723740  19.3340623  25.7754731 100.9437752  18.5315931
  25.0693059 101.1102581  19.8599768  43.6025238  31.4526510  67.9830265
  43.6158133  32.4090075  67.9451561  44.2349005  31.1778474  67.3190880
  72.0709944  37.6566577  94.6963978  71.6044760  37.6163721  93.8615513
  71.4021397  37.9099965  95.3325462  75.7158279  88.1929493   7.9657173
  75.7006741  87.3468208   7.5184214  76.6422033  88.4321880   7.9943311
  74.0530825  31.7878103  93.0830288  74.5343733  30.9664679  93.1829739
  73.6607790  31.9416451  93.9424801  28.8033390 101.7835903  16.8672955
  28.8453245 100.9829712  16.3443422  28.8525319 101.4803600  17.7738643
 101.2473583  40.5477095   3.7558052 101.9815826  41.1618185   3.7517393
 101.6349888  39.7092795   3.5047856  71.6965580  30.3964281  91.6330814
  71.7833948  29.6509767  91.0389423  72.0362902  31.1401772  91.1354256
   1.0345515  99.8055935  23.0239892   0.7495665 100.6289577  23.4203267
   1.7164893 100.0620270  22.4031568  50.5910397  33.8469172  86.4498425
  51.3623476  34.1769385  86.9107056  49.8702908  34.3891788  86.7703247
  54.9457455   7.9263395  94.3692589  54.9665260   8.8783711  94.4664001
  54.9693727   7.7815217  93.4233761  63.1681919  17.8465092  81.6171455
  63.4851789  18.6810482  81.2717533  63.8322210  17.5832915  82.2543430
   7.3112881   1.3570361  11.5592575   6.4551646   0.9329125  11.5009177
   7.7351713   0.9388583  12.3087120 104.4601250  12.9561651  19.6598768
 105.0707912  13.1672716  20.3660941 104.8198700  12.1638834  19.2609990
  87.1514797  80.6739998  14.7165382  86.7823887  80.4481506  15.5703509
  87.9885483  80.2106476  14.6873140  24.3000650  64.6816921  26.8340755
  24.0871859  65.5019474  26.3889980  23.8792634  64.0051317  26.3035774
   7.3289400  52.9682207  51.8209457   6.9159490  52.1650934  51.5036821
   7.2084856  52.9406548  52.7701378  86.6712379  94.3812466  21.8700910
  85.8924770  94.8277664  21.5378523  86.8093491  93.6556625  21.2612557
  88.6775112  83.1750870  32.0783663  89.2775822  82.5841618  32.5332975
  88.8223839  84.0270424  32.4899650  87.2020531  77.0462084  11.2864292
  87.8738976  76.9626522  11.9630945  87.6831913  77.3117781  10.5027092
  66.4476490   2.9562637  19.2898047  66.9497061   3.3503169  18.5764384
  65.7636023   2.4508888  18.8505960  58.8594770  46.1502981  89.3591881
  58.6786413  46.7489338  88.6345005  59.7981262  46.2460566  89.5204163
  88.7169552  94.0477085  28.3767748  88.7634850  93.0978966  28.2675409
  88.1348896  94.1743946  29.1260242  20.6840491  92.4430943  28.2100701
  19.9112761  92.2638512  28.7457228  20.3521848  92.4711323  27.3126793
  88.3799553  76.0102987  88.6440182  88.2184410  76.4916658  87.8325748
  87.8840160  75.1978159  88.5432816  25.0207400 101.4877224  24.4683337
  24.5727634 100.8768368  25.0534582  25.5781007 100.9322643  23.9233184
  33.0257607  28.9275336  50.4461002  33.5673285  28.4664559  51.0866833
  33.1011558  29.8503995  50.6887197  87.0349979  56.6971016  13.2664955
  87.7021217  56.7793941  13.9479649  86.3643932  57.3354483  13.5094774
  42.9865742  39.9430776   1.2516737  42.6050234  39.6314144   0.4309945
  43.7473106  40.4576254   0.9819388  12.0110619 100.7147980  23.8943291
  11.9026363  99.8293495  24.2414165  12.2966981 100.5842876  22.9901099
  35.9110093  22.5389171   4.1027769  36.5904474  23.0951810   3.7217683
  36.3786101  21.7573500   4.3972847  32.6914644 102.3125458  38.4295177
  32.9368734 103.2127857  38.2160616  31.8318129 102.1962833  38.0248976
  54.2035627  72.9793930  94.6652889  53.8488865  72.6697826  93.8318729
  55.1474857  73.0370331  94.5172691 105.2146816  93.6868191  36.1257863
 104.3354893  93.4610081  35.8220315 105.6086922  92.8476143  36.3639545
  41.4795113  26.8754554  21.0508609  41.4606190  27.8024602  21.2886381
  42.4080896  26.6435313  21.0646415  86.4771175 108.3096504  17.8485000
  85.9452915 107.5160599  17.7884030  86.7643929 108.4740353  16.9503450
  66.2650299  37.0317435  92.7603531  66.6018724  36.1954403  92.4388409
  66.5801096  37.6763606  92.1267700 106.2796211  82.8076267  53.7400055
 106.2834835  81.8640709  53.5790157 105.3556156  83.0261421  53.8612366
   3.4999213  98.4097004  31.5622520   2.8865585  97.7016258  31.7588544
   3.5033154  98.4652138  30.6066704  23.2989740  91.4734554  23.5059953
  22.8158712  92.2667980  23.7371778  24.1102386  91.5314198  24.0106964
  41.8353319 105.8292484   2.9924461  41.6240215 105.9232330   3.9212874
  40.9909344 105.6739712   2.5692332 110.9873676 106.0113907  35.8655310
 110.4988289 106.8311596  35.7910681 111.8069744 106.1778831  35.3999639
  57.9349184   0.9559005  22.6089764  58.7806559   1.4005902  22.6656818
  58.1055832   0.1847280  22.0682383  84.8684883  85.7300758  13.1345558
  85.3469181  85.1092529  12.5850880  84.0893459  85.2502632  13.4155202
 108.1960964  81.4353848  44.6323395 107.9898453  81.0810184  45.4972792
 109.1388321  81.5989590  44.6590900  15.6515336  79.2752886  22.9809904
  15.7105911  78.4612656  22.4808836  14.8531365  79.1799450  23.5003209
  20.9304357  27.3312950   4.4686058  21.7937827  27.4051428   4.8753113
  20.4659176  26.6907573   5.0072789  15.6498623 105.9011078  59.8237562
  16.2581944 105.8744431  59.0852118  15.3872204 104.9894524  59.9507523
  89.0309715  96.8724060  15.0507998  88.6770630  96.9364071  14.1637361
  89.9286366  97.1958351  14.9744451  14.2471266  48.0783653  26.9157410
  14.8497677  47.3551893  27.0891476  13.7173665  47.7769470  26.1776805
  35.2662301  81.2939930  85.1759148  36.0920262  81.7679596  85.0776768
  35.4947233  80.5183601  85.6881905 103.6747551  99.2319965  43.9116812
 104.0588665  98.9193153  43.0925798 103.6117077  98.4502506  44.4604349
  73.1086683  73.3191156  83.6410427  73.5012341  73.4853840  82.7840328
  73.7156534  72.7156162  84.0695095 110.0361538  94.5749569  68.1392241
 109.1380692  94.8974991  68.0641508 110.0925159  93.8707638  67.4933338
  36.5277839  42.8794241   2.8393865  37.0258451  42.1236944   2.5278768
  35.6648970  42.5253963   3.0546004  33.9236498  11.6638041  10.4229188
  34.7654200  12.0989287  10.5582714  33.6765838  11.3448691  11.2909460
  35.4848766 100.6185055  24.3382120  36.0554576  99.9814224  24.7680902
  34.7925377 100.7891750  24.9767804  85.5059242 108.2452679   7.1169198
  85.1363468 109.1066170   6.9226849  86.2904167 108.4319878   7.6326084
  30.8379889   8.1615204   6.4154959  31.6168380   7.6301420   6.2503839
  31.0092473   8.9856154   5.9596783 112.7692318  10.0767851  11.4475453
 113.7014580   9.8934066  11.3311136 112.7364635  10.9990203  11.7017925
  36.1254954  41.2035513  29.6318555  35.7719445  40.3477287  29.3893743
  36.9862914  41.2341261  29.2143273  24.1107273  16.8886149  10.0366509
  23.5575271  17.6696372  10.0222170  23.4936929  16.1574674  10.0062358
  51.6024351  35.9790230   9.6639752  52.1369171  36.4205337   9.0039539
  51.7510748  35.0464129   9.5078427  14.2880571   6.1293375  29.9771667
  14.8879182   5.4551834  29.6579242  13.9479017   5.7772356  30.7996941
   3.6034217  94.8143864  27.7454305   4.2251125  95.0691986  27.0636630
   3.9362952  93.9788342  28.0729628  24.9586940 106.9421291  14.1023231
  25.2507591 106.1912727  14.6191859  24.0382552 106.7594528  13.9134955
  80.8714472 109.5395005  47.4168158  81.3274496 109.3488796  46.5970850
  79.9477507 109.5899939  47.1709156   0.3631878 109.4991112   3.4578753
  -0.3405257 108.9544582   3.8105327   0.7062504 108.9978123   2.7181202
  22.7802920  59.1018486  14.9063802  23.3424211  59.8714495  14.9955583
  22.0236111  59.4141340  14.4102526  34.4828725  25.4958630  20.8053041
  34.5059395  25.4631209  21.7616653  34.1342783  26.3642406  20.6037211
  29.3207145   4.1968745  49.1688681  29.7648573   4.1544044  48.3220100
  29.0063643   3.3053887  49.3194294 111.7906189  97.2492504  42.9993820
 111.4781666  96.4893341  42.5083256 111.0861492  97.4404812  43.6185598
  82.2669411  48.1326008  42.7114868  82.9658794  48.5367727  42.1973228
  82.4272919  47.1919584  42.6359272 114.0100098  87.9543877  94.5356083
 113.4707260  88.1847572  93.7790775 114.8073292  87.5836372  94.1573906
  35.8516574  16.5845156  25.2758217  36.3251948  17.4067748  25.4018474
  36.5287971  15.9092808  25.3179240  15.0988770  88.6417675  21.6306210
  14.9669862  89.4699764  22.0920396  14.2369366  88.4260368  21.2745953
  38.0312133  27.2423482  29.0745687  37.1798968  26.8363833  29.2379284
  38.2207870  27.0408058  28.1582308  52.8572416  12.1320593  45.7877827
  53.0553675  11.4084589  45.1933241  51.9103909  12.2509372  45.7131672
  86.5406036  96.9548225  35.7929492  87.2812176  97.5417519  35.9453964
  86.9274426  96.0793591  35.7803440  19.1267169  30.2486753   5.1232570
  19.1485429  29.4132018   5.5898827  18.6745024  30.8447266   5.7202977
   1.6112099 107.4479961  27.0249772   0.9968815 107.0458317  27.6390553
   1.1103402 108.1507111  26.6107821  49.7838116  37.2073483  19.0468228
  48.9362717  36.8920851  18.7329471  49.7909546  36.9877958  19.9784768
 106.1378424 109.3577439   6.7638588 105.8745401 108.4375255   6.7739409
 106.2630241 109.5811680   7.6861620   8.9225435  93.9104462  15.1712024
   9.6872324  93.3587456  15.3358340   8.4718692  93.4838676  14.4424021
 115.0761414 107.3283672   2.5429517 114.3467236 106.7132664   2.4667056
 115.7304287 106.8608475   3.0621576   0.7155295  91.1772537  23.6602473
  -0.0466621  91.6127300  23.2785964   1.2060092  90.8488560  22.9067135
  26.0402369 106.0086727   3.2894182  26.7331100 105.9559441   2.6311043
  25.2314544 105.8654404   2.7979022  10.5720699 104.6958542   3.7783781
   9.7674894 104.3451786   3.3964008  11.1935294 103.9690208   3.7368396
  38.7249660   6.4997065   8.9938599  39.2772365   5.7704192   8.7121314
  39.2600083   6.9731516   9.6308935  56.7707014   3.1680262  42.5247478
  55.8782673   3.4371507  42.3071003  57.0468044   2.6310533  41.7820120
  16.8534422  14.9644327  16.1363614  17.4485481  15.5104804  15.6226361
  17.3486221  14.7482669  16.9264889  40.7490301   2.1446350  45.2045774
  40.7261801   1.4051184  44.5972681  40.7658291   1.7413577  46.0725164
  10.4439461  21.5035701  25.8223414   9.7568887  21.0505581  26.3111806
  11.1958206  20.9125423  25.8623910 112.7294636  97.4923992  27.9992580
 111.9648933  96.9184685  27.9517388 113.1034756  97.4665356  27.1185303
 113.2412624  98.3453178   6.1343241 112.4432087  98.0186939   5.7187861
 113.6985874  97.5571156   6.4272791  70.5787420   4.0406695  29.1884756
  70.7267094   4.9810940  29.2881656  69.9717426   3.8175815  29.8941779
  79.4097853  12.7531195  20.3320384  79.0899801  11.8510926  20.3146005
  79.7273874  12.8773892  21.2264180  24.2529726   6.9092607  24.0162182
  23.7095308   6.2704331  23.5549140  24.3846488   7.6140565  23.3820581
 106.7236519  97.5331688  45.9677601 106.8482399  98.4782124  46.0548639
 106.6504669  97.2172165  46.8683481  98.1950951  77.2187424   0.5250181
  98.5336971  76.4668369   1.0110410  98.8640785  77.8947687   0.6330901
  28.2826090  13.7797117   2.0633030  28.5598540  14.6701753   2.2788055
  27.4187255  13.6936510   2.4664560  37.4490070   3.4325796  29.4186902
  37.7113175   3.0384213  28.5867882  36.5020609   3.2988143  29.4590712
  42.7675486  23.2479167  82.5657558  42.8571510  22.2949457  82.5727463
  43.0156469  23.5183048  83.4498215  93.0213165  53.9820480  89.9964428
  92.8492832  54.3894911  90.8453369  92.1646976  53.9441013  89.5709896
  26.8251801  14.2673790  12.6421630  26.3103461  15.0375366  12.4012613
  27.5064564  14.6066892  13.2226491  78.8290834  78.3126259  93.9602757
  78.0021715  78.1940460  93.4929562  79.3858862  78.7892962  93.3446598
  45.7171440   3.6916170  53.6052179  45.1941109   4.2579782  53.0378532
  45.2563524   3.7017003  54.4441509  45.7005671   1.9432725  15.3074539
  45.6408897   1.0719098  15.6991076  44.7936431   2.1827973  15.1168013
 110.6330490 102.4632549  51.3454294 110.8135796 103.0378056  52.0894337
 110.0858116 102.9902172  50.7631302  93.8316154  78.4040689  24.2093349
  93.4970570  78.9256573  24.9388838  93.0536747  78.1796551  23.6987710
  59.3282127   6.8886292  27.0181322  59.4962740   6.1154675  26.4794207
  59.5518637   7.6278090  26.4525986  41.6910934   8.5358953  23.9532995
  42.2166634   8.4970921  23.1542349  41.8488169   7.6961195  24.3847299
  46.6612196  62.6772165  92.9503250  47.4736118  63.1514549  93.1273746
  46.7218161  62.4349689  92.0262718  85.0483418  95.5415821  29.0860748
  85.5058479  96.2868023  28.6967635  84.1803455  95.8808899  29.3044400
  86.1294937  71.5764761  92.0449448  85.9380245  72.0929384  91.2621117
  85.5283928  71.9152975  92.7083588  20.6517434  31.1847448  26.5123034
  20.8341026  32.1227193  26.4558935  20.9166336  30.8375978  25.6605101
   0.7271805 105.1707554   2.7776980   0.0884592 104.4578266   2.7797446
   1.2005226 105.0658894   1.9523607  49.0144491  28.7029052  84.0678310
  48.3996725  29.0719342  83.4337139  49.7111034  28.3227086  83.5327053
  10.9777284  14.6132851  27.8596973  11.2522459  14.7411549  28.7677288
  11.6005635  15.1279497  27.3464465  31.0184479  93.2841396  21.6664648
  31.6099286  94.0315247  21.7548108  31.2242842  92.7258587  22.4162555
 108.7442303  96.4092064  53.7382603 108.1024647  96.5451813  53.0412149
 109.5492458  96.8038940  53.4029913  11.9522285 104.8390484  39.2347813
  11.7240310 105.6596088  39.6716285  12.3476911 105.1105976  38.4064698
  42.4704981  27.7890706  41.2430429  42.4567032  27.0014095  40.6993246
  42.5694227  27.4613500  42.1369362  22.9553056  80.5496502  18.6376441
  22.8245568  81.0467529  17.8301620  23.2468343  81.2011528  19.2754400
  50.3608274  91.6303158  93.7818623  50.3883791  90.7063580  94.0304279
  51.2560129  91.9413567  93.9164925   2.4540015 101.9930077   7.4268758
   3.2562670 102.4429607   7.1620274   1.7480290 102.5649548   7.1256995
  13.2753074  24.7410774  40.9739399  13.0032313  23.9895701  41.5006685
  12.9899573  25.5029464  41.4782858 115.6920052 109.3095112  41.2078476
 115.6159973 109.8269367  42.0095491 116.6017437 109.4250870  40.9335327
  22.4234891   3.3993080  29.2184377  21.8738174   3.4097409  30.0020075
  21.8900800   3.8230619  28.5460258  10.0587881  22.7857924  44.0498209
  10.9215760  23.0683875  44.3530846   9.7356331  22.2139478  44.7460938
   5.4288536  98.3763790  23.7708521   6.0206103  98.1983376  23.0398536
   5.1315165  99.2744637  23.6250401  91.6716716  -0.3074085  50.3261995
  92.2764871   0.2331246  49.8180151  91.4349458   0.2383507  51.0760927
 107.3460007  83.2935619  38.0828214 107.5853252  82.6883602  38.7847376
 107.4922466  84.1628647  38.4558606  16.3344300   8.3282864  23.8259816
  15.4237485   8.0587524  23.9453244  16.7616141   7.5641429  23.4389043
  18.4239066  29.4627976  26.6276145  18.5447276  28.5220814  26.4984345
  19.3127513  29.8170495  26.6539502  43.9230633  99.9260998   6.3287205
  44.3958664  99.1182804   6.5290457  44.4727612 100.6212997   6.6903180
  29.4864607  10.9453952  20.4244208  29.6298337  11.7903948  20.8506250
  30.2624655  10.4306567  20.6459951 107.6012707 108.9572239  26.7576456
 108.4237862 108.8555431  27.2365522 107.0335579 108.2709217  27.1082497
  32.4630904   5.9205508  41.8027401  31.8162489   6.0280955  42.5000668
  33.1786561   5.4345971  42.2126770  26.1035466  51.5705204  12.2253776
  26.0261083  52.1575594  12.9774559  27.0412302  51.5484142  12.0343459
  21.5791845   3.1648213   6.4771342  21.7524529   3.3008710   7.4086386
  22.4198055   3.3306757   6.0504282  25.9889030 101.1393070   4.3624842
  26.2872219 102.0441151   4.4549403  26.6197610 100.6263256   4.8675582
   0.4816655  99.2106056  33.8284755   0.4845169  98.8597393  32.9379034
  -0.2935623  99.7710419  33.8626289  98.3318233  99.8303986  10.9428263
  99.0601635 100.3083229  11.3394916  97.5522041 100.1820946  11.3726282
   2.0779474   1.6695446  84.1932583   2.0701969   2.5945467  84.4393158
   1.3494650   1.2857525  84.6813679  46.9515657 109.0152740  38.6720872
  46.0925865 108.7624550  38.3337545  47.5752449 108.6030674  38.0743074
  35.0044537   7.6130670  31.1547160  34.0567589   7.6899332  31.0442734
  35.1225042   6.8062580  31.6560674  19.3912494 104.5251942  19.5741248
  19.2360556 103.6270142  19.2818666  20.2477241 104.7506237  19.2109919
  18.3816385   3.0530635  27.4321294  17.7960122   2.5276440  27.9772973
  19.1210937   2.4738939  27.2477388  18.5298693  72.6741457  24.7225690
  18.8886869  72.4722672  25.5867028  17.8211188  72.0418406  24.6038413
 112.8133583 108.5748196   7.3482227 112.1496010 109.2096996   7.0788068
 113.2264900 108.2984924   6.5301788  65.8381081   8.8735032  15.0459564
  65.7103634   8.6632895  14.1209030  66.6297293   9.4113708  15.0622451
  58.5742235   8.4740150  33.0221891  58.7566376   8.1103492  33.8886213
  58.0297279   7.8129214  32.5947428  49.8493004  47.4752903  88.8977146
  50.0698853  47.3009729  89.8126984  49.1487217  48.1261587  88.9400482
  75.8938694  57.0331478  89.5790863  76.3238192  56.8771029  88.7382412
  76.1089754  57.9409456  89.7932529  39.1425180  13.0658436  43.1786633
  38.7693739  13.8105893  43.6502028  39.5434427  13.4519398  42.3999357
  17.3872876  26.9972491  29.3283772  18.3341324  26.9939590  29.4687581
  17.1990740  27.8707623  28.9851880  50.2749348  28.8568139  43.4198999
  49.5404148  29.1562247  42.8841114  50.9783649  28.6927915  42.7917957
  68.7771559  16.0183930  13.9728510  68.9461470  16.4926469  13.1587517
  69.1856194  16.5552151  14.6519780  69.2205572  77.2961426  62.1083975
  69.6869659  77.4811840  62.9235363  69.8063946  76.7144442  61.6239834
  18.7038863  16.2926376  14.5366716  19.3523550  16.1656988  15.2292085
  18.9899969  17.0854783  14.0830457  34.3238330  22.1393466  31.3231850
  33.6349535  21.5455866  31.0246420  35.1389122  21.6727734  31.1382985
   7.9642749   5.4481912   7.1289837   7.4156308   5.2832180   7.8957987
   8.6319304   6.0598850   7.4393028  36.8027163  10.2824867  23.0555916
  37.5565815   9.7369421  23.2798696  36.3208675  10.3747797  23.8775015
  32.9554844   2.7319190  17.3187757  33.3610725   2.2125022  16.6245592
  33.4780383   2.5404626  18.0975652  28.4191656  20.6844068  19.0150285
  28.5064697  20.5159736  19.9532390  28.2101679  21.6167378  18.9574957
  27.5676942  99.9175835  22.7024007  28.4106231 100.1733017  23.0769801
  27.2497392 100.7080746  22.2662044  58.6439705  17.1391857  71.0567570
  57.8413582  17.3419702  70.5762196  58.4821987  16.2772417  71.4403105
  95.8788013 100.1879597  30.5061364  95.8927059  99.7943687  29.6337152
  96.7658901 100.0582981  30.8415604  50.6135941  40.8397961  28.3000827
  51.0344172  41.0667849  29.1293073  50.6070185  41.6577911  27.8030252
  44.5081234   3.4709573  32.3050380  44.4882011   2.8736708  33.0527568
  43.6935234   3.2933199  31.8348217  70.5150747  46.0302544  12.5371206
  70.7497549  45.1951313  12.9417515  71.3382864  46.5170908  12.4978685
  26.9655061  90.4255486  38.5727358  27.8736663  90.5259991  38.8580227
  26.9966006  89.7311687  37.9146338   0.1991594  85.2802086   2.8522283
  -0.1208345  85.6031227   2.0098725   0.3288762  86.0696602   3.3777499
  58.9377546 105.0613594  91.8598175  59.1052198 104.2758369  92.3805428
  58.1901979 104.8287773  91.3090992  47.4642467  10.6432319  23.2532215
  47.8406096  10.1437867  23.9778829  48.0319023  10.4481852  22.5075984
  88.6125469  99.6115875  16.3988996  87.8810692  99.7305107  15.7930732
  88.3268547  98.9105320  16.9846642  17.2521603  18.2159352   2.4825978
  16.4185643  18.2408106   2.9524159  17.3289418  17.3114979   2.1787407
 114.5733261  91.2638569  17.1783841 115.2942085  91.6848373  17.6467252
 114.4524193  90.4270649  17.6271474 110.2999115 100.8099461   1.3946174
 109.4147778 100.6362915   1.7149489 110.6750488  99.9421120   1.2450614
  74.7029638  20.1898503  90.5683041  75.2396345  19.5137715  90.1546192
  73.8783693  20.1716065  90.0825691  13.6909294  19.7303867  37.9153848
  14.0198314  20.6289458  37.9408336  12.7522910  19.8140609  38.0832744
  83.0755615  86.1047840  19.5096397  82.9715061  86.7199993  18.7837517
  82.3004913  85.5451012  19.4622314  61.1352015  17.0253360  11.6473734
  60.6123209  17.2751403  12.4092317  60.9168100  17.6783407  10.9824514
   5.8429468  98.6466122  13.8404381   5.3904891  98.0308437  14.4169259
   6.6156870  98.1688881  13.5389638  69.3937349  65.6653166  94.4126606
  68.8826847  65.0445223  94.9319649  68.7407923  66.2489653  94.0263271
  66.5371180  75.5979109  94.3292713  65.6833076  76.0259390  94.3927956
  67.0964098  76.0885668  94.9315071  14.7362626 102.5568008   2.5469533
  14.7411621 101.9564629   3.2924768  14.6043086 103.4212017   2.9363614
  47.0659256   8.5557371  42.8411579  46.7124653   8.0748707  43.5895348
  47.7487755   7.9841727  42.4900723  63.3798981   5.4175025  33.9617944
  64.0087938   5.5905116  33.2612300  63.5707188   4.5214295  34.2390537
  89.4753265  90.4046917   7.6853848  89.8006153  91.0562801   8.3065474
  89.3770790  90.8854008   6.8634957 109.3860912  13.7674487  65.4313278
 110.0230598  13.2906711  65.9634781 109.8409367  13.9346182  64.6058512
  48.4639883   7.9748273   6.1887974  47.9000616   8.2503253   6.9115150
  49.3306637   7.8800988   6.5839392 110.6936932  72.7124500  38.4118986
 110.2069950  71.8882847  38.4012794 111.4521313  72.5499678  37.8510022
 105.5790901  46.0002089  89.4093227 105.4077148  46.9192266  89.6149158
 104.7274971  45.6506205  89.1470146  53.8355207  78.0637884  80.1072693
  53.9829111  77.8170252  79.1942406  54.4652939  77.5393200  80.6017876
  13.1307709  12.3276150  27.8463960  12.8273535  11.5180826  28.2572818
  12.4107444  12.9453313  27.9737568  33.4524083  22.0695519  14.5182741
  33.7838793  21.9622707  15.4098177  33.8859630  21.3790274  14.0168393
 110.5943203  94.5197868  12.8066432 110.9796429  95.1039219  13.4597504
 109.8544216  95.0124168  12.4515402  90.5685616  24.5307064  85.6664944
  89.8650169  24.1302490  86.1772728  90.1403332  24.8348832  84.8662853
  37.6852655  90.9488297  23.1141186  38.4075928  91.2195301  23.6808562
  38.1047678  90.7174587  22.2854352   8.0629969  90.1154709  33.0914712
   7.2243834  90.0679302  33.5504913   8.6675590  89.6215916  33.6453819
  58.3359766  67.0747232  13.7825620  58.9521074  67.6715422  13.3578062
  58.7371206  66.2105751  13.6899924  23.0625129  32.6355791   4.2423907
  22.1485090  32.4360371   4.0398738  23.0823565  32.7267694   5.1950300
  61.3095760  72.8131342  88.5574722  60.3968239  72.5280523  88.5145760
  61.7754555  72.2134113  87.9747868  28.6429214 108.7099075  30.5749202
  28.8584518 109.5628166  30.9521890  28.3406973 108.9094162  29.6888661
  93.7793255  84.9308205  82.5789547  94.5504665  84.4457340  82.2852612
  93.4445000  84.4235039  83.3183765  47.7437782   9.5458925   0.9145048
  48.4630442   9.3310964   0.3205775  48.0514622   9.2627293   1.7755389
  32.3064899  99.5190048  22.1962261  32.9646182  99.0492344  21.6839552
  31.5123725  99.4753265  21.6635871  79.9265766  68.4398508  87.2785854
  79.0503311  68.6684227  86.9684696  79.8325682  68.3648539  88.2282066
  49.5075560  21.3843083  20.2576137  49.4954395  20.9539223  21.1125135
  48.8154554  20.9485674  19.7602654  90.3602982  66.1973190  88.8318253
  89.6516037  66.0608959  89.4606113  91.0582542  66.6071939  89.3427849
  45.9150457  28.8700223  15.9005952  46.0785341  29.0860772  14.9825406
  45.1445007  29.3873382  16.1348486   8.0527288  96.8419933  19.4441533
   7.2341800  97.2017860  19.1024590   8.1535655  96.0045242  18.9917064
 114.2339706  84.5201683  70.5392647 115.1798344  84.5231628  70.6861210
 114.0241528  85.4257774  70.3110600  26.5963221  97.2093582  16.1894631
  26.6466975  98.1282806  16.4526844  27.4973631  96.9738007  15.9683979
  30.5572176   3.5157359   4.4216755  31.2612295   3.9856037   4.8686910
  30.2091861   4.1477230   3.7926301  63.1909752  38.8560486  10.8655965
  62.7477121  39.1206717  10.0595403  63.4405661  37.9445601  10.7135296
  16.4065027   3.3381429  49.2639112  17.0041585   2.6085675  49.4274950
  15.9803092   3.1175539  48.4357023   6.1869133   6.2396854  11.8914485
   5.8459651   7.1217114  11.7430687   6.3027853   5.8768249  11.0133040
 113.2744217  55.6312370  94.7765732 113.9602375  55.1799011  94.2844677
 112.5262547  55.0349236  94.7466946  40.9980917   5.9596199  52.4152946
  40.7896423   5.8394086  51.4888334  40.6557751   6.8280631  52.6270866
  29.4620728  31.5075016  31.7119670  29.8252296  31.1633825  32.5280118
  28.5616541  31.7460728  31.9323325  22.6730466  69.5377254  23.5669947
  22.9128313  70.4020166  23.2327223  22.4984360  69.0175629  22.7826643
  48.8372517   7.8894693  19.5299184  48.9017868   7.2735757  20.2598119
  49.3674755   7.4959826  18.8369060  74.9490547  86.1430359  89.3852520
  75.4631233  86.2233448  90.1886940  74.1883373  86.7055893  89.5304012
  64.3270445  39.2010856  19.5207977  63.5283279  38.7683988  19.2190170
  64.9844503  38.9767241  18.8622320   4.2891157   4.4979739  82.2345257
   5.1977158   4.5834041  81.9457722   4.3365592   4.5382744  83.1897068
  37.4230623  24.9515676  33.9089608  38.1020665  24.3668461  34.2455363
  36.8320632  25.0840163  34.6501827 114.7868824   0.2359573  33.1632471
 113.9490509  -0.1624418  33.3989453 114.5606136   1.1243294  32.8878713
  76.4643049  88.2864094  81.1404419  75.7069445  87.7143860  81.0161972
  76.9687986  88.1948090  80.3321552  20.3484106  79.6232080   8.7254977
  19.8021460  79.5573139   7.9422450  19.9632597  78.9979172   9.3394214
  60.8748198  30.9012318  26.3386536  60.4817104  31.2280226  27.1479154
  60.4805660  30.0381899  26.2123513  26.3486314  28.9653587  24.1922545
  25.6054401  28.5103440  23.7961984  26.5744567  28.4351349  24.9565172
  50.7004642  14.7697902  20.3921485  50.0182438  14.1005671  20.4464316
  51.3731194  14.4765031  21.0067677  51.1152077  41.1273098  11.4107049
  51.2009621  40.3171158  10.9082413  50.4213762  40.9440041  12.0441318
  54.3771887  33.3661985   5.2642673  53.9568329  33.0921245   6.0793841
  54.3793011  32.5791693   4.7194648  70.7868862   8.1796616  15.8634555
  71.6433239   8.3909279  15.4918206  70.6877756   8.7865806  16.5969801
  61.5032148  24.1170883  13.6171079  61.8137217  24.4149923  12.7620816
  60.5629921  24.2962503  13.6062169  70.0808907   3.4314001  12.1097827
  70.3765202   4.2907855  11.8092930  69.2433882   3.2975665  11.6660380
  33.3359957   2.9343668  10.7656717  33.1940317   2.5381428  11.6253722
  33.5660243   2.1988133  10.1979744  97.8397083  61.4097548  74.9311066
  98.4760284  61.8254471  74.3492746  97.9754162  61.8353987  75.7776546
  15.9742558  78.8375235   6.5561527  15.0219405  78.8656998   6.4637816
  16.1479366  78.0038404   6.9932294  13.7187088   4.6318972  22.4741960
  14.4412649   4.1298777  22.8511858  13.8770711   4.6078348  21.5304947
  17.3763371 102.3467922   9.8174977  17.7424204 102.3196125  10.7015097
  16.6159022 102.9234982   9.8907936  21.0255694  10.4813480  39.3084455
  20.8828282  11.4187205  39.4395590  20.9015799  10.0965321  40.1760721
  57.4063253  76.1665630  64.9144650  57.7053595  75.5722904  65.6026888
  56.4972305  76.3599443  65.1433325  22.5091100 103.8322163   6.5065378
  21.6603374 103.6220455   6.1171198  22.3364687 103.8778210   7.4469346
  33.0571628   3.2699546   7.3602903  33.6641335   3.8691074   7.7948409
  32.5377989   3.8311037   6.7844379  19.6480763  33.7082148  41.0837221
  19.4229901  32.8403425  40.7485056  18.8118219  34.1717362  41.1291027
  39.5257592  29.3341684  28.7987280  38.7976861  28.7188935  28.7116766
  40.1650143  28.8734484  29.3421602  37.1574831  23.0377698  27.8154230
  36.8414283  23.4866524  27.0313048  37.8599453  23.5980320  28.1453943
  39.5910263  24.0886831  25.5760455  39.8543310  23.9435053  26.4847946
  40.3942728  24.3657374  25.1352882  78.0374718   7.1775377  22.8965974
  78.0767632   7.4845684  21.9908285  78.8574028   6.7002058  23.0234766
  27.2694254 103.8143921  32.5394702  26.5274715 104.3990803  32.3849487
  28.0372858 104.3334961  32.3004127  11.3805544   6.1381406  47.4025631
  10.9459198   5.4188776  46.9443226  11.1950421   6.9098586  46.8675232
  26.8005276  24.3931079  31.9216466  27.6536655  24.3499780  31.4897585
  26.2593651  23.7625813  31.4464521  14.5946109  20.8676004  40.8135891
  13.8929117  20.2391410  40.6436205  14.5645320  21.4675403  40.0683403
  20.7549930  26.4375806  42.6147461  20.3422284  26.9390059  43.3179045
  20.6230617  26.9709206  41.8309259 105.5833626  73.1693459  87.3904991
 106.1308956  72.5655842  86.8885899 104.7003174  72.8066874  87.3202038
 100.7311249  42.5230408  73.4430122 101.0831070  41.8968058  74.0755987
  99.8890400  42.1510172  73.1808615  21.5923882  95.3881645   3.0278513
  22.4178958  94.9870205   2.7560914  20.9248757  94.7418118   2.7978757
  86.6289043  71.6463947  73.9490700  86.9885159  71.5664864  73.0656004
  86.1094093  72.4499798  73.9244270  20.4413819  17.3621035  27.6743412
  20.4621100  17.3950696  26.7179346  20.0390100  16.5173686  27.8762150
  62.2438240  21.5881395  12.3175418  62.4652338  20.8604097  11.7364895
  62.3484182  22.3690319  11.7739439  18.5980582  48.6812973  29.9568629
  17.6848376  48.6908674  30.2435112  18.6659634  47.9062271  29.3992877
  96.5951633 103.9498138  17.3603928  96.0058308 104.7038746  17.3426855
  96.1935997 103.3466148  17.9857945  26.5191889  39.7143006   5.8937865
  25.9423423  38.9511490   5.9266639  26.5257096  39.9700475   4.9714079
  86.3435841  97.8807831  27.9536605  86.6949177  98.1580353  28.7997866
  87.1138477  97.6222992  27.4475765 100.1942348  54.8791409  81.4595127
 100.5800247  55.6912279  81.7880154 100.5469704  54.7872925  80.5744267
  19.9178886  89.1114807   8.4252292  20.1069164  88.2284069   8.1079239
  20.7124043  89.6098900   8.2339942  89.3940926  36.6048098  92.9912853
  89.6860981  37.2452307  93.6399937  90.1382160  36.0115433  92.8886032
  99.2017078  57.6850128  83.4893703  98.5761642  57.9986382  84.1424847
  99.4987965  56.8405914  83.8283730  82.5168896  95.8454227  85.1039600
  82.4108791  96.6908073  85.5402279  82.2341442  96.0035992  84.2032528
  55.3033686  15.5796313   2.6475734  54.6223068  15.1863086   3.1931779
  55.6555128  16.2923419   3.1807408   0.7735790  72.2231245  58.8028717
   0.3899547  71.7241907  58.0816698   0.0305648  72.4397993  59.3660879
  52.1989970   2.7084374   0.5677093  51.9964175   3.6132645   0.3300441
  53.1121115   2.7346110   0.8536590 111.5457439  12.5861549  22.2008991
 111.3856411  11.8287468  22.7638674 110.6873608  12.7974212  21.8337822
  68.9349222  26.7092919  10.3201067  69.7759104  26.2528753  10.2944362
  68.3784151  26.1553884  10.8675730   7.2177035  92.5671101   2.4083035
   7.0929247  92.1339703   1.5638766   7.4028134  91.8532944   3.0185851
  95.0640297  84.9320507  61.9205666  94.1600704  84.8352909  62.2201109
  95.5710983  85.0505543  62.7237272  34.0996790  32.9220343   3.4727070
  33.9556813  32.1737719   2.8933960  33.2460189  33.3518100   3.5255286
  61.0690594  81.7864037  83.2501507  61.5364265  81.2542915  83.8940907
  60.1548815  81.5151787  83.3335018  33.3032727  25.3384495   7.7517813
  32.9633355  25.6287241   6.9053674  32.7320266  25.7571697   8.3956635
  15.1241434  84.2886257   5.4266328  14.9658191  83.3674240   5.2203178
  14.4353592  84.5159912   6.0512221 106.5474701 104.4831944  83.8078880
 105.8426094 103.8616753  83.6259270 107.3058128 103.9339066  84.0064812
  41.6440868  35.2115655   7.3069465  40.8168793  35.3193927   6.8375522
  41.3852596  35.0468063   8.2136416 111.2158680  81.9853973  82.6570797
 111.8694592  82.0512104  83.3532906 111.2746429  82.8208637  82.1936321
  56.4429140  24.8131132  11.8456495  57.3446131  24.8522711  11.5268481
  56.1864805  25.7291722  11.9520044 110.5222797  95.0875568  25.1566958
 110.8263683  95.2596951  24.2655587 111.2985706  94.7691441  25.6173635
  59.6516085  27.5595403   7.5597966  60.3708839  27.1510053   8.0414343
  60.0605917  28.2856607   7.0889324  15.4105139   2.4062309  11.2889242
  15.1138151   2.5536659  12.1869576  14.8100114   2.9218102  10.7505870
  73.3584976  79.8750734  67.3222494  74.2965269  79.8064756  67.1443987
  73.3040380  80.3971863  68.1226683  37.1623445  84.9635506  15.6462014
  38.0289102  84.6367836  15.8881128  36.5812707  84.2122650  15.7652044
  35.2523518 107.8423691  19.7163069  34.3212748 107.9276276  19.9213886
  35.5715203 107.1757698  20.3245902  45.8794594   2.8448504   5.1930243
  46.3424301   2.8742275   4.3557495  45.7408333   1.9121261   5.3574622
  48.7692118   3.3102989   9.2289531  48.1282043   3.8807261   8.8047439
  48.7623167   2.5100732   8.7037641  52.2125149  40.2536201  32.4971485
  52.4600840  40.2086353  33.4206843  51.3128901  40.5804682  32.5059867
   2.7696207   8.3174777  12.1929252   3.2810003   8.9035231  12.7508438
   2.2825530   7.7672982  12.8063583  23.5368299 103.3853054  26.8630004
  24.1044140 104.0145111  26.4178324  22.7853203 103.9031029  27.1517038
  54.2687273  27.9706264   5.9400338  54.2364264  27.1240258   6.3855171
  54.2224503  27.7532768   5.0089872  38.2665253  20.2187705  21.4320254
  38.6260867  19.7290504  20.6923485  38.0107665  19.5460093  22.0630646
   7.7633429  40.3280973  44.5317841   8.3405083  40.2679729  43.7705374
   7.3300940  41.1764097  44.4374609  78.5710621  90.2686024  81.5252018
  78.5180902  90.4403114  80.5850220  77.8984642  89.6068192  81.6860771
  57.7312088  33.9034271  13.4820306  57.3961592  34.2369246  12.6497114
  57.0372391  34.0939474  14.1131735 110.5551147  56.0246849  26.6212845
 110.5631161  56.0370159  25.6641960 109.7576618  56.4971161  26.8602467
 105.5083561  75.4323292  50.6845188 106.3860989  75.0889015  50.8514500
 104.9640274  75.0407219  51.3675880  19.4876957  47.7811766   8.6310476
  18.8967133  48.5092878   8.4391528  18.9124882  47.0802832   8.9378387
  77.0546532   2.9600191   3.3235916  77.0561266   2.1729317   3.8683143
  76.2326336   2.9119778   2.8355241  47.2383022  26.7802739  13.2093644
  47.9779577  27.3718691  13.0709779  46.6715908  26.9239998  12.4514651
  89.2570877  92.4959755  68.2837629  89.9947834  92.3700237  67.6869678
  89.4873047  91.9856834  69.0601826 107.0258236  84.1444969   2.0698175
 106.8172359  83.4497833   1.4452402 106.2160683  84.6492195   2.1459156
   9.4540375  85.3924465  75.2395678   9.4527429  84.7372150  74.5417833
   8.7921423  85.0843811  75.8586216   9.3294549  82.7082157  88.1853962
   8.5929352  82.7921867  87.5798225   9.5888090  81.7890644  88.1210995
 104.9550056 104.8287487  60.4849243 105.2198315 105.4043865  59.7674656
 104.5875263 105.4192352  61.1425829   8.0745113  97.4003601  55.4559231
   7.2263122  97.0106506  55.2439785   8.0451024  98.2698154  55.0566483
  17.7579570  30.5505657  91.4420509  17.0061576  30.5699825  92.0342159
  18.0618882  29.6433449  91.4705086  38.3321023  18.6762547  74.6114063
  37.9186344  19.3786335  74.1094685  39.2614889  18.9050412  74.6227312
  73.7203979  38.9266133  84.6613503  74.4487095  39.3407631  85.1242447
  74.1296864  38.2360721  84.1399384  93.7957382  71.2975931  76.9653225
  94.1905785  71.2383938  76.0953665  93.8263226  70.4026985  77.3036337
  57.1843815  10.9053493  76.7925406  58.0381536  10.6228006  77.1203709
  56.7261744  10.0910521  76.5847015   1.2906912  87.4636459  25.4219675
   0.6115917  86.9966125  25.9087229   1.5339658  88.1938744  25.9910202
  76.1564445  36.1836910   9.3569392  76.6281509  36.9422293   9.0129286
  76.7794085  35.4606867   9.2833620 110.9825611  48.0977964   1.3936582
 110.3595066  48.4271574   2.0413893 110.4586792  47.5383282   0.8202700
  63.7734509   6.1664581  64.2294836  64.6367598   6.2669611  64.6305180
  63.9374113   6.2311071  63.2886505  35.7842231  93.2218456  91.9634438
  35.9969616  92.4167061  92.4353790  35.4221606  92.9221535  91.1295795
  88.9241695  65.3801537   8.7119538  89.7118950  64.9577236   9.0544033
  88.2028770  64.9507046   9.1718942  67.6908588  42.2234201  34.2503595
  68.2321215  42.4896097  33.5071182  67.2565556  43.0289221  34.5310307
  13.8403130  86.9877148  80.4878139  14.1923952  86.2172413  80.9335041
  14.4782007  87.1790504  79.8002672  42.7709675  43.2861090  76.4315987
  43.0690861  43.7994432  75.6806993  43.1337595  43.7407923  77.1917820
   5.8731043  65.6160164  36.2191892   6.2137514  64.7270298  36.3186860
   6.6510546  66.1567116  36.0825443   1.1471856  19.3452311  13.3823347
   0.1916715  19.3104970  13.4272599   1.3720326  18.7923741  12.6339865
  92.6437187  41.3930035   7.0832038  92.5782585  41.8795633   6.2614942
  91.8804550  40.8153772   7.0809799  10.6329989 101.9266033   0.9523419
   9.8000050 101.4552307   0.9397432  11.0429001 101.6665554   1.7773202
  28.4349418   2.9865846  83.0124187  29.1653156   2.4949227  82.6368427
  28.7690687   3.3101696  83.8490105  69.2978001  85.4619122  10.4247308
  69.5766068  84.7682571  11.0225153  68.6912251  85.0301743   9.8231477
  82.9641342  15.8190000  87.8381538  82.9000187  15.6282592  86.9023418
  83.2905197  16.7179716  87.8775406  46.6162252  20.5520558  70.5276394
  46.2520504  20.6291866  69.6457911  46.9785500  21.4182639  70.7137537
  37.5056005  17.7659273  59.6519279  37.7049828  16.8777800  59.9480295
  38.2687593  18.0228531  59.1344261  50.2849531  40.6413841  91.1662769
  51.1933565  40.5051613  91.4354992  49.9064398  41.1774492  91.8631172
  41.6909170  34.4507289  83.3321095  41.5312481  33.9807773  84.1505718
  40.8195782  34.5859766  82.9596710  75.9572649  45.8190012   1.2010979
  75.0514603  45.8496046   1.5090209  75.9363317  45.2203751   0.4544801
  28.3276486  28.8398790  12.7822435  28.3064818  29.4921136  13.4825110
  28.9692020  29.1792393  12.1581638 109.5350361  66.6437960  39.2192841
 109.5293427  66.8796015  38.2916021 110.3004932  67.0942450  39.5762229
  63.2583714  10.8309674  77.6565027  64.1858196  10.6600261  77.8203726
  63.0261278  11.5145683  78.2849789  79.0413666  55.5631256  10.2143514
  78.5711575  56.0786247   9.5590693  79.5579529  54.9400282   9.7033513
 105.1255894  86.9434452  54.2843008 106.0252190  87.1475792  54.0289021
 105.2038574  86.1644840  54.8350382 103.4858513  20.6275487  67.4262047
 103.6543941  19.8692620  67.9855108 104.2961311  20.7440877  66.9301271
  91.7630386  56.2703896  46.9916582  92.4892330  56.5598106  47.5440168
  91.4337349  57.0737267  46.5886164  20.1613832 105.8648586  84.7518539
  19.2455196 106.0120583  84.9879932  20.5946302 105.6699562  85.5828476
  38.5137439   6.0893387  89.7300911  38.0885386   6.0246056  90.5852222
  38.4176636   5.2169067  89.3481731  51.7110395   1.6692278  91.6198063
  51.1434507   2.4279906  91.7552757  51.3751793   1.2580371  90.8233452
  22.1411753  87.2817612  89.4355583  22.9660916  87.5836658  89.8158073
  21.5084577  87.3506927  90.1504993  57.6792145  61.6701984   6.5497434
  57.2989941  60.9572315   6.0365707  57.8688669  62.3534346   5.9067404
  96.9163704  37.1154928   1.0442980  97.4896431  37.7952671   0.6900355
  97.5140285  36.4768362   1.4330915  14.9437273  60.1494694  15.7099938
  15.1645768  60.8977842  15.1554823  14.1720009  59.7636795  15.2954590
  73.5307598  59.7798014  14.2336142  74.4740486  59.6172428  14.2374957
  73.4297562  60.5921841  13.7375617  87.7582645  17.3693109  10.6575823
  87.6880836  17.5831389   9.7272146  88.1126022  16.4802432  10.6729364
  92.4651337  83.2039547  92.1143341  91.5476513  82.9345512  92.1576023
  92.7867222  82.8281116  91.2948513 106.2969780  79.1683054   3.7315544
 106.0932732  79.9892187   4.1797084 107.2476101  79.0844631   3.8056660
  20.6026459   4.8830196  27.6505518  19.6892369   5.1690030  27.6391959
  20.8314943   4.7756317  26.7273355  72.4293661  60.4436684  23.3790374
  71.8488073  61.0701513  22.9469466  71.8455124  59.7531223  23.6928797
  63.3950138   1.0432525  41.3293505  62.5157356   0.8029787  41.0371780
  63.2547951   1.7644137  41.9429445  71.3375092  57.1959686   0.5001494
  70.5488539  57.0181465   1.0126221  71.6001892  56.3405895   0.1602215
  90.1895142  24.4812107  13.1756520  91.1228657  24.5870852  13.3597302
  89.9366188  25.2969098  12.7433205  80.8962536  79.9203634   1.0805795
  80.8940506  80.5482769   0.3581180  80.0425053  80.0330639   1.4984755
  72.7137232  13.1942034  76.6611528  72.0362425  12.5337029  76.5162706
  72.2310638  13.9803243  76.9166660   8.2800609  85.8159733  69.5797777
   8.9962286  85.5839062  70.1709461   8.5525221  86.6455173  69.1875410
  16.1259031  99.1654110  78.1041908  15.7591677  98.2861900  78.1975222
  16.9678879  99.0288544  77.6698542  91.8811035  83.0280781   8.6049509
  91.5861416  83.6449242   9.2748260  91.5620995  82.1772003   8.9057595
   4.0420493  37.9277039  15.3252411   3.3918282  37.5627351  14.7250390
   3.7941027  38.8477302  15.4163778  51.8482494  31.5256548  72.7788830
  52.7839327  31.3654065  72.9015398  51.5758562  31.9772530  73.5776901
  87.2566891  69.7069931  29.7483444  88.0977154  70.0985575  29.5125937
  86.6093922  70.3739166  29.5193243 104.5723915  71.4330292  13.2084560
 103.9420128  71.8849659  12.6475513 105.2284908  72.0983982  13.4159362
 103.3671951  85.5036640  71.6082525 103.5541344  86.4391327  71.6868734
 103.9996243  85.1863956  70.9635782  36.4058113   6.7123729  66.6990805
  37.1177864   7.1665555  66.2484741  35.6107473   7.1449089  66.3876009
  80.7560062  10.8817601  84.1285896  80.9936523  10.3475010  83.3707523
  79.8702335  10.5973482  84.3538475  92.9254818 101.4731693  20.7425904
  92.2650433 100.8290005  20.4874492  93.7281418 100.9630966  20.8512306
 111.4254475  75.2037334  16.9974887 111.7319775  76.1025572  17.1174693
 110.9529686  75.0019836  17.8051353  87.0542145  14.8376358  86.8042183
  86.4419365  15.3539789  86.2800598  87.9188538  15.1575470  86.5467453
   7.2544748 102.5036430  66.5408278   7.9635966 102.9039860  67.0439196
   7.6053274 101.6570950  66.2642431   5.8286834  75.3011847  90.2928257
   6.4229012  75.0779486  89.5763779   5.1920134  74.5865726  90.3074360
  55.3553200  60.1454926   9.7456193  56.0891294  60.0292301   9.1420978
  55.7567692  60.1405954  10.6145525   0.6983314  70.4231596  14.0381944
   0.6518900  69.5960617  13.5586298  -0.1182730  70.4573250  14.5364130
  75.8728695  48.4674072   3.8935170  76.1400223  49.2509604   4.3740472
  74.9170208  48.4695530   3.9443254  94.8514080  74.0167427  51.8739176
  94.5944500  74.9375820  51.8264103  94.3541718  73.5929298  51.1743736
  62.5343323  18.8989246  78.3753777  62.7089310  19.8374176  78.4459352
  63.3921909  18.4872246  78.4793615   2.8254524 107.6552773  78.2080936
   3.6974680 108.0499363  78.1999016   2.8979996 106.9268703  78.8248444
   8.5780007  84.7266293   5.5805433   7.7405792  84.9635696   5.1820236
   8.7390959  85.4145718   6.2263179  49.8895979   2.6635611  70.6776905
  50.6194496   2.1793242  70.2916050  50.2590752   3.5188553  70.8972216
  25.8267760  93.5731411  88.1183815  26.2197113  92.7238369  88.3196545
  26.5606737  94.1130924  87.8250027  94.5740700  49.3380022  24.8229027
  94.8238754  48.9214802  25.6477308  94.6205235  48.6344051  24.1755819
  40.6794977  12.3712838  68.1449986  41.0372639  12.8090227  68.9174080
  41.4164686  12.3191118  67.5364065  60.4262733  30.0180292  73.2871866
  59.9645281  30.2283883  74.0988350  60.8045387  30.8505225  73.0041599
   6.3750094  97.1878433  84.5666504   7.2389436  96.8810844  84.2914295
   5.9183073  96.3954926  84.8491955  36.9004202  77.2811747  74.6853542
  36.8012595  76.9607878  75.5818748  37.2623444  76.5372896  74.2038202
  71.3879728  25.2193141  10.4858279  71.5648937  24.3643117  10.0935221
  72.0234442  25.8066821  10.0766671  48.0468750 106.1435318  74.8737669
  47.2761011 106.7084694  74.9284220  48.3941793 106.2965775  73.9950275
  33.6262345  33.7111592  76.2797976  34.0128183  33.1327319  76.9372225
  33.6471057  33.2011366  75.4700613  78.5643768  72.8265572  17.4137414
  77.6083899  72.7804661  17.4277186  78.7677574  73.3464575  16.6361976
  78.2848549  16.8407428  90.2033710  79.0388298  16.2888062  90.4110241
  77.7998447  16.3452804  89.5434284  11.9548178  91.1666489  71.5251875
  11.6223240  91.9928169  71.1742973  11.6752326  91.1654472  72.4406481
  44.4200897 105.5127525  74.9570751  44.9287271 106.2188625  74.5584202
  44.4828558 104.7901917  74.3324232  72.0163584  38.1299019   8.5781962
  71.0660601  38.0153966   8.5854143  72.3650789  37.2444797   8.6813879
  26.0655308 100.0331974  94.2230129  25.7215190 100.8856010  94.4900322
  26.5654945 100.2152634  93.4273243   9.4444656  14.8180127  88.7111568
   9.9333215  14.1251564  88.2670879   8.9504373  15.2478135  88.0129910
  74.8226261  66.8812466   8.5775709  74.1165590  67.5254202   8.6299527
  74.6914530  66.4502478   7.7330202  47.2889519  17.0591450  47.5108290
  47.6237774  16.9789398  48.4039640  47.7348089  17.8282905  47.1560621
  55.4195833  38.6162305  82.6550865  54.8648548  39.1750145  83.1993961
  56.2165213  39.1288829  82.5197983  36.6998959  42.2821903  15.0820029
  37.0976686  41.4434433  14.8485363  36.2443686  42.5606394  14.2875266
  25.7608485  90.7598305  91.3409996  25.9759378  89.8939800  91.6878128
  24.8494124  90.9008121  91.5971947   0.4679833  88.3692455  80.2826977
   0.3214608  89.1477871  80.8199501  -0.3891219  88.1753349  79.9032259
  21.1398196  77.7126074  11.2915051  21.9669366  78.1892347  11.3617539
  21.3144851  77.0228720  10.6512046  14.7833693  80.7275200  85.9270573
  14.0386903  81.0621548  85.4273510  15.2174938  80.1176834  85.3305149
 108.5467243  81.9551945  32.2715330 107.7884674  81.4539623  32.5715899
 108.7594795  81.5793705  31.4172935 114.4116116  95.1259327  93.1287289
 115.2236080  95.6280708  93.0598354 113.7454128  95.6934452  92.7409935
  16.0298264  71.5241718  22.3342180  15.7818651  71.3922215  21.4191580
  15.1967871  71.5988827  22.7997231  81.2711334  87.5434208  15.3409648
  81.4094067  87.0444298  14.5359027  80.5495358  87.0936584  15.7805622
 100.9749985 101.7784977  29.6880531 101.4272594 102.1777248  30.4312277
 101.2358284 102.3095036  28.9355755  29.2943907  91.1102772  42.5387383
  28.9075255  90.2593231  42.3327351  28.8988662  91.3571358  43.3747149
  77.5169563  49.2306662  40.1316690  77.6289892  48.3424854  39.7928333
  78.0589724  49.2563343  40.9202099  88.2942200  64.7514582  22.3376632
  87.6788712  64.3979311  21.6953278  88.9222431  64.0437460  22.4824548
  51.4208984  27.0775580  91.2044811  50.7218266  26.5134835  90.8738041
  51.3455582  27.8800416  90.6881714 100.2685452  40.7452965  10.3186154
 100.7570553  40.9134674   9.5128167 100.3928185  39.8106098  10.4833949
  72.0459175 105.9647465  19.4911015  71.1934137 106.3936615  19.4169307
  72.5201988 106.4850521  20.1396179  96.3491917  61.5577221   3.6110067
  96.8001652  61.2004852   2.8459963  96.8213654  61.1928177   4.3594286
  63.4485912  50.8247280   2.1763352  64.1855240  51.2760687   2.5879902
  62.7038145  51.0115433   2.7478600 108.3855820  52.5248289  17.4930453
 108.8817501  51.7924213  17.1274924 109.0412807  53.2047415  17.6479614
  73.1121826  34.3974304  86.5385246  73.6796999  33.6845303  86.8316555
  73.3138514  35.1226759  87.1297836 103.9748192  51.0167885  19.0791678
 104.3399143  51.2263203  19.9388385 104.4920444  51.5386057  18.4656382
  24.4762468  87.9433537  90.4936790  25.1218677  87.5848198  89.8847008
  24.8850799  87.8563786  91.3547993 105.0084782  18.5547578  88.6560535
 104.0884876  18.5541582  88.9203167 104.9858379  18.4149778  87.7093792
  63.9481688  11.9027996  90.5573463  64.7300625  12.1759260  90.0774765
  63.4002972  11.4752960  89.8990822 106.4491081  40.2528667   3.2744244
 105.7996941  40.8227253   3.6864352 107.1423340  40.1673746   3.9289096
   9.0908229  86.1566162  11.4287806   9.4282568  85.5321503  12.0709789
   8.6315054  85.6152725  10.7867420   1.6268612  43.8122416  11.3094997
   1.9656651  44.7008705  11.2009573   1.2640631  43.8007545  12.1952069
  51.1575222   7.2386658  72.5760841  51.8766928   7.5520384  73.1245565
  50.6782579   8.0310237  72.3337889   2.9704708  60.2239275  16.4166272
   3.4603110  59.9689007  17.1984518   3.6249739  60.2392769  15.7183278
  36.9280696   8.4654051  92.1040916  37.7163744   8.2052535  92.5806713
  37.1732306   9.2776209  91.6608810  84.7099876  68.9145279   8.4656495
  84.2627716  69.7381210   8.2709092  84.7966099  68.9085913   9.4189042
  12.9934812  76.7772055   6.3894999  12.8422463  77.6836920   6.1218524
  12.9641867  76.8018007   7.3459351  71.4889908   1.9496420  70.9340429
  72.2181273   2.5450245  71.1075830  71.6654205   1.1876727  71.4858627
  42.6687908  19.9683666  78.1742001  41.7375040  20.1881814  78.1990576
  43.0267859  20.3515577  78.9749718 109.3995667  71.2587214   5.5923074
 110.0216579  71.9842339   5.5387837 108.5513306  71.6802311   5.7303524
  42.8210831  66.3123751  84.9683094  42.2797537  66.0025406  85.6943893
  43.2277393  67.1138382  85.2977371  97.0134258  73.9286184  15.2202117
  97.2342777  74.7533512  15.6529593  96.0650158  73.9691114  15.0972819
 109.5509148   1.5302676   1.0750829 110.0846672   1.8626866   1.7967692
 110.0471592   1.7534524   0.2875818  11.9415653  70.1734352  19.7247231
  11.1737061  70.7149792  19.9073565  11.6557157  69.2802048  19.9161971
  18.3398151 100.3633213  74.8740053  18.3631682 101.2675381  74.5608377
  17.4097562 100.1372147  74.8838711  60.4795790  25.9652781  74.0803576
  60.3955221  25.9120989  73.1283379  59.5788956  25.9311962  74.4025993
  63.0221367  24.6891356  91.5848255  62.6923132  25.5802536  91.7003822
  62.3111963  24.2262077  91.1415577  54.0128136  17.2461855  76.9540882
  53.2357788  16.9328260  76.4912128  54.5977068  16.4889205  76.9801760
  85.3795147  14.1909719  82.0165920  85.3610802  13.4129107  82.5738239
  85.1358891  13.8696611  81.1484623 106.0389137  56.5739155  37.6818633
 105.9455204  56.6325188  36.7310333 106.9603062  56.3537264  37.8189087
  65.7132578   4.5548195  90.8073902  65.8024120   4.9574858  89.9435902
  64.7700119   4.4382700  90.9211159  31.7693686  58.7513685  32.5618553
  31.7665362  59.6694088  32.8328276  31.6565251  58.2609558  33.3760977
 103.9860630  64.1178656  25.2960491 103.5247421  64.1230965  24.4573689
 104.9127960  64.0803766  25.0594163 105.2575684  74.3508101  37.8408027
 105.6121063  73.5192299  37.5261402 104.3946934  74.4135857  37.4312615
  84.9681187  15.2626717   2.2679347  84.9082279  14.3506110   2.5521687
  85.0192165  15.2132058   1.3133807  74.6677351  11.0011292  83.0796623
  75.2275372  11.7707515  83.1822968  73.8952208  11.1943150  83.6108303
  56.7438412  48.5413170  89.8583889  57.2818851  48.4052515  89.0785027
  57.3223162  48.9933968  90.4725742 116.2786579  73.6887074  16.4798856
 116.5374374  74.1498423  17.2777736 115.4331779  74.0714455  16.2455666
  71.2484789  12.4872589  81.8397617  71.1737776  12.2756636  82.7702808
  71.8733406  13.2116842  81.8082714  50.1715040  37.6920676  68.5834074
  49.3742514  37.3404074  68.9795876  50.7915258  36.9631529  68.6054325
  41.4491034  32.0191693  77.9406595  41.7210627  32.7017236  78.5541677
  41.2108469  32.4939394  77.1443796  82.0059681  82.5508118  32.9004288
  81.0776043  82.7149677  32.7348399  82.0274448  81.6834545  33.3047318
  21.8821311  47.3055649  84.7659302  21.5166974  47.5054979  85.6277466
  22.5896382  46.6858339  84.9436855  43.5597754  28.7059760  85.9907341
  44.5022631  28.6114287  86.1286068  43.2415438  27.8090596  85.8882427
  41.3682222 107.4434757  87.2660160  41.8414211 108.2534790  87.0757580
  40.4575443 107.7177906  87.3739147  24.8678732  43.1434679  63.4476423
  24.0343189  43.6120367  63.4907770  25.5272627  43.8337135  63.3769226
   1.2401122 103.4957600  82.5336361   2.0967215 103.5225487  82.9599476
   0.6735225 104.0179729  83.1015301  63.2812071  19.7162902  69.2186165
  62.5869465  19.7653496  68.5614777  63.4768057  20.6293654  69.4290113
  89.2960167   5.9159315  73.0918169  89.7717857   5.8197838  73.9168215
  89.9735451   6.1189699  72.4468660 104.6620178  72.5346804  23.9917946
 104.3282127  72.6109362  23.0979300 104.9585724  71.6271496  24.0601134
  51.6830921  28.4540939  86.3521671  51.5042210  28.8448238  85.4968548
  52.2989130  29.0579748  86.7672920   4.5284495  82.7649117   0.9203067
   4.4658971  83.6734676   1.2149948   3.6248457  82.5114822   0.7318763
 104.8035049  55.3515339  15.7808506 103.9162540  55.6508255  15.9794164
 104.6786213  54.5984125  15.2034020   5.2292281  53.9284134  28.9503407
   4.3826640  53.9916897  29.3925595   5.0455469  54.1776943  28.0446076
  78.3272505  34.2461586   8.7555772  78.8115025  34.4385266   7.9526275
  77.4996567  33.8727021   8.4525144 111.4088249  55.8782196  38.5209560
 112.3229694  55.7148695  38.7530923 111.1983681  56.7092037  38.9468741
   1.4289270 107.6814651  81.4869022   0.5145273 107.6849270  81.7699051
   1.5602165 108.5427570  81.0904598  99.7276115  66.4561796   6.8986100
  99.2101574  65.7588005   6.4959556  99.9782562  67.0210171   6.1676049
  38.3917999  36.6802549  54.0694618  38.3870316  36.4879036  53.1317997
  38.3881855  37.6362228  54.1178751   0.6386320  94.5903301  15.9155023
   0.5786595  95.1777840  16.6688514   1.0063741  93.7813663  16.2712765
  13.2787919  94.4941521  93.8750744  12.3966873  94.6394444  93.5330009
  13.4967721  93.6022758  93.6043644  38.7056828  77.1396351   7.8034437
  37.7815032  76.9186354   7.9187030  38.7016964  78.0639267   7.5546414
  71.4707041  52.8470755  22.5134420  71.3910103  53.0062723  21.5729427
  71.4546967  51.8936777  22.5971842  88.2495594  15.8970475   1.2589389
  89.1339111  16.1808002   1.0273401  88.3809280  15.1047063   1.7796792
   3.3284616  57.2365141  14.3589056   2.5106353  57.5168753  14.7697461
   3.9772624  57.8737926  14.6575081  52.4882936  32.8726554  67.2941875
  53.2067156  32.2740221  67.0898771  51.9688368  32.9063773  66.4909077
  68.8925266 104.2105770  87.2491264  68.0689669 104.0203857  86.7999077
  69.2414761 104.9775600  86.7950344  63.3783722  26.5332842  49.3805408
  63.4040546  27.2904158  49.9656248  63.6013746  25.7899380  49.9408436
 107.4690723  76.2494946  26.2190819 107.0378685  76.8112135  26.8631101
 107.0975018  75.3807211  26.3720655  37.3390222  13.9167869  82.2245216
  37.0482039  14.6441364  81.6744137  36.8188572  13.9982045  83.0239105
 111.4143467  60.1036358  12.9273355 111.8148422  59.6083212  12.2128463
 111.3817024  59.4861364  13.6579907 108.7638569  89.0466499  27.3047423
 108.4965420  88.3931732  26.6584110 109.5794582  89.4075584  26.9572330
  63.8428545  19.0766752  93.8836193  64.2067194  19.8105133  93.3883286
  63.8067389  19.3917298  94.7867584  74.5077848   0.4261138  85.8258820
  74.9726105   0.9673588  85.1877403  73.5933542   0.4561588  85.5445480
  60.4270840  48.7596083  91.3715935  60.7161903  48.2875204  90.5907059
  60.2496529  49.6479607  91.0624313  96.9240379  72.8073454  17.8714013
  97.1610260  73.1618500  17.0144331  97.6044178  72.1609211  18.0596745
  40.8946514  40.0131845  87.8970242  40.3565550  40.7924366  88.0365086
  41.4835835  40.2536726  87.1817970 109.4486713 105.4734135  21.8246770
 109.5330048 104.9816990  22.6415873 109.3130970 106.3791084  22.1031809
  20.8922958  86.9386578   2.7492169  20.6036258  86.0614395   2.4974456
  20.0892901  87.4593544   2.7662942  57.6190281   0.4449389  80.5914021
  57.4499893   0.8836028  79.7575903  58.5725784   0.3742598  80.6358528
  87.2251225  87.3620033  23.7994885  86.8077946  88.1732941  24.0890980
  86.7255592  86.6685677  24.2305636  57.7074194  49.4133902  18.8256097
  57.6952267  49.1714621  19.7516525  56.8656397  49.1082096  18.4872282
 111.3184834  69.6554947   6.5708816 110.3809834  69.7404623   6.3973862
 111.4781857  70.2371168   7.3141479  10.8081055  57.9479218   3.5066068
  10.0378132  57.3993921   3.6549154  10.8458126  58.0559778   2.5562733
  36.7460942 102.4515057  82.5745869  37.2744370 102.9225349  81.9302177
  36.2071252 101.8564034  82.0534420  83.1198978  36.1405349  17.5881815
  83.8733292  35.9641266  18.1516147  82.3948765  36.2853312  18.1961310
  92.4750137  90.9864235   1.6446863  92.3946667  90.3767967   2.3782562
  91.8246269  91.6651821   1.8249993  91.5648365  95.9315395  25.2586532
  91.5663719  95.0967026  24.7903967  91.6236973  96.5929604  24.5692348
  64.5421076   5.8842528  61.6613722  65.0784206   5.7398945  60.8817816
  64.1491127   6.7464083  61.5254450  89.5878220  30.0767922  88.2053375
  90.1912689  30.7492661  87.8893280  90.1544666  29.3535566  88.4738064
  41.7311096  18.1842625  81.6620350  42.6397562  18.2442391  81.3670731
  41.2156105  18.4784782  80.9110832  85.0861073  18.9304638  71.8614769
  85.9291458  18.8973737  72.3136091  85.2639771  19.4203758  71.0586214
  72.3753119  34.3198323   3.1763336  72.5063705  34.7266364   4.0328184
  72.0657730  35.0326300   2.6174656  94.5132637  98.8745117   2.8358668
  94.4945717  99.7002697   2.3521197  95.4312897  98.7621307   3.0824906
  61.4638805  13.7739742  63.7418604  60.5265951  13.6690021  63.9053059
  61.5125370  14.4037914  63.0226994   0.8055936  59.4522667   5.4576206
   0.1550732  59.0077829   4.9140310   0.8364926  58.9370060   6.2637144
  32.9671836   2.0726281  27.5030136  33.0456161   1.3414112  26.8903136
  32.0820928   1.9931665  27.8587270  50.1839161  96.4884281  27.8428578
  49.9049091  96.6595840  26.9433594  50.8412123  95.7972717  27.7623439
  66.5185070   3.8873297  82.1731567  67.2187996   4.5398739  82.1757412
  66.9710445   3.0499434  82.2742748  12.5164354  69.0989399  23.1957054
  12.0937717  68.5406446  23.8483095  11.7906880  69.5052958  22.7220011
 112.4429989  31.9883728   6.4926440 112.4524879  31.3901401   7.2398120
 111.7870140  31.6211605   5.9001291  38.7616181   6.4079064  12.3114276
  38.7027788   5.4866624  12.0582902  38.9543223   6.3868904  13.2487941
   3.6064839  53.1733751  40.7697725   3.9032921  53.8077402  41.4222431
   4.0529314  52.3602486  41.0058737  77.9617167  18.1495702  86.5632725
  78.1164312  19.0528929  86.8395042  77.0350361  18.1275034  86.3245106
  69.3711331  11.9696297  94.6455807  69.0059331  11.4461006  95.3588641
  69.6608403  12.7790035  95.0665536  12.3396146  77.2277117  22.4817967
  11.6286361  76.6793299  22.1501064  12.8317094  76.6530895  23.0682087
 106.8705177  74.6522284  21.9986844 106.8116760  73.7440681  22.2953653
 105.9641838  74.9599314  21.9880915  49.3577385 100.3841019  16.5598488
  50.3029966 100.4019737  16.7095041  49.1339922 101.2868118  16.3333762
  93.4034252  23.9928722  17.4158132  94.3243027  24.0109611  17.6763570
  92.9263115  24.2515731  18.2042706  85.3899956   3.3498189  81.1278534
  86.1706448   3.0162257  80.6856728  84.6836090   2.7752155  80.8327484
   4.1486189  84.6468163  18.2131779   5.0550878  84.4996452  17.9432011
   4.0445358  84.1154861  19.0025342  55.9906483  32.1897316  88.2226086
  55.7149124  31.6469836  88.9612770  56.6851568  31.6843438  87.8001499
  96.7758942  59.0933847  20.5091763  97.5718212  58.5626268  20.5412364
  96.0931301  58.5227680  20.8619618  72.8469276  69.0512991  17.4941707
  72.4196005  68.5657072  18.1997359  73.2338476  69.8121977  17.9272509
  43.2444334  36.6088963  87.8332996  43.5300350  37.2150350  88.5168648
  43.6533785  36.9398069  87.0336151 106.1334515  67.9851866   2.5683558
 105.2141857  67.7404308   2.6745579 106.2128639  68.8221693   3.0259454
   4.5316461  67.8345346   4.0970236   3.9551392  67.5463915   4.8047271
   4.9707073  68.6099958   4.4464722  26.4244294  13.7849200  24.6543694
  26.5038180  13.9803290  23.7206960  27.2925520  13.4715629  24.9081469
  58.1999254  19.4756782  67.0699215  58.7720728  19.8955750  66.4276075
  58.3237839  18.5377991  66.9240618  24.9643183  29.6277332  94.5382404
  25.7828331  29.7807264  94.0661621  24.2878103  29.6616769  93.8619137
  65.1318932  17.6621771  65.3178024  65.1186657  16.7394006  65.5718517
  65.6159544  18.0969667  66.0198498  86.7263317  72.4724007   5.3627068
  86.1031914  73.1894588   5.2453864  86.1884785  71.7305660   5.6395257
  52.4703693  92.7705193  70.4255962  52.9548740  93.4700298  70.8639717
  51.6172457  93.1572247  70.2284431  94.7851753  13.8265359  79.6922827
  95.5787182  13.5242677  79.2505217  94.0962505  13.7391639  79.0335083
  99.0805054  59.4178820  12.7488947  98.7439919  60.2991295  12.5864434
  98.4953022  58.8432789  12.2553313 114.6162510  48.7143612  11.3865519
 113.7340355  48.6733198  11.7556798 114.6239948  48.0384445  10.7088268
   0.2292500  48.1626081   0.4855604   0.8679066  48.1534195   1.1984853
  -0.6063976  47.9683828   0.9100720  60.5815268  27.1173763  87.5647163
  61.3189459  27.6805568  87.3296261  60.0724936  27.6366591  88.1871796
   7.0381325 108.1886864  85.2689648   7.1863419 109.0805817  84.9546719
   7.5588691 107.6388168  84.6835423   5.8098447  81.0312366  14.0670609
   5.0850797  80.4675961  13.7964094   5.4559714  81.9189739  14.0129948
  38.0324340  13.4192026  90.7984829  38.9726257  13.2996619  90.6643867
  37.9583240  13.7501001  91.6936016  96.2890530  69.7739840  15.1050925
  97.1745014  69.8175526  15.4660904  96.3747215  70.1226950  14.2177987
  86.8059635  71.4963150  10.2494895  86.2299728  72.0734215   9.7480750
  87.5596523  72.0433950  10.4705918  58.1723547  27.6061058  78.0934286
  58.2624388  28.1907535  78.8459587  57.2397661  27.3921204  78.0666590
   5.9333438  47.9511738   2.1176532   6.7078531  48.4121799   2.4398959
   5.8133972  47.2264290   2.7313244  86.0974884  77.4162245  22.5820398
  86.4507484  76.5266037  22.5778699  85.3700161  77.3879671  21.9605851
  24.6251512  32.6750946  94.8308945  25.5481696  32.4343204  94.9102402
  24.6396089  33.5884404  94.5448494  90.1657009  55.5494356  40.1912832
  91.0272312  55.9499931  40.3076982  89.6512985  55.8678722  40.9330511
  92.5960827  43.1530952  18.4577096  91.9252872  42.5068903  18.6783445
  92.9164696  42.8816080  17.5975513  62.4803734  37.3684263  89.4850636
  61.7563438  37.7316713  89.9950314  62.0555735  36.8503547  88.8014126
  49.2342710   0.4525079  65.8748770  48.3986473   0.1231824  65.5439472
  49.1516829   0.4013365  66.8271303 110.4704571  77.3679972  14.2887557
 110.4143143  76.7954779  15.0538051 110.3258038  78.2478333  14.6368933
   1.2802269  90.6858444   2.3692772   1.7059207  91.0364437   3.1516436
   0.3599558  90.9301567   2.4674897  59.0549138  45.7685722  94.8701842
  59.6324113  45.0061954  94.8314001  59.6351102  46.5161194  94.7260784
  75.9869146   5.5693817  72.3029566  75.4718399   5.4289591  71.5084696
  76.3545179   6.4469373  72.1981001  74.5577335  81.4935017  15.6267416
  74.1802883  82.1140671  16.2501693  74.1730309  81.7361832  14.7845185
  94.6928310  76.6583252  13.2620811  95.6417465  76.7419529  13.3558106
  94.3415070  77.4528790  13.6639416  86.8951988  25.8096719  88.5134125
  86.1743355  25.9651136  87.9031372  86.8312168  26.5245438  89.1467381
  33.8019085   1.4591724  23.6716056  33.4156251   1.1136276  24.4763517
  34.2991352   0.7253721  23.3103108 102.9824734  89.9648094   7.7871388
 103.0315018  90.9205627   7.7680296 103.3891296  89.6876621   6.9661367
   4.7671494  29.0340209   4.0813646   5.1069731  28.1935644   4.3885869
   4.6885061  28.9284325   3.1332621   2.4524435  81.8045807  25.3844452
   3.0327478  82.1684265  26.0530949   1.6650319  82.3469353  25.4298186
 101.3831615  58.9666367  21.8243742 100.7145214  58.3413315  22.1039271
 102.1727848  58.4378195  21.7100286  15.5829549  61.3993740  19.5715356
  14.8902297  61.2794399  20.2211356  16.0975981  60.5936718  19.6186626
  33.1286979  98.0034161  70.7037973  32.8700519  98.9221001  70.7769203
  32.3014092  97.5221729  70.6883907 107.3898888  80.7225132  36.1940360
 107.9963589  80.1059723  36.6042900 106.6506577  80.7705688  36.8002176
 103.9767647  97.5176144  34.4056225 104.0317440  98.2613564  35.0056648
 103.3725739  97.8059769  33.7214875  24.1032362  95.7459831  74.6266174
  23.8455534  94.9103451  74.2373371  24.3886495  95.5199337  75.5118704
  46.3325930  27.6503062  68.0535746  46.5314388  27.7097464  67.1191454
  45.3824902  27.7554345  68.1034279 113.8401794  57.5276852  25.2486229
 113.2150555  57.9340267  24.6483350 114.6965790  57.7088356  24.8613358
  42.8306627  25.9361005  76.0685349  43.3357620  25.5697393  76.7944002
  43.4770966  26.4016104  75.5378199  18.3125746  66.0976076  20.4906511
  18.1518281  66.9459629  20.0775075  18.3279693  66.2871408  21.4287734
   3.0350098  95.7449150  31.2539053   3.9465362  95.9927845  31.0992694
   2.9899815  94.8243618  30.9954858 115.5596352  67.9007912   2.0305523
 115.5435753  66.9437695   2.0396388 115.5556202  68.1315947   1.1016038
 110.3357887  89.3548870   0.4538848 110.6643677  89.4654369  -0.4383305
 109.5526600  89.9040604   0.4904856 109.8115730  59.2654991   9.2336559
 108.9114380  58.9402151   9.2200118 109.7324848  60.1976490   9.0310019
  42.3380280  50.9267616  89.4599056  42.5450039  50.1599979  88.9256096
  42.2715282  51.6457081  88.8314724   3.5246384  40.0536156  12.2763407
   3.6364430  39.1512108  11.9773448   2.7362761  40.3587627  11.8273401
 105.3176498  41.9403076  36.9320393 105.2672768  42.7379894  37.4587202
 105.3540039  42.2522211  36.0278153  10.0323808  78.3398199  29.9778581
  10.0557041  77.5780821  30.5570269  10.9326184  78.6650705  29.9735355
 105.4100609  57.8811884  15.2448201 105.5415440  56.9481611  15.4133499
 104.4625473  58.0038834  15.3029788  48.1333828  93.4889412  78.0656767
  48.5780001  92.6865196  78.3389378  48.7795687  94.1808224  78.2070017
  60.0291681   6.5226817  93.5146713  59.3128443   7.1496218  93.6149693
  60.8225250   7.0435256  93.6393261  29.5747495  72.2045279  16.6319680
  28.9889717  72.3446465  15.8880162  30.2357221  72.8919077  16.5491545
   6.8289870  69.6607828  27.6564860   6.2835300  69.0127230  27.2106981
   6.8543023  69.3668556  28.5670900  99.2333031  55.0983715  55.4664326
  99.8874378  55.4605627  54.8688078  98.4376812  55.5974388  55.2816582
  97.3218536  60.1346636   1.2739606  96.8058014  59.3306541   1.2149158
  97.3578835  60.4626751   0.3754371  83.3882713  82.1787643  22.2248626
  83.2351875  81.5061665  22.8884912  82.5803185  82.1974468  21.7119431
  52.4944258  34.0655589  78.3605814  53.1768370  33.8207030  78.9855528
  52.7690649  34.9203706  78.0287647   9.5890552  94.3507099  32.8228498
  10.4125845  93.9268398  33.0644274   9.3602347  93.9650536  31.9771910
  68.7830973   0.9597287  68.2087660  68.1361437   0.9046467  68.9120817
  68.8485909   0.0657371  67.8730249  66.7677832   3.1702042  67.4542427
  67.5808382   2.7759486  67.7700520  66.6116190   2.7515694  66.6077280
  49.2453814   2.9924905  81.7072105  49.7029877   2.1535504  81.7620182
  48.9340162   3.0368665  80.8031559  97.4826050  70.4677582   4.1059017
  98.3897877  70.2320862   3.9116967  97.3385715  70.1512289   4.9976960
  16.3994038  38.2466173  81.5542698  15.5543959  38.6960244  81.5392971
  17.0461214  38.9522719  81.5480423 101.0306168  95.9164524  10.5688965
 100.8523369  96.5876579   9.9101698 101.9690704  95.7457066  10.4889703
  22.5541282  62.3043633  15.4346251  22.8960538  62.7941656  16.1825633
  21.6336083  62.1522903  15.6485128  29.4205141  21.8656707   4.7308972
  29.1510868  21.1957192   4.1025594  29.0086675  22.6698804   4.4148925
   4.2746109  67.5542164  87.0660973   4.7166032  68.2954454  87.4801636
   3.6031479  67.9540730  86.5133858  10.3478885  65.5542469   6.4935249
  10.9694672  66.1059809   6.0186934   9.7838289  66.1732054   6.9571644
  93.6242962  75.2898979   9.8247963  93.8595009  75.3813314  10.7481325
  92.7969360  74.8086452   9.8349142 112.4288750  70.3240490  13.1146288
 112.8994846  69.8489618  13.7995052 112.8238010  71.1959791  13.1133521
 110.2975368  40.5688095  92.9136467 109.7860718  40.1786280  92.2048569
 109.9065113  41.4327717  93.0436611  45.4346704   7.0527422  59.6576643
  44.5929337   6.6743070  59.9116325  45.7069635   7.5642169  60.4195595
  62.7586842  34.9673629  68.3654928  62.3931599  35.6455708  67.7974653
  62.2508240  35.0329304  69.1741991  69.5758820  16.1897516  83.0969906
  69.6374559  16.3552761  82.1562195  68.6550283  15.9725571  83.2421970
  18.3260429 108.9448643   4.3705133  19.1149795 109.4380569   4.5954072
  18.6461115 108.0721569   4.1421300  46.0102892  58.6260319  92.9943752
  45.1540661  58.3253908  92.6898575  46.5837717  58.5247898  92.2346973
   8.5965991  45.1089621  11.8808234   8.3666569  44.3429518  11.3549089
   9.1867650  45.6146955  11.3221025  23.4505558  69.3361759  16.7108011
  23.5875130  69.4591188  17.6501405  22.6964068  69.8883486  16.5044200
 111.2514400  71.6836596   8.3670038 111.2078762  72.3287916   7.6612139
 111.6311455  72.1609974   9.1047066  14.8352468  10.7150853  32.5521278
  15.0986350   9.8320776  32.2929811  14.3589365  10.5916798  33.3731818
  82.2994900  37.9975533  90.9098625  82.7790165  38.7669802  91.2168884
  81.4974213  38.3524418  90.5264759  70.2769041  44.4859123  93.3126545
  70.8813238  44.9080038  92.7021217  69.4328451  44.9035692  93.1412983
  14.6827555  82.5550842  38.1625700  14.1538608  82.8093433  37.4063611
  15.2134240  81.8229961  37.8484416  91.4273453  96.2993717   7.9857588
  91.1819267  95.4354572   7.6546103  90.9450531  96.3865948   8.8079607
 114.8890305  91.5787506   2.6873431 114.0894127  92.0693970   2.4973287
 114.5889473  90.8106709   3.1733862  74.8872805  66.9861698  11.9211316
  74.5660257  66.1490870  11.5859973  75.0744009  67.5021935  11.1369503
  54.6736288  48.2923079  88.2402897  55.0868797  47.4732876  87.9670525
  54.8987341  48.3766985  89.1668129  74.4188741  35.0254311  95.1278672
  74.8710206  34.6430935  94.3757910  74.4635060  35.9699882  94.9793539
  75.9413052  40.5807972  85.8010197  76.2967539  41.4680529  85.7493591
  76.2568045  40.2448559  86.6399670  15.9089446  95.4173470  43.9501858
  16.2202764  95.1336765  44.8097420  16.3605726  96.2466526  43.7935734
  42.2548819   1.1670832  16.0588872  42.0057106   0.4842336  15.4361033
  42.4182606   1.9383314  15.5160105  68.5221624  21.0863900  94.3446255
  69.3772840  20.7134080  94.5588207  68.0871105  21.1896658  95.1909637
  98.1784058  87.4327183  40.1490974  97.8433323  87.6897430  41.0081053
  97.3946571  87.3060703  39.6143818  90.5809212 102.0894241  25.9536862
  90.6147289 102.1912766  25.0025201  91.2151623 101.3980198  26.1432314
   0.7687028  96.6302872  36.1450672   0.8574092  96.0640144  35.3784561
  -0.1740595  96.7724705  36.2300086  77.0355749  36.8913770  93.1740189
  76.1812782  36.9407201  93.6029434  77.6569557  36.7670989  93.8914299
  51.8435338  41.1007084  94.7433900  51.7910340  40.7481255  93.8550391
  52.3678544  41.8965877  94.6546029  12.7528322 109.0318203   7.7590954
  13.6367595 109.2389393   8.0624133  12.7857053 109.1707230   6.8125981
   1.7605065  92.2630024   5.2603054   1.9261228  92.4450302   6.1853302
   2.6294780  92.2519302   4.8590606  95.4388905  45.5783701  89.7451401
  96.3226223  45.4703331  89.3935966  94.9468422  45.9889841  89.0341473
  67.7100420   7.6851857  21.5156102  68.0104065   8.4205967  22.0496368
  68.4506655   7.4871290  20.9424806  78.6482000  34.5496082  81.2928486
  78.5737181  34.6758032  80.3469276  79.5778370  34.6806431  81.4794922
   4.1876331  84.2628574  52.6434278   4.1745269  85.2149487  52.7413130
   3.8006246  84.1052723  51.7822552  11.9478047  90.4330826  20.7537270
  12.4582279  91.2272072  20.5953932  12.5009120  89.7236538  20.4265976
  34.4300747   4.5424581  22.8888726  34.5419121   3.7335193  23.3882141
  34.3679142   4.2549953  21.9779754 104.7735310  88.0608463   1.7519562
 105.4333019  88.0561924   2.4454336 104.2038536  87.3198414   1.9583720
  22.7284074 108.7394524  41.0129118  22.7712774 107.8521538  40.6564188
  22.1233916 108.6718273  41.7515707 114.7799301  79.3849611   6.1184490
 113.8810062  79.6548510   5.9305197 114.9047184  79.5955038   7.0438313
  13.6452031  99.6660519  34.5105839  12.8701377  99.1674519  34.2519140
  14.1513097  99.7579193  33.7033367  93.7469769  68.3419847  93.4244633
  93.3705902  67.9688120  94.2215252  93.8391399  67.5964117  92.8312874
 105.6781006  97.7152348   3.0006546 105.3961563  98.2658958   2.2702387
 106.6317368  97.7974033   3.0083725  25.9352279  40.6550455  82.0153522
  26.6841722  40.7839298  81.4333630  25.2855468  40.2067041  81.4739323
  10.6029248   3.3184302   1.0869010  11.0034287   3.9245698   1.7101370
  10.6442273   3.7762108   0.2472804  81.0019112  19.8901808  82.8138351
  80.8508778  20.8268905  82.9403019  81.5765953  19.6403944  83.5374260
  23.2583857  87.3449326  16.7680120  22.5968885  87.3423767  17.4598539
  24.0661550  87.6065445  17.2099435  68.5545444  31.0449529  94.0982533
  69.3857193  30.5708337  94.1225052  67.8998899  30.3937411  94.3504047
  65.1088238  38.9740515  87.0809650  64.7255945  39.3026066  87.8942490
  66.0537386  39.0116644  87.2291279   8.5781980  62.6917362  18.3648646
   8.9372325  62.5545692  19.2415118   9.3472612  62.7988195  17.8051269
 101.0113430 101.4765167   8.9093184 100.8831692 102.3630333   9.2467856
 100.5668831 101.4763546   8.0615628   7.7127939  57.4379063  30.6238842
   8.6232328  57.6855803  30.7850933   7.6881695  56.4953613  30.7889128
  70.9433222  35.6591964  88.9392281  70.3177261  36.0613680  88.3366299
  70.8744860  34.7205615  88.7647057 109.4319630  76.3162708   9.7634095
 109.9768925  77.1019363   9.8082948 109.2649174  76.0880852  10.6778812
  46.5800619   9.9251407  73.2441711  46.0079575   9.1635066  73.3381987
  46.5754223  10.1137877  72.3057556  50.5995607  35.2192163  90.9738731
  50.2837372  34.8858762  90.1340103  49.8299360  35.2028084  91.5427685
 102.7246952 106.9611740  31.3865113 102.4477959 106.7524910  32.2787094
 102.3340225 107.8166771  31.2084007 114.0061378 104.2626286   6.0062391
 113.6984158 103.3977890   5.7349455 114.1786385 104.1723442   6.9434297
 109.1373920 107.7073765   4.4172519 108.7438011 108.5443211   4.6639222
 108.5456848 107.0482445   4.7800991  62.8508663   1.3773957  86.7597008
  63.7366772   1.1788433  87.0632553  62.3821592   0.5456146  86.8281460
  26.0164189   5.7125205   7.1482617  26.2599421   6.3027662   7.8613800
  25.7236981   4.9140707   7.5876075 111.9080162 102.1688747   6.1000234
 111.2188816 102.2863102   6.7538786 111.6172123 101.4217377   5.5770934
  93.0207539  96.7528915   2.0946714  93.3521461  96.2404633   1.3572297
  93.7343884  97.3538589   2.3086609 111.9930077  77.3594904   6.6256112
 111.5505123  76.6281557   7.0564038 112.7153778  76.9536114   6.1463678
  29.2912459   4.9981076  17.4626648  29.7207284   4.1534227  17.5978839
  29.3285441   5.1369977  16.5163302  98.2441044  82.9972649  17.2119296
  98.2068253  83.6857605  17.8758740  98.6667633  83.4122658  16.4600194
  14.7801208  90.6102085   2.7591544  14.9847186  90.5009937   1.8304762
  14.0934122  91.2768173   2.7763379  52.1696186  10.0597453  21.6087389
  53.0136299  10.4551840  21.3907743  52.3062468   9.1204047  21.4854288
  48.8701200  13.9316058  62.0761728  48.2727289  13.8892353  61.3294744
  49.5191717  14.5893967  61.8266106 105.8958857  15.3596319  93.1625750
 106.0368173  15.1881088  94.0936761 104.9476998  15.2958263  93.0481123
  72.6179552  41.3076544  84.3686771  73.2415485  40.6389856  84.0853977
  72.0904636  41.4882040  83.5906124  30.0713325  84.5599842  13.5828269
  29.3058181  84.9992466  13.9533246  30.8180332  84.9759293  14.0137017
  61.2137032  20.0802851  91.0775471  60.8698940  19.8968709  91.9518375
  61.0526943  19.2764759  90.5833817  63.8490820  47.9491901  92.3250866
  63.6511660  48.3240128  91.4668465  64.2940903  48.6531019  92.7970123
 100.4230499  18.7359762  93.7739372 101.1047935  19.2940319  94.1481495
 100.0238514  19.2722201  93.0888653   2.8742772  91.3927650  61.5516329
   3.0912173  90.4743862  61.3911486   2.9580060  91.4965343  62.4994993
  73.1411457  32.6755214  83.1100941  73.7951088  32.0968008  83.5020733
  73.5797215  33.0497241  82.3459911  89.7131348  18.3724225  87.3390198
  89.1115856  19.0599084  87.0531273  90.5675316  18.8023078  87.3769283
  81.8002701  98.9633846   8.6220336  81.9771862  98.9199924   9.5617414
  81.9430256  99.8818970   8.3935970  82.3445702  21.8721581  76.6569042
  82.2824287  22.7622819  76.3104200  83.2797337  21.6696501  76.6306067
 108.3972931  18.5025120  85.2391815 107.7440357  18.8946009  84.6597385
 108.3364391  17.5627899  85.0675583  18.9575112  79.4848967  13.8254714
  18.2430172  80.1033592  13.9778960  18.5835838  78.6298037  14.0381360
  91.8948460  86.6682625   6.6739196  92.1625328  85.7520294   6.7453599
  91.1656761  86.6571045   6.0539067  15.1327193  68.3539009   9.0372676
  15.5882800  67.5940514   9.3996525  14.3823636  67.9839373   8.5721618
  48.7094927   8.4930348   3.2855961  49.6089125   8.8200802   3.3035269
  48.4927511   8.3376926   4.2049021  65.3784466  31.4097714  78.9513302
  65.8054495  31.1883402  79.7788954  65.3671503  30.5881929  78.4602976
  84.4831085  50.3360987  89.9660683  83.5421467  50.1648045  90.0045681
  84.7875881  49.8323202  89.2112637  75.4810476  35.4204035  89.6264648
  75.0894117  35.9735370  88.9505291  75.2232218  34.5303202  89.3866444
  86.3367462  19.4232345  78.1588984  87.2688198  19.6057713  78.0399799
  85.8963108  20.0257516  77.5595474  34.3050504   5.8528489  11.7646182
  34.0746641   5.6798655  12.6774335  33.8425684   5.1772642  11.2687075
  20.6731606  98.5438442  46.3703823  20.6970286  99.4589233  46.0905600
  21.4694381  98.4312820  46.8895197  79.5453119  38.0333209  89.7895813
  79.8271370  37.2169352  90.2022839  78.7667179  38.2940650  90.2815533
  82.3020649  34.3027949  89.3296909  82.7185059  33.6313224  88.7893772
  83.0269527  34.8486662  89.6343136   6.7258471 107.3237896  13.8174081
   6.1676323 106.5830803  14.0539908   6.2268436 107.7966213  13.1513286
  22.1815538  97.1877003  14.0724456  21.4838123  97.2572231  13.4208667
  21.9045973  97.7666187  14.7826445  54.7461414   3.8013360  93.1998920
  54.9925995   2.8825110  93.0938148  53.8756895   3.7715310  93.5969448
   0.2285756  52.2561455  30.5812144   0.6789157  51.6105461  31.1258531
  -0.2088152  51.7369080  29.9064469  40.5447149  85.6085491   9.5179725
  41.0487366  86.3459206   9.8621720  39.7313714  85.6180477  10.0225639
  98.7898064  23.1574225  84.5848370  98.5166740  23.3875251  85.4729176
  97.9718494  23.0926251  84.0919113   1.8735237  91.3792992  28.5043955
   1.9240543  92.2980118  28.2404852   1.4827745  90.9350872  27.7519155
  55.3910303  86.9632721   4.0416172  55.1582479  86.5038681   4.8484558
  55.5923176  87.8555679   4.3236113  83.9660645  74.3041992  20.2667880
  84.5012951  73.8358498  20.9074211  84.2737484  73.9849520  19.4184709
  75.0485420  22.4092388  88.7173367  74.3508291  21.7840433  88.5209560
  75.1211548  22.3951435  89.6716690   1.5479706 108.4019470   1.2404582
   2.3893727 107.9920387   1.4410791   1.3146603 108.0599499   0.3774218
 109.6533680 105.2579880  41.0734844 109.4733143 105.9722900  40.4622746
 110.5972004 105.1148605  41.0032606  83.2740974  33.6945033  93.6579609
  82.6874733  33.1008363  93.1892872  83.5417461  34.3358517  92.9997253
 107.9712772  92.9711533  19.0677559 107.8198433  92.0263577  19.0421212
 108.7446499  93.1047153  18.5197747  16.6837382 104.7762775   3.5087797
  16.5025723 103.8825989   3.7999165  17.5957191 104.7535133   3.2189432
  51.3924265   0.1633788  11.1039877  51.8504286   0.4134068  10.3015196
  50.5830050   0.6740349  11.0868192  20.1445699 108.7058163  21.1253977
  19.6712315 108.4535122  20.3326011  20.6342912 107.9211903  21.3718963
 110.4881191  51.8295908  28.9838004 110.6533527  52.7421236  28.7466979
 110.3699112  51.8465281  29.9335217  20.2007508   1.4256443  70.2720356
  19.7033727   1.8154746  69.5530939  19.9652505   1.9493991  71.0378361
   7.5988263  78.7689447  20.2345324   6.7773139  79.1669035  19.9464691
   8.1048501  78.6551094  19.4300365  50.4135466  29.3911505  90.1922894
  49.8419666  29.2639804  90.9494877  50.4813147  30.3415036  90.1002789
   1.8222864  95.3674126   8.0850887   2.7758747  95.2889824   8.0577087
   1.5662014  94.8994827   8.8798797  41.9689083  58.6059809  85.0411415
  42.5742054  57.9470730  85.3812599  42.3508883  59.4422865  85.3074455
  76.3849878  85.3590012   7.9260844  76.6555548  84.4797993   8.1907123
  76.2236547  85.2869606   6.9853330  96.0338783 105.9676552  42.8053665
  96.7402935 105.7185936  42.2094011  95.8893204 105.1896095  43.3438587
  86.4888763  88.1510544  13.3923399  87.0949650  87.4495125  13.1541836
  85.6599140  87.7038383  13.5627520  37.8596616  51.5691614  88.5180187
  38.3448648  50.7627964  88.3431339  37.8820944  51.6603756  89.4705963
  14.7618139 102.9315186  32.6985407  14.0710735 103.4986496  32.3558044
  15.0665915 103.3763981  33.4893751 101.8242264  85.9918594   2.5132191
 102.6219559  85.7490063   2.9831979 101.6324711  85.2348423   1.9597034
  74.4463587  20.7280278  73.1092501  74.4268274  21.6824460  73.1795216
  73.9593935  20.4215312  73.8742065  95.9818077  86.5819931   4.6447909
  96.2613392  86.5824413   3.7293178  96.7895985  86.4528847   5.1418132
  97.8784180 106.0057735  13.6106706  98.3810520 105.1938343  13.6765814
  98.4833527 106.6300964  13.2100296   1.0854171  63.1323004  13.6745358
   1.1540797  63.8240194  14.3325949   1.7804080  63.3293295  13.0465233
  27.2089767  86.3253975  11.2056184  27.6219177  86.9455528  10.6046939
  27.7377820  85.5310440  11.1307359 112.9855251  72.0000172  24.7267747
 113.3840752  72.8652763  24.6334147 112.7286816  71.9527197  25.6476569
  98.4555340  70.7626390   8.4134513  99.0360641  70.8517027   7.6576227
  99.0122223  70.3978395   9.1013759  31.4668393 108.3467388  81.6858959
  30.9160590 108.4653854  82.4597168  31.2782049 107.4555111  81.3920116
  16.6427004  99.5893574  20.9967899  16.1840665  98.7588596  20.8696246
  17.3033667  99.6065807  20.3043628  88.2987118  41.1963844  89.9810028
  88.6337852  40.3441572  90.2597046  88.8066959  41.8305826  90.4869366
  85.3812504  36.8454289  94.8279476  85.4451656  37.3998857  94.0503120
  86.1096001  36.2300611  94.7438717  98.6781788  30.7221270  80.8387852
  98.9036655  31.3031054  80.1122570  99.0209961  29.8675203  80.5773544
  10.9815860  64.9015951   0.3895546  10.6909227  65.6188917   0.9527846
  11.5713942  64.3877888   0.9412444   7.3994672  95.0696182  23.9362717
   6.7106861  95.2718735  24.5694399   7.6587522  95.9211254  23.5842347
  36.1579728  32.7190757  24.9118805  36.7271614  32.1979141  25.4781389
  35.6635284  33.2741666  25.5148983  90.0223064  79.9002123  24.8126316
  89.1939831  79.4332647  24.9225354  90.6488132  79.2210293  24.5627928
  24.9533176  91.0953808  35.5090237  24.9389935  91.5809536  36.3337922
  25.3285408  90.2451229  35.7381535 110.8416653  92.0466423  28.2970977
 110.8311558  91.5747833  29.1298485 110.1616192  92.7136612  28.3911562
  28.0908060  27.2211242  54.3384552  27.6369143  26.6237044  54.9328470
  27.3938441  27.6050234  53.8063860  90.5949497  27.8199887  85.9282017
  90.1576996  28.6055851  85.5997467  90.4379940  27.1589136  85.2539730
  63.5266113  26.5882516  82.7516651  63.9785480  27.4260831  82.8517723
  62.9969645  26.6947317  81.9614887   4.7745773  95.0271416   7.7522713
   5.3153598  95.6141186   8.2807010   4.3352050  94.4660568   8.3913124
  79.0438509  39.5053649  92.7338123  78.3680105  38.9309883  93.0937576
  79.4125795  39.9492478  93.4975147  92.1423054 107.0577145  12.7900410
  91.8216515 107.9255390  12.5444853  92.4120331 107.1516991  13.7036300
  75.1471090  36.2679601  84.6656799  74.3692875  35.7483649  84.4625759
  75.8640718  35.8055878  84.2316246  34.4083264 109.3396136  91.5649319
  33.8277343 109.9146413  91.0664463  34.8515847 109.9226937  92.1811867
 110.6249046  91.3059711   2.5800467 110.4888439  90.5976009   1.9508128
 111.3708496  91.7949486   2.2326297  91.7498875 103.7726498  32.8644466
  91.2640572 102.9819584  33.0989981  91.3347149 104.4687462  33.3736706
  14.9699020  87.9785728  12.3874283  14.9403608  87.6864910  13.2984984
  15.8996606  87.9616356  12.1605062 109.3354416  94.9676323   8.1626654
 108.4238052  95.1956558   7.9806203 109.8185539  95.7820511   8.0228382
  44.4516897  11.5448153  21.1588430  43.8586664  11.3589728  20.4308176
  45.3209019  11.5716660  20.7588696 114.8549747  78.4902477  26.9295478
 114.8302078  78.0599308  27.7842093 115.5800533  79.1116714  26.9951940
   5.6048667  82.5153923   5.0913566   6.5003800  82.4246216   5.4170078
   5.5981398  82.0252132   4.2692184  44.0067005   6.3855940  26.9223142
  43.7084103   7.1848398  27.3564315  44.4753075   6.6947436  26.1470270
  16.7530394  81.7491531   2.8212118  17.3874211  81.7850304   3.5371056
  17.2758508  81.5355110   2.0483884   0.7064792 103.7654781   6.2603772
   0.6154911 103.4047413   5.3784353  -0.0607061 104.3273640   6.3696498
  62.9983139  31.9387746  64.8659706  63.3167982  32.0722890  63.9732361
  62.1889782  31.4389443  64.7592926  70.8057308  47.9278898  94.5278072
  70.8716345  47.5483084  93.6515617  70.9442091  47.1887636  95.1200390
  94.2234230  92.0462704  26.6227674  94.5448780  92.2539616  27.5001240
  94.0043354  92.8960609  26.2405586  75.0702047  42.1722460  88.6113739
  74.3711376  42.3781872  87.9907799  75.8781862  42.3376846  88.1255341
 100.5098152  55.9973907  16.7568433 101.2758732  55.6659126  17.2253644
 100.8485317  56.2636709  15.9020925  35.9258938  21.3950992  81.9796658
  35.1711369  21.8846416  82.3066616  35.7684088  21.3121986  81.0391617
 108.1601524  95.5095577  11.5927589 107.7520466  96.2243557  11.1041462
 107.4681091  95.1891518  12.1712506   6.3723952  70.5871725   2.6362193
   6.3301980  69.6754408   2.3477724   5.9891897  70.5788708   3.5133260
 110.0660706  49.1413260  27.9932833 110.0080681  50.0109959  28.3889318
 109.1558838  48.8831043  27.8479719  97.0790768  17.3777771  19.1914129
  97.2840214  18.1227136  18.6263454  97.7788544  16.7475450  19.0200913
  52.1859407   5.7402563   0.4226365  52.9203415   5.4985315   0.9869522
  51.4729929   5.9393877   1.0295029   7.3877764 102.4294281  25.4549718
   7.8103346 101.7070866  25.9196210   8.1104362 102.9092312  25.0502682
  44.7387648  51.6163540  90.6441879  44.9758196  51.5455484  91.5688705
  43.9587545  51.0688734  90.5542946  86.8130589   4.1499802  66.3493347
  86.2011337   4.8802155  66.4417601  87.6578808   4.5657572  66.1772108
  87.3479080  96.1982918   7.3906940  86.7665577  95.6821632   7.9491472
  87.5475121  95.6205940   6.6540402  65.1577997 109.1859722  23.7263250
  64.4168425 108.9777470  24.2954063  65.3047085 108.3858013  23.2219648
  76.8524361  37.7031612  90.6829071  76.9673634  37.5440407  91.6197586
  76.7303848  36.8321323  90.3052235  41.3146830  66.8183517   6.2668872
  40.4456425  66.5149927   6.5295255  41.8972492  66.5036631   6.9581342
  38.0916810 101.4913750   2.4609515  38.0072784 102.0895958   3.2034069
  38.7998462 100.8978558   2.7108872  81.6357708   9.6153295  86.9669724
  81.6783237   8.9364225  87.6403999  81.5132046   9.1338056  86.1488342
  40.0516462   0.7702546  24.7993946  40.2645302   0.4333248  23.9291120
  40.8526182   1.2064894  25.0898671  70.8525610  45.9184504  86.7408085
  71.4528322  45.8906746  85.9957409  70.3190565  46.6986656  86.5896034
 113.3946609 104.9312878  22.6411057 113.6170864 104.1727829  22.1012735
 114.2388344 105.2647495  22.9450870  62.8683615  14.4452262  70.5716467
  62.8901768  14.5442820  71.5234566  62.2858000  13.7006867  70.4216146
  14.7529995  81.6453075   4.8218203  15.4209924  81.6410160   4.1362563
  14.8050475  80.7729721   5.2124047   6.8157089 108.8938713  16.2544274
   6.7556387 108.2416630  16.9524586   6.8533283 108.3791351  15.4482841
  72.3087358  19.6673334  74.9740124  72.7805424  19.6736014  75.8068323
  71.5741825  20.2657247  75.1103640  -0.0662746  96.3367558  23.1769609
   0.7811223  96.0402203  23.5089445  -0.7090320  95.8410454  23.6842728
  97.4514675  35.8423805  88.7539005  98.1572819  35.7392764  88.1155872
  97.0729160  36.6990066  88.5561085  19.2005479 101.8591404  12.2160614
  19.9678040 102.4310112  12.2387218  19.1564894 101.4825344  13.0949557
  99.8943329  83.3678341  14.9514973 100.4932022  83.6213017  14.2491126
  99.2054558  82.8702164  14.5109785  58.1989241  10.5805993  11.0745478
  58.6512899  10.6666517  11.9137096  57.8504372   9.6891117  11.0806251
  75.3538036  52.3371267  88.5714912  76.1773014  52.0545626  88.9692783
  75.0149345  53.0030870  89.1697407 103.3305931  74.9552202   4.2299169
 104.0944004  74.3803644   4.1811121 103.6978054  75.8333111   4.3316203
  23.7556171 108.8622475  19.5874703  23.7284207 109.5398426  20.2630162
  24.0735030 108.0826378  20.0428700  94.7961426  48.2549572  90.4800606
  94.5436001  48.4582376  89.5794392  95.0224304  47.3250771  90.4612827
 116.5507030  93.0703735  35.2737403 115.9097195  93.1514740  35.9799862
 116.2152863  93.6376572  34.5795441  57.3083973  18.2489228  15.7010758
  58.0058289  18.9026415  15.7507789  57.1325111  18.0165446  16.6128314
   2.9594630  41.1811686  66.8552113   2.6786214  40.6894541  66.0834742
   2.1461150  41.3931131  67.3132277 109.9974246  62.2721660  94.4397302
 109.2048736  62.5774271  94.8812225 110.2501245  61.4833653  94.9194866
  70.4205322  12.3915339  21.6810465  69.8727989  11.6695559  21.3728809
  70.9644651  12.0037889  22.3666286 114.3720913  58.8742685  78.9534426
 115.1366329  59.2765331  78.5412598 113.6252594  59.2312574  78.4727859
  95.7573223  49.9462271  82.1097279  95.0887489  49.3064833  81.8648624
  95.9538460  49.7487068  83.0254745  33.7120581   4.5563415  14.1726100
  34.1956663   4.4584036  14.9928319  33.6331439   3.6648312  13.8331783
  44.9489260  20.5771685  24.1796446  44.1356039  20.7738209  24.6444774
  45.6324768  20.9889817  24.7082257 114.0892315  52.4079657   4.7000772
 113.4301186  52.7392292   4.0900993 114.3143749  53.1634951   5.2429575
  70.3372526   2.6402023   4.1636521  71.0734224   3.2314131   4.3209884
  70.6514215   1.7839339   4.4540530  16.4636457  96.6569328  12.2446561
  16.2596786  97.5860500  12.3513365  17.2442627  96.6451454  11.6908252
  24.7553301   2.7669165  15.4701102  24.0200901   2.1581244  15.5410004
  24.8189020   3.1676733  16.3370490  28.7520218   9.9642026   1.3008045
  28.0495477  10.2351058   1.8918818  29.5570040  10.2060378   1.7587911
  96.6412926 104.4791222   2.0836262  96.4580727 104.2885590   3.0035955
  96.5717316 105.4315281   2.0178497 105.6600857  61.8267775  89.1703796
 105.3871822  62.0473289  88.2798100 105.0117302  62.2518682  89.7317696
  17.3230708  91.9983959   3.1055120  16.4720476  91.5710545   3.0087397
  17.1128094  92.8927994   3.3739623  14.6875548 109.6070385  16.0135162
  14.2905450 108.8817787  16.4958107  14.2309618 109.6136665  15.1722622
  45.8462143  90.9357357  11.2672269  46.3332367  90.1294136  11.4371443
  45.2423811  91.0110569  12.0061064  94.8461914 102.3068619  10.4704094
  95.0185299 103.2472801  10.5166650  95.5033112 101.9143772  11.0452044
   5.1291227  47.5682449  12.6327169   4.7306642  46.7207241  12.8306425
   6.0156387  47.3540878  12.3420990  94.8951721  93.2313156   6.4105475
  94.2007256  93.1262302   5.7602084  94.7610092  94.1105938   6.7642480
  86.7871952  42.1091843  86.3638210  86.8708897  43.0613756  86.4143848
  87.5210953  41.7764664  86.8804550  78.9053583  42.3887539  83.9570904
  79.0051746  42.9130459  84.7516823  79.2863178  42.9285955  83.2645035
 103.0736446  99.7636890   8.3909237 102.7719021  99.4577408   7.5356001
 102.3498249 100.2936935   8.7247235  85.7852745  55.7411432  84.8696995
  86.6630840  55.4728937  85.1412201  85.9056282  56.0994911  83.9903069
  81.9056034  24.7686744  90.5978775  81.7267227  23.8416243  90.7553959
  82.4388123  25.0400472  91.3450527 111.9579601  23.2252049  63.9904070
 111.6284180  22.3283648  64.0479088 112.2553062  23.3135200  63.0848598
 111.5592194  90.1959610  22.1014786 111.3646889  90.3191662  21.1723876
 112.5097275  90.2914143  22.1618819  22.1173954 106.4367676  39.8380208
  21.8634343 107.0513535  39.1495323  21.3820553 105.8269119  39.8978567
  87.3065376  66.6904306  93.2351875  87.0969296  67.1266508  94.0610218
  87.4442863  67.4060249  92.6145458  40.9165812   8.7250322  14.8922169
  40.7366562   8.1622803  15.6453240  41.3364220   9.4994247  15.2667582
  48.0302048  15.8165979   7.5535852  48.0683756  16.7472112   7.3328257
  47.5136900  15.7824254   8.3587390  28.3796906  88.7474823  23.4424949
  28.8988090  88.4518337  24.1903853  27.4926996  88.8430595  23.7894034
  88.7615681  64.2007923  72.5419998  89.1738605  64.9935293  72.8852367
  89.1031170  64.1195202  71.6515112   5.7915962  67.8798485   0.8174127
   6.3090092  68.2117271   0.0836736   4.9136859  68.2316208   0.6699017
  42.8974438  14.8233783  30.0250506  42.7626753  15.2430701  29.1753864
  43.1401968  13.9224672  29.8113656  97.1486664  12.1368301  75.6858206
  97.9167080  12.5942302  75.3435802  96.5443802  12.0957041  74.9446201
  85.1072693  40.0598335  92.7558899  85.2303886  40.3918552  93.6451817
  85.9874916  39.8209167  92.4654293  28.8387370  98.4858322   1.6252522
  28.1016850  97.9577827   1.9320899  29.5084906  97.8455639   1.3850117
   4.3625712   9.5309776   8.8398653   4.5461449   9.8248804   9.7321403
   3.9757186   8.6622214   8.9486712   6.2028831  72.1464634   9.0540886
   6.8703431  72.0659781   9.7354484   5.7350963  72.9528809   9.2711151
  50.1741886  18.3900893   6.0658509  50.1616287  19.1137064   5.4393905
  50.8635664  18.6234701   6.6875631  31.1949539  15.6624103  14.5621121
  31.7298651  16.3500440  14.9586761  31.5154743  14.8517048  14.9574053
  18.4918892  82.6348114  11.2684011  19.0716422  82.6057529  10.5072999
  18.1981289  81.7307186  11.3803756  77.5666285  54.0477324  90.3798962
  77.2659445  53.1938887  90.0688076  76.7643356  54.5571756  90.4940510
  83.4116745  96.5792942  23.6468005  83.5621738  96.5493298  24.5916200
  83.4569550  97.5096798  23.4264469  57.8734064   1.3281770  25.1704431
  57.9138136   2.2734854  25.0255585  57.8683424   0.9510327  24.2906880
  37.2268224  13.0805290  37.1034884  37.0964122  13.3579123  36.1966896
  38.0836940  13.4346473  37.3414063  26.6428804  95.4834270  13.3253992
  26.4859343  95.7040024  14.2435181  25.7745242  95.2850533  12.9749119
  75.4120159   3.7730277  79.4420767  75.4352903   2.8167972  79.4783258
  76.2630033   4.0197635  79.0798903  28.5584784  81.1538124  13.2640409
  28.9399862  80.4130936  12.7928650  29.3108773  81.6151524  13.6345732
 113.4216118 109.1390896  22.5289464 113.9534664 108.5752964  23.0906367
 112.8131485 108.5403442  22.0959234  98.7197495  45.1018381  89.3755245
  99.6138859  45.2899170  89.0902615  98.1835651  45.7590103  88.9318275
  17.3802602  95.8265972  21.0604692  16.6283500  96.2021923  21.5185022
  17.2801280  96.1200905  20.1548934 107.5047779  35.3504229  78.9232969
 107.9845428  36.0560942  79.3569851 107.4889565  34.6412873  79.5660353
  16.3602960  89.5696354   5.2081287  15.6386590  89.9042416   5.7405823
  16.1001885  89.7582912   4.3064722  19.8892558 101.4501476   1.1550287
  19.8651433 101.1040497   2.0471442  20.8216190 101.5425682   0.9590971
  22.7213383 106.5172291   5.7983232  22.8173065 106.4181805   4.8511103
  22.5420284 105.6318283   6.1147749  97.2707176 108.5223675  15.5670416
  97.0319843 109.3806076  15.9172869  98.0163288 108.6970139  14.9927652
   6.4386159 107.6197624  26.7888188   6.5153617 107.0328140  27.5410366
   5.5289865 107.5280476  26.5052795   8.4351677 100.2301311   0.7655102
   8.3213454 100.8127594   0.0146325   7.6794779  99.6436787   0.7303363
  16.3021457  84.1033173  10.6986725  16.4106977  84.7609520  10.0116742
  17.1087205  83.5888386  10.6673431   9.7247761   2.3251434  13.5914171
   9.0535575   1.6533387  13.7113154   9.4815767   3.0188149  14.2045283
  14.0993130  11.8807900  36.3756251  14.9357486  12.1718919  36.7387605
  14.0469408  10.9537244  36.6080856  55.9197950  11.6497397  43.8416338
  55.8491468  12.5038207  43.4152699  55.7327986  11.0188246  43.1465006
   3.2231316  78.9108133   9.0980589   4.1277540  79.1727448   8.9269447
   3.2992327  78.0850887   9.5762038  43.6904240  28.4729981   6.0356122
  44.4721222  28.9549088   5.7655430  43.7116528  27.6705933   5.5141437
  77.1634340  54.5089436  86.6611195  77.1114540  55.4418898  86.8688202
  78.1014252  54.3305254  86.5934658  18.2238221 102.4469280  22.1475911
  17.6198852 103.0967808  21.7881727  18.6290562 102.0455742  21.3788676
  74.2540264  33.1771302  88.7291908  73.3319044  33.0955720  88.9726543
  74.6639156  32.3839569  89.0742970   5.9185755 107.7756405  30.1109838
   5.1878732 107.5322533  29.5425916   5.8109248 107.2267628  30.8877563
  13.6571300 104.2143440   4.6664488  13.4808517 104.5768356   5.5346417
  12.9744923 103.5555935   4.5388216  26.7852831  97.0869064   2.4712688
  26.1038637  96.4148140   2.4572279  26.8763590  97.3163605   3.3960861
  16.0627508  79.3065882  18.7704861  15.3508425  78.7179899  18.5195589
  16.0849857  79.2616940  19.7263741 108.7276554  96.6130733  40.7420063
 108.9649296  97.5310993  40.6109905 108.1894875  96.3938904  39.9813700
   2.8454158  99.6800900  18.6680841   1.9556323  99.4184589  18.4312999
   3.3345702  99.6363831  17.8464699  86.0780716  68.3073092  18.4731174
  86.1242104  68.9507198  19.1803133  85.1527691  68.2855892  18.2290566
  20.7850599  71.3461828   9.8674804  21.5440583  71.4768934  10.4358721
  20.9344530  71.9364452   9.1288972  15.6233668  53.4828949  81.9669342
  15.2259731  53.1067657  81.1815453  16.5533137  53.2693529  81.8905640
  18.2819581  84.0652275  23.0612946  18.8380075  83.3506489  23.3718038
  18.4705424  84.1258717  22.1248174 111.6358662  38.0037713  93.9746952
 110.9360981  37.7907228  93.3573151 112.3260117  38.3853054  93.4321404
  74.0807915  90.2752686  12.8964114  74.0721560  89.3312073  12.7386022
  74.1171408  90.3585052  13.8492930  49.3317556   2.3210099  36.7219996
  49.5529175   2.5226253  37.6312137  48.4842348   1.8791452  36.7739868
  10.5106223  82.6384640   0.8340071  10.8362186  82.5471115   1.7294809
  11.2357914  83.0399323   0.3552692  87.7299309  52.6247740  87.9592037
  87.7974510  53.0979204  87.1298695  87.9190159  51.7144394  87.7316856
 109.8747444  75.1684237  94.6689892 110.6663799  74.8164129  94.2620087
 109.9637508  74.9479151  95.5961800  51.7444706  85.3394222   6.3484663
  51.8274117  86.0267925   5.6875026  51.7265320  84.5248985   5.8460093
  93.6179829  23.8853288  28.4566593  94.5732117  23.8632607  28.3995080
  93.3425808  24.3693781  27.6781440  53.1915760 100.3010845  37.9128051
  52.6580143  99.5800209  37.5787091  52.8614998 100.4529667  38.7983632
  49.7916889  21.1864948  11.8779111  49.3410158  20.5981040  12.4836528
  49.1616869  21.3320851  11.1721277  14.9472010  85.8973312  14.5331955
  14.6235597  85.2502537  15.1599181  15.8638120  86.0282612  14.7759140
  52.2660685  22.2714162  12.4742007  51.3977194  21.8741918  12.5406408
  52.8138494  21.5868497  12.0900941  92.7301693  72.0609188  80.9091377
  92.9514980  71.5472889  81.6859436  92.5676250  72.9429579  81.2435341
 112.7236271  65.7809687  17.3229492 113.3310986  66.4968109  17.1364677
 112.6390934  65.3156424  16.4907479  79.5365477  56.0230637  89.1011238
  79.3404245  56.6154718  88.3753014  78.6878586  55.6533003  89.3445110
 112.1767044  37.6958489  90.4073048 111.6662693  38.0339813  91.1430740
 112.0135689  36.7526937  90.4159737 114.7352791  75.4215908  35.1956868
 115.2070904  76.1432886  35.6113672 114.4539833  74.8681736  35.9242678
  24.0697527 104.6311665   1.7821065  24.1782260 104.0619183   2.5439584
  23.5522342 104.1117668   1.1667748   5.6101757  95.3276062   5.0419772
   5.0116616  94.7121334   4.6186453   5.8081299  94.9257660   5.8878917
  39.3374038   6.1377740  22.6304007  39.8989010   5.5792159  22.0928454
  38.4463978   5.8928472  22.3806977  91.3188744  33.6296391  79.9495459
  90.5276489  33.9980650  80.3425598  91.9954014  33.7492824  80.6160545
  55.6210423  43.1719398  86.7682552  56.0362148  43.6862087  87.4606323
  54.6837616  43.2358122  86.9517136 104.1932964  40.9989023  94.2406368
 104.6279430  41.8402386  94.1010952 103.7007618  41.1155987  95.0530529
 106.9377232  71.4647245  83.2715321 107.3310375  71.8142033  82.4719048
 106.6537952  70.5822945  83.0329227  93.9618587  16.9640696  87.9679775
  94.7494698  17.4820900  88.1339741  93.4834290  16.9833112  88.7968063
  91.3973713  55.3700256  88.0017090  91.3691330  54.9367285  87.1486664
  91.5192604  56.2968063  87.7956867  72.3355341  39.0144396  87.1912479
  72.1281672  38.3350563  86.5496349  72.2753096  39.8339343  86.7002964
  94.1931820  60.7249784  93.7069798  94.6921635  60.2657175  93.0314636
  93.8178349  60.0269127  94.2436886  36.0866213  95.2704906   9.6302825
  35.5106854  95.2300167   8.8668090  35.6111312  94.7989845  10.3142571
  30.6537867  97.7461720  10.2329957  31.5473795  97.4714470  10.4385507
  30.7623672  98.5137653   9.6715373 102.0175648  32.1709776  84.9210167
 102.8461075  32.1583295  84.4418621 101.3473129  32.2180319  84.2392635
 110.0253677 106.3158321  25.9217191 109.7907543 106.7637730  25.1089835
 110.7691669 105.7622337  25.6839728  31.7458272  23.1902289  39.8071551
  32.0184875  23.3654356  40.7078171  30.7947302  23.2974219  39.8196840
  51.5706253  29.2663646  28.7220025  51.1823940  29.5894432  29.5350981
  51.8414879  28.3710384  28.9251256  50.2453041   8.9696860  12.6797295
  49.4779587   9.4112825  12.3158586  50.9652615   9.2270160  12.1038139
  62.7068901  22.6700902  17.0716786  62.7540970  22.1886563  17.8976488
  63.6206770  22.8075576  16.8220115  55.9502125   1.1004696  15.6528330
  55.6607485   1.7307067  14.9931014  55.1451635   0.6732567  15.9454429
 103.1814003  80.7117081  58.0825329 102.2732353  80.6894207  58.3841372
 103.6621380  81.1237717  58.8003969  23.7763262  86.3766479   1.1930038
  23.1615233  86.1061382   1.8749686  23.3202529  87.0743465   0.7224201
  67.8908730  79.9426031  86.7554760  67.4214363  79.2177534  87.1683311
  68.1360197  80.5144501  87.4828911  26.2896831   0.2201737  23.2952833
  26.2044056   1.1672963  23.1861091  26.6976173  -0.0788318  22.4826241
 105.4378414  36.8023944  75.6501627 105.6504154  37.3511934  74.8952723
 104.5162392  36.9885540  75.8296824  84.4171524   9.4989139   6.4305246
  85.2111721   9.9138457   6.0934818  83.8642216   9.3775219   5.6586695
 102.1834850  87.7883911  26.7994142 102.6170826  87.1280384  26.2588930
 102.8987789  88.2325935  27.2546792 100.1673031  74.9672127  67.6401901
 100.9240437  74.9531031  68.2261705  99.9809742  75.8973026  67.5119686
 111.4120102  54.0100050  76.1385679 111.5633392  53.1344795  75.7825041
 112.1223450  54.1390467  76.7670536  20.3130102  86.3701439   7.8142500
  20.7012224  86.2620354   8.6824876  21.0552931  86.3195992   7.2120094
  20.1354051 106.0303879   8.3033860  19.2594719 105.9601784   8.6829174
  20.1699066 105.3319645   7.6497471  30.8254457   4.0750346  12.5222278
  30.5018497   4.7251236  11.8986082  31.1444259   3.3568612  11.9756830
  88.3470058  26.4791799  12.9833817  88.4042168  27.3807287  12.6668894
  87.9194736  26.5515876  13.8367331 103.6231613  56.7061520  75.9478140
 103.6288929  57.1890306  75.1213598 103.4963131  55.7928848  75.6907368
  59.3748808  39.4977093   4.7178608  58.7083817  38.9769506   4.2697281
  59.2803907  40.3760433   4.3493074  15.1793790  81.8271923  71.5370703
  14.3178546  82.2144890  71.6920328  15.7356489  82.5684547  71.2976360
   3.7772250  53.8017321  75.5020618   3.2679239  53.0481911  75.2037001
   3.1672254  54.3045568  76.0417795  89.7390556  85.9827232  84.0869904
  89.5734501  86.7270756  83.5084152  89.9979305  86.3789940  84.9189663
  41.0829496  94.7424603   2.5502330  41.1447191  94.1016197   3.2585728
  40.6157351  94.2835426   1.8521354  53.4687662  18.0031633   4.6992451
  53.2607603  18.9233828   4.5375067  54.3552017  18.0178308   5.0601488
  27.2943425 104.3409729  10.6545687  27.2653794 103.4727859  11.0566175
  28.1032276 104.7313309  10.9855568  30.5605984   5.7692844  44.7742510
  29.7906208   5.7908249  45.3424978  31.2367201   5.3456050  45.3030109
  39.6296787  17.1143568  26.7697096  39.3297839  17.9123056  27.2051096
  39.9189115  17.4072742  25.9055471  19.3944848  87.3161602  50.9854698
  19.8294246  88.0873680  51.3491821  18.8205242  87.6643658  50.3031540
  39.4797444  23.3576584  34.5785928  40.3081226  23.6334848  34.9709415
  39.7367907  22.8340125  33.8196778  20.2644372  45.3402901  68.1764030
  21.0135341  45.0239563  67.6714087  20.4450202  46.2698841  68.3159542
  36.6538000  94.5252800  21.6779971  35.9349895  94.7991467  21.1083150
  36.2550640  93.8995457  22.2827315  22.4514079 106.6121864  21.8749833
  22.3590946 105.6764317  21.6959071  22.4254394 106.6770554  22.8296304
  27.0231938 103.9411640   7.7135885  27.2498035 104.3010902   8.5711014
  26.2159038 103.4498882   7.8657776  47.7091837   1.2401022  26.6358542
  48.4937239   1.4350668  26.1232924  47.7414846   1.8568441  27.3671675
  65.8084917  15.9076989  18.0834651  66.0200596  15.9407532  17.1505249
  64.8569632  15.8070338  18.1098545 109.7670841  48.1650972  71.9864655
 110.0197411  49.0272808  71.6562510 110.4174042  47.9666662  72.6602173
  75.7148314  17.7169669  39.9676585  76.4137411  18.0845356  39.4266844
  74.9073410  17.9710543  39.5208597  28.4514618  93.8881874  46.4237928
  27.4946761  93.8892937  46.3957071  28.7167382  94.2104435  45.5623913
  61.3060379   5.1000017  21.0331059  62.1274090   5.0677907  20.5426502
  61.4108801   4.4410408  21.7194080  97.4464893  68.0756140  73.9845848
  98.2991791  67.9500675  73.5681677  97.4354172  68.9997196  74.2338562
  65.0767756  28.4887481  25.2411985  65.5427408  27.6684046  25.4028893
  64.2544794  28.2203507  24.8312926  44.0736771  61.1904621   5.6261778
  44.9026155  60.7313633   5.7615173  44.2991304  62.1179819   5.6976533
  35.7269311  15.1070201   9.2698151  36.0942483  14.4107819   9.8143911
  36.0720873  14.9334073   8.3940542  32.4585557  10.2704179  33.4169364
  31.9370818  10.5851293  34.1553497  32.0705938   9.4245023  33.1930065
  22.0683789 106.3073254  13.9223099  21.4202905 106.5990162  13.2811165
  21.8959570 106.8419456  14.6973467  33.1778049  99.4277859   2.6694426
  33.8194036 100.0350571   3.0379578  33.5823154  99.1135979   1.8608095
  81.8214226  89.3975067  85.8847237  81.6546154  90.1819420  85.3621578
  82.6744652  89.5559692  86.2890148   6.6382372 101.0138512  14.5639443
   7.3375207 101.0181522  15.2175605   6.5039313 100.0876713  14.3629718
  86.5459156  75.5009127  83.8083649  86.7697525  76.1298323  83.1223679
  87.2472858  74.8503733  83.7749958  71.8472767  19.1401219  10.8863139
  71.9061327  19.0096819   9.9398714  72.5950289  18.6594141  11.2413001
  60.3088999  38.6072445  22.6158738  59.6151972  38.2026744  23.1367683
  60.4631615  39.4525242  23.0377007  42.4277544  17.4597752  12.5774336
  42.3945236  18.1440365  11.9089162  42.6198244  17.9278922  13.3899653
   5.3791571 100.5035973   1.8888724   5.3671974 100.5991268   2.8412181
   5.1216483 101.3643074   1.5585648   6.8062764  40.1091385  60.5948019
   5.9318626  39.9433970  60.2424335   7.0030904  39.3344378  61.1214256
 108.7993145  56.4596748  93.4538746 108.1868553  56.0541868  94.0676308
 108.2968521  56.5602541  92.6453876  62.4560213   5.8525050   8.5572422
  61.9843149   5.9123582   7.7264929  62.7798843   6.7396396   8.7132329
  60.8868790   8.9244556   2.8795606  60.3581810   8.7883317   3.6658055
  60.2844191   8.7594146   2.1542805 110.3320122  83.2370281  72.0481873
 110.6990147  83.5191345  71.2103605 109.4125462  83.5000324  72.0076084
  40.5895138   1.7310314   1.1885198  41.3160419   1.4822876   0.6171022
  40.0063610   0.9720421   1.1786795   5.0093943 108.4755993  12.0410323
   4.7546595 108.3867741  11.1226344   5.1196659 109.4177818  12.1689558
   8.0976063  98.0801964  25.8970261   7.1408039  98.0620575  25.9178162
   8.3263642  98.9680386  26.1720228  92.3793221  21.9295526  11.4582407
  91.8900681  21.2026286  11.8435192  91.7171383  22.4488688  11.0021126
  96.4031029  52.5048208  82.2002220  97.3429585  52.5838852  82.0369434
  96.2204552  51.5705061  82.1005917 108.1398010  81.6037941  78.4554625
 108.4169579  80.9915733  79.1370726 108.9552593  81.9847965  78.1297398
 112.5195503  63.0752850  94.3305874 112.6600456  62.2711992  93.8306522
 111.5707493  63.1213713  94.4484234  19.7347760  17.9189861  22.8831816
  19.7393346  17.0411766  22.5015259  18.9540625  17.9354191  23.4367609
  43.1289053  17.4054158  41.9650984  42.4815464  17.1236742  42.6114607
  43.8153934  16.7397261  42.0077801 104.6502686  75.2777338  75.1660395
 105.4908466  75.6737709  74.9362564 104.0977669  76.0176754  75.4179573
  97.9148102  78.7120104  71.7179585  98.4745693  79.4217348  72.0329046
  97.0271873  79.0667343  71.7682600  73.0518579   2.9216847  18.5761535
  73.5397816   3.7378874  18.6855865  73.3117151   2.6012605  17.7124214
 108.9511395 102.3051929  69.3028736 108.2230854 101.9782257  68.7744236
 108.8602734 101.8530560  70.1416492  47.4104357 108.7827587  17.2970939
  47.0018530 109.6026516  17.0194793  46.6746521 108.1992531  17.4825084
   9.8716760  37.0818639  90.1478481  10.1622975  36.3671970  90.7144356
   9.3618602  37.6517987  90.7236004  21.6199040  93.7809181   8.1055009
  20.7201481  94.1039371   8.1537956  21.7238855  93.2434082   8.8906759
  24.6269226 102.8616810  20.3851414  24.7568321 103.7150955  19.9715793
  23.8579416 102.9802704  20.9426689  30.5639839  81.6342735   7.7492470
  30.6093121  81.9677544   6.8531621  29.6629238  81.8053818   8.0231929
  43.3390665  32.8295970   6.4096886  43.0437708  33.5727096   6.9358200
  43.1017971  32.0602441   6.9274074  54.1427040   3.9857554   4.4525486
  53.4818697   3.8618627   5.1338553  54.4249344   3.0989650   4.2285371
  28.1921530  83.6381721  23.6755347  28.2797480  82.9445267  24.3293071
  27.9491329  84.4140816  24.1806483  87.0097828  32.4834037  91.1857700
  86.6834831  33.3832717  91.1875629  86.2381935  31.9492316  90.9972286
  92.1902370  45.2251291  26.0250497  92.5437450  44.4212389  26.4058638
  92.4916267  45.9200716  26.6102433 105.7827568  54.4409513  85.6161880
 106.1267471  54.4880867  86.5081978 105.9218693  53.5310459  85.3536034
  67.2199345  22.2374153  11.3963377  66.9167233  21.4462185  10.9510231
  68.0650806  22.4314404  10.9909844  43.2271528  51.9546270   4.0726677
  43.9912701  51.8355370   4.6367377  43.0680132  51.0879421   3.6988261
  55.0317812  25.9839439  27.9719019  54.7754288  26.1981821  28.8689089
  55.9118032  26.3492441  27.8805685 103.6383247  97.3643875  26.9473124
 104.0917110  97.8417587  27.6421356 104.1649818  97.5238895  26.1641049
  87.8964040  96.4634787   0.6760371  87.2837827  96.4797960  -0.0592553
  88.7570998  96.3664661   0.2685798  38.9364934  48.7231588  41.8257856
  38.4014559  49.2340565  41.2183714  39.7248864  49.2509460  41.9526958
   7.2690922  82.8018475  86.3700199   7.7462900  82.3806000  85.6551361
   6.7014772  83.4390259  85.9363651  62.1550894   9.7714353  22.6154828
  62.7308607   9.9701583  23.3538747  62.6321173   9.1131312  22.1101952
  24.9653554  93.9354610  36.4147782  25.0214982  93.8228989  37.3636794
  25.1957726  94.8529053  36.2683654  68.0986881  46.7734957   3.2088372
  67.5366163  46.9891500   2.4646565  68.9413929  47.1748495   2.9967326
  41.8550110  96.5890121   6.9701159  41.5689659  97.4530220   7.2665930
  41.8955708  96.6642380   6.0167390  50.0193357   0.5210945  17.4358344
  49.1710186   0.6072704  17.8707612  50.6607437   0.6819326  18.1279004
  66.2117195  95.3841972  82.0346642  66.1310768  96.3164043  82.2364426
  65.8361435  94.9410915  82.7954674  27.8122091  85.9208965  33.0839562
  27.5997186  86.8527317  33.1365633  27.6365256  85.6862450  32.1727443
 112.6385021  85.3549480  67.4267006 111.8263149  85.8467102  67.3052502
 113.3150959  86.0268593  67.5103712  88.9287090  63.6259365  94.9737072
  89.6218300  64.0609312  95.4702950  89.1136837  63.8463449  94.0607738
  30.7872820 105.4678059  14.7459173  31.2809038 104.9312115  14.1257262
  30.1481652 105.9319973  14.2052782  72.2742367  42.7372026  89.6709442
  72.4910784  42.6868200  88.7399864  71.4826107  43.2743120  89.7037506
  99.4694042  78.0875397  85.6709480  99.9036026  77.2710657  85.4238129
 100.0660324  78.4957123  86.2983704  32.1317625  14.6526587   9.5511955
  32.0517087  15.1989150  10.3331327  33.0707908  14.4851708   9.4711435
  57.4497561  23.9889502   0.7511771  56.8218283  23.4934115   0.2254546
  56.9899706  24.1628575   1.5725101  79.1114044  13.9795291   2.8566292
  78.2936239  13.9998353   2.3595828  79.5439291  14.8054993   2.6399985
  68.6737728  49.7022963   6.5252054  68.0941725  49.2332458   7.1254432
  69.3572235  49.0683651   6.3078284  44.0987349  15.9752131   4.1072837
  43.9137983  15.9955478   5.0462282  44.9197054  15.4883182   4.0353584
  56.4494419  14.2305410   0.7916749  56.0698843  14.7085464   1.5290204
  55.8405352  14.3823504   0.0688899  36.8363309  85.8037758   7.1454167
  36.9945431  84.8825645   7.3517281  37.5483751  86.0419750   6.5517080
  82.0883942 107.8351974  92.3468113  82.4973297 108.5377502  92.8522015
  81.7534351 107.2287273  93.0072880  53.8880877  11.4545273   0.1806415
  54.0877585  10.6942486  -0.3655659  52.9798274  11.3223385   0.4523338
  60.4576349   2.2097856   2.4566631  60.8853149   2.7231750   1.7712784
  61.1406565   1.6197759   2.7754188  27.8408670  93.3211040  37.2665024
  27.1645403  92.7219486  37.5824642  28.3209467  93.5771275  38.0540347
  32.3658180  47.7643919   5.5242568  31.5514731  47.2842312   5.3741896
  32.4704051  47.7671146   6.4757222  21.5980744  34.4949412  75.8261061
  21.4825511  33.6727548  76.3024378  21.4929008  34.2551589  74.9054146
  79.4347668  98.3334064  69.8271179  79.3470907  97.4851894  70.2619505
  78.7004852  98.3652210  69.2138863  59.7363853  15.5870545  23.2597208
  60.6479406  15.4832053  23.5326958  59.6563196  15.0393021  22.4788332
  66.7427969  83.2542896  78.3573818  67.3515940  83.4217358  77.6379681
  66.7922592  82.3087502  78.4978390  39.9560213  38.4032083   9.5498049
  39.4481564  37.9431081   8.8815147  40.4804087  37.7188063   9.9655473
 108.3421898   7.7941591  11.7404807 109.0369415   7.9803526  11.1089158
 108.7803936   7.8135884  12.5912642  72.7938414  18.0935860  41.6736460
  71.9255829  17.7513444  41.4609623  73.0612421  17.6023471  42.4504423
  65.2918291  73.9910269  90.1400280  66.1191750  73.5177231  90.0522041
  65.3497791  74.6963120  89.4954777  51.8301010  22.1027470  18.9712942
  52.0224142  22.9512906  19.3703198  50.9964037  21.8385530  19.3603754
   6.5321374  98.2637119   0.6828504   5.8756375  98.8639832   1.0362774
   6.0979545  97.8442955  -0.0599896  20.0057006  87.9524422  29.2944837
  19.3214512  88.3777046  28.7775779  20.2088332  87.1519566  28.8105512
 102.2194862  65.8490133  80.8916950 101.8854809  65.7246685  81.7800713
 103.0420113  66.3242292  81.0093975  42.0473003  17.0905435  22.8380632
  42.4091864  16.2131965  22.7134275  42.2198057  17.2923636  23.7577057
  92.1947098  64.9894810  61.5125799  91.9473553  64.3398380  62.1706152
  91.5276527  64.9061537  60.8311653  76.8307877  18.1300235   2.5152078
  76.3110256  17.3622084   2.7529928  76.4495707  18.4312630   1.6904899
  89.5631409 103.8082600  60.0231409  89.4915009 104.2041969  59.1546154
  90.5026531 103.6751842  60.1489449  51.8824291 103.3566761  91.1916447
  51.8132925 103.5624695  92.1238995  52.8168535 103.4322453  90.9983349
  97.5640583  54.0320015  76.2717533  97.1647263  53.6800909  75.4761887
  98.4948158  54.1048145  76.0605192  86.2049866  49.4018888  91.9136620
  85.5183411  49.6321869  91.2877941  86.6876125  48.6924314  91.4894295
  56.7857716   0.4923333   1.5721045  57.4416825  -0.1415073   1.2818386
  56.4846847   0.1559342   2.4161519  25.9743524  88.4111404  36.0486984
  26.8893576  88.2127953  36.2478375  25.4737020  87.7998543  36.5889812
  74.7733164  54.6438074  90.5097961  74.4912148  54.9542665  91.3701820
  75.1042986  55.4265833  90.0694084  66.6683149  26.2940931   0.6562004
  66.7085457  26.8209672   1.4543346  66.7537022  26.9293547  -0.0547045
  53.7798166 108.9420414   7.2146446  54.1956043 109.4809914   6.5416729
  54.0931606 109.3078232   8.0418408 100.9347630  69.6895313  76.9350147
 100.9918404  70.3675413  77.6082802 100.0811100  69.8300028  76.5254068
  61.8071175  32.0187783  20.1751685  62.5896692  31.5189576  20.4076004
  62.1350622  32.8931046  19.9648321  97.4807549  93.0457211  57.8041553
  97.9217529  93.8952255  57.8143406  96.6605377  93.2072353  57.3378992
  68.9185047   9.4093204  23.3332324  69.8169136   9.7088724  23.1941032
  69.0127325   8.5740036  23.7910509  93.6766815  12.8554559  20.7699275
  94.4374943  13.4112442  20.6011510  93.3925724  13.0993736  21.6508484
  30.5232525  98.3748817  94.1583633  30.3497696  98.5890961  95.0750065
  29.7987747  97.8029919  93.9047813  70.9740067  45.6389141   2.0252293
  70.4749775  46.4332151   1.8347467  71.7893934  45.9557438   2.4138135
  79.3668509  85.2307987  94.3478489  79.8740292  85.6609344  93.6593914
  79.9352980  85.2593422  95.1174545   0.2176343  93.4314156  26.3611698
   0.8588086  93.4253597  25.6504774   0.4339371  94.2112923  26.8722701
  59.7934914   6.7534822  17.3523152  59.5798779   6.9356078  18.2674289
  59.2692137   5.9833354  17.1326816  92.1284294  63.8610077  75.3306675
  91.9716930  63.1271553  74.7364235  91.2583828  64.1012001  75.6493378
  18.5171521  78.5461378  10.7303548  18.2369685  77.6376867  10.8419275
  18.6046135  78.8811255  11.6227460  27.3377204 106.0857105   1.0225043
  27.9921198 105.3984070   0.8975923  27.6278615 106.7988777   0.4537925
 101.4062691  67.1998644  87.8538799 101.9377136  67.0642900  88.6383629
 101.1896801  68.1321049  87.8694725  84.5128822  20.2844334  90.9161377
  84.9151707  20.7671618  90.1940823  85.2173424  19.7339439  91.2580967
  32.4771905 107.3458481  20.1022053  31.7098689 107.8836536  19.9067092
  32.2686815 106.9252968  20.9364057  19.6560466  64.1059828  65.1501799
  20.0778055  64.0864849  64.2911291  19.1486204  64.9176168  65.1495075
  49.7147608   6.2986314   1.8451534  49.8467636   6.8852258   1.1003622
  49.0869379   6.7576128   2.4031913 114.2724133  31.9532824  85.9713554
 115.0322151  31.6226530  85.4921722 113.5370350  31.4385605  85.6389236
 104.0077877  85.7996845  62.8357029 104.5928097  85.1625919  63.2457018
 103.5613441  86.2219048  63.5696316  86.8038940  49.3396521  85.2084732
  87.5507736  49.4333267  85.7997704  87.1849918  49.0227604  84.3895912
  86.9309616  42.9604006  92.7109623  87.8593159  42.9178381  92.4816322
  86.8872738  42.6068830  93.5994148  30.4914737 105.6510639   3.8423651
  31.2689543 105.4458904   3.3230761  30.5547953 105.0767994   4.6055472
  87.7475834  82.7092648  85.1263618  87.7078819  82.3754692  86.0225964
  86.8366623  82.7151966  84.8324203  71.8130684   7.8350228  25.3924990
  72.6200581   7.3336065  25.5090594  71.9843578   8.6694258  25.8291507
 100.5693531  71.9125700  90.0235271  99.7932720  71.6282034  90.5063057
 100.7861137  72.7656841  90.3996086   9.2419577  97.6607609  11.7969275
   9.3815714  97.8221607  10.8638203   9.3206269  98.5236645  12.2036564
 108.5433960  39.0125012  94.1581154 109.4478512  39.0237975  93.8449478
 108.1273746  38.3066368  93.6632252  12.9002702  93.1665802   2.4728815
  12.5388896  93.2579327   1.5912406  13.4250438  93.9569950   2.5997168
  50.9296227  49.2231655  13.6149657  51.1149454  48.2872820  13.6924863
  50.5458021  49.3199396  12.7434456  44.1125917  34.2537808   1.8568297
  43.2099056  33.9493704   1.9502246  44.4843769  34.1739392   2.7352566
 105.9823704  96.9689083  22.4616075 106.3666248  96.2585735  21.9477963
 106.5472698  97.7221107  22.2889686  61.6375113  10.0051332  13.1678843
  61.7799950   9.6823740  14.0576923  60.7347536   9.7594428  12.9656696
  11.6838837  94.7909355  30.1337194  11.6922140  94.5614052  29.2044830
  12.6075828  94.8099804  30.3840160  45.7741976  16.2196040  26.4656878
  46.4067173  16.2272418  25.7472920  45.1678467  15.5130827  26.2434363
  94.6801567  41.2146664  11.2128198  95.0511265  42.0970201  11.2049103
  94.2719460  41.1341906  12.0748615  97.7339077  78.5583401  67.4680233
  97.8335190  77.8789949  68.1349564  97.1474171  79.2012310  67.8667212
  11.0260165  85.4791832   2.4289472  10.1207995  85.7894611   2.4057369
  11.0754609  84.9437904   3.2208717  32.4581385   9.2617685  14.6252549
  32.8223944   8.3766532  14.6361589  31.6597128   9.1986638  15.1494384
  85.0473785  85.4479504  77.1407747  85.1004028  85.8214569  76.2610531
  84.1162205  85.4823780  77.3598623  17.7531707  78.2992268  72.6515818
  17.7996731  79.0649271  73.2241011  18.6522770  77.9729366  72.6144981
  55.7839012 101.8315411   1.9517606  55.9877205 102.6620483   2.3818192
  56.6365671 101.4759350   1.7012829   1.5451218  74.3988085  14.4519389
   2.1440552  73.6579657  14.5449817   1.0034861  74.3694353  15.2406073
  78.4325552  76.2995529  83.4048939  77.9908705  76.8491125  82.7574921
  79.3182993  76.6583443  83.4592915  81.4867397  66.6618669  94.6218988
  81.5207572  67.3556459  95.2804933  82.1023651  66.0007668  94.9384129
  63.8794994  21.1369205   8.0735481  64.7781849  21.4664483   8.0745405
  63.5651541  21.3011503   7.1844769  53.3445692   1.3391766   2.9109183
  52.9192591   0.6635714   2.3828089  53.7608147   1.9166754   2.2710225
  24.8167181  93.2853699  19.3764615  24.8267102  93.6989880  20.2396226
  25.0883746  93.9789677  18.7753391 103.3396149  60.5052042  91.0776901
 102.9605770  61.3705492  91.2317753 103.4745789  60.1434278  91.9535542
 104.2529297  90.8684254  72.2489119 103.9348698  91.1294651  73.1131601
 104.2506790  91.6780376  71.7382717  10.6245434  77.8762341  71.1821079
  11.3756979  78.1258631  70.6438875  10.9777856  77.2436953  71.8076849
  66.7820358   1.2811072   2.2877935  67.2466993   1.9223651   2.8254792
  67.4742699   0.7378463   1.9110878 106.2623978  69.9262857  75.2332067
 105.8107853  70.1652050  76.0426474 106.2890053  68.9695549  75.2472115
  41.6606045   4.6605632  77.9061890  41.8002987   5.0444716  77.0405531
  41.9918156   5.3192765  78.5166216  71.4162445 101.1405754  82.1850586
  70.4981852 101.4087391  82.1465492  71.4729548 100.3941345  81.5885353
  88.1412983 102.5565243  92.3643589  88.6681747 102.0519638  92.9840755
  88.2285881 102.0847321  91.5360928  76.3184547 106.3426685  84.0883827
  75.8821726 105.5022049  84.2281055  75.7875204 106.7804337  83.4230232
 106.0258961  84.6802807  94.6217537 106.6581821  84.5604229  93.9131737
 105.2236652  84.9615955  94.1818523  71.1869812  99.6291924  79.8770285
  71.1258268 100.0815201  79.0356636  71.8454838  98.9489651  79.7359562
  78.2444859   2.0269611  11.0245061  79.0737534   1.9896336  11.5011132
  77.5743294   2.0010906  11.7074823  98.2924271  36.0772061  69.6967030
  98.9232254  35.3694463  69.5647669  98.0770683  36.0355139  70.6284285
  15.0181746 108.3248806  40.5534267  15.7412207 108.8208485  40.9374094
  15.4138219 107.8534126  39.8203397  71.6846514  27.0878506  24.2133355
  71.1637068  27.8028750  23.8478422  71.0561085  26.3788915  24.3495178
  91.4502048  59.4986534  90.4151344  90.6058884  59.8542309  90.1377678
  91.6359043  59.9409580  91.2434483  33.4381437  18.5429275  89.9620628
  33.4164238  17.8936279  89.2590904  33.3335018  18.0311286  90.7641506
  95.6408405  83.7000561  66.3110876  96.3142872  83.1479836  66.7084694
  95.3556442  84.2772865  67.0194006  49.2441940   6.5981859  13.6206615
  49.5652342   7.4720311  13.3980453  49.9867153   6.0191733  13.4485018
  84.0426922  35.8029532   1.7127430  83.8772678  35.3109908   2.5170046
  84.9352169  36.1338043   1.8136486  34.1705656   6.5617454  45.6012678
  34.8655343   6.5870488  46.2589979  33.7319303   7.4085349  45.6835985
  20.6463242  99.4907856  21.2752318  20.1308417  99.6745491  22.0605612
  21.5555048  99.5963192  21.5553856  94.0080833  44.9363995   7.3997003
  93.2347870  45.4122353   7.0966649  94.6815109  45.1345778   6.7489666
  19.6658826  50.0181103  66.5595675  20.6094217  49.8689032  66.4987278
  19.4792950  49.9920607  67.4980450  82.1291256  58.1209803  21.6992593
  81.2803555  57.8117752  21.3827133  82.0664310  59.0752935  21.6594648
  74.7983217  76.7713547  93.1931496  75.3488398  77.1930885  92.5333691
  74.3242931  76.0933208  92.7116871  74.6373558  30.4023743  56.8256855
  74.9781561  30.9684944  57.5182152  75.2412367  30.5290532  56.0938978
  37.3247290  36.4694118   2.9694676  36.8315911  36.0382366   2.2715172
  37.9265356  37.0555353   2.5106451   4.2825907  99.9503136  87.9902077
   4.7740182  99.3115425  88.5066414   3.4239861  99.5465088  87.8638458
  62.2798347  77.9477549  48.8268661  61.7777395  78.1193590  48.0301952
  62.2752237  78.7814617  49.2971230  98.4546947  60.3781223  81.9591808
  97.8574657  59.8612595  81.4184380  99.1193485  59.7523975  82.2471714
  22.7189565 103.4221458  22.4579287  21.9566393 103.8540363  22.8433800
  23.3613849 103.3925056  23.1668997  79.2614651  26.4369798   4.2121366
  78.7866974  27.2208786   4.4884178  78.7864685  25.7130241   4.6201801
   1.0594332  76.2534618  55.7047176   1.7466164  76.5097713  55.0896454
   1.3688408  75.4288149  56.0794973  65.3289983   0.3542794  25.2836227
  64.4015357   0.3568543  25.5203438  65.5288765  -0.5652534  25.1082587
  38.0748200  86.8878365   9.2939198  38.6435413  87.4314594   8.7487024
  37.3730469  86.6099167   8.7052745  90.6724930  98.5931396  74.1510916
  91.3284779  98.6723137  74.8436546  90.0053978  98.0131149  74.5182276
  59.7768831  30.6812835  29.1581988  60.5109501  30.5869102  29.7652125
  58.9989138  30.6324506  29.7137260  97.2307873  82.6977539  72.3100662
  97.1271896  83.0529976  71.4272833  96.9364071  81.7897320  72.2389126
 104.1115665  77.4319267  58.5779572 103.9622021  77.7100134  59.4816113
 103.5513783  76.6635847  58.4681034  80.4391003  46.2261868   3.7545148
  79.5073748  46.1245251   3.5601550  80.8844948  45.8066130   3.0184302
 104.1851997  66.5100527  60.4535437 104.5489502  67.3055744  60.8422089
 103.2746410  66.7328215  60.2599001  64.6665859  34.0990901  14.3201947
  64.7955084  33.4799910  15.0387537  63.7760162  33.9282322  14.0137172
   1.9223560  17.1229959  35.1798081   0.9873571  16.9352210  35.2619648
   1.9795516  18.0775571  35.2219176  44.5904922  25.2218246   2.0649661
  43.8382816  25.2633882   1.4744718  44.3123817  25.7072425   2.8416613
  15.3827608  50.3692579  91.6179848  15.3602374  49.6119499  91.0330009
  16.3120735  50.5856991  91.6939163 101.1855221  71.8087626  78.8945723
 100.8586407  72.4996853  79.4707632 101.5976143  71.1788225  79.4858360
  18.8353491  16.8910170  74.4306898  19.5400107  16.3781905  74.8265362
  19.2020547  17.7703023  74.3378687 106.3942432  70.8739376  86.1909866
 106.4264107  71.1374044  85.2713203 105.7050991  70.2105570  86.2261200
  50.7041025  17.3510802   1.2323189  50.9701300  18.2088220   1.5635937
  50.3870153  17.5244653   0.3459647  49.2433262  15.8027506  90.0171566
  49.1335630  16.1722136  89.1409779  50.1107979  16.0974598  90.2944088
  99.6781826  74.3895435  71.3114834 100.0839710  75.1049566  70.8218384
  98.7594318  74.6456194  71.3924408 112.9772568  79.1991758  89.0754890
 112.8485203  78.3047104  89.3910694 113.2029724  79.6996450  89.8595905
  60.3432512  33.0250120  22.6724744  60.7361221  33.7929463  22.2575521
  60.5567122  32.2999358  22.0851684 108.9190769  96.8328762  94.1024208
 108.9477921  95.9542084  94.4810200 108.1723118  97.2531700  94.5289612
  71.0254530  32.5629735   0.7685245  71.9315295  32.8678918   0.7206405
  70.5191378  33.2467675   0.3300155  47.1858788   8.5839742  84.9209309
  47.0146322   7.7322984  84.5189857  46.3370466   8.8610989  85.2657700
  53.7685394  20.2346706  20.4545736  53.3244038  20.4272676  19.6288133
  54.1287756  19.3561399  20.3335500  59.9644089  21.8881178  20.6133556
  60.0104856  21.8807626  19.6572936  60.0124550  20.9651804  20.8625698
  36.4986515 105.3106403   2.4967088  36.9628310 104.9726486   3.2625616
  36.7595768 104.7291279   1.7825717 104.4333267  86.8540955  74.3915033
 103.6545086  87.4086666  74.4376230 104.3514347  86.3952065  73.5554743
  82.6040363  29.5023417  40.9848928  82.0752907  29.9131775  41.6689062
  82.2503567  29.8512816  40.1667356   3.8400543  88.9094639  91.8803024
   4.0992573  89.4479752  92.6280022   3.0690941  88.4311771  92.1854210
  47.2977638  50.6592894   3.0399901  46.8523359  51.5032387   3.1146932
  47.1217155  50.3740883   2.1433854  93.6796761  26.9443846  13.0515099
  93.1070709  26.1843038  12.9484165  94.3155289  26.8634129  12.3406148
 102.4440575  52.9716444  83.4828472 101.5193748  53.1239748  83.2879353
 102.4362469  52.3451185  84.2064762  95.0999737  68.9906359  76.1208248
  95.1977825  69.4923735  75.3115511  94.6555138  68.1866503  75.8519411
  39.9133778  46.0354614   3.8701284  39.1530943  45.5619287   3.5325378
  39.6040034  46.4377117   4.6817410   0.6523123  64.3601799  93.8928509
   0.9973964  65.1731539  93.5237694   1.0383062  63.6696672  93.3539295
   8.9091825  80.5503941  74.7852421   9.6346802  81.0545444  75.1536465
   9.3021870  80.0553894  74.0663958  85.8687973  86.0588169  84.2288399
  85.8967590  85.1247978  84.0213394  86.3738346  86.4746189  83.5300732
  85.6556988  47.8837156  17.1637738  86.4401436  48.4168720  17.2926915
  85.8546066  47.0554638  17.6004171 116.3092837 102.8938389  30.4369807
 115.5575646 103.4295464  30.1836729 116.3339235 102.9520702  31.3920879
  22.8530431  14.8635435  78.1627131  22.7107072  15.6744218  78.6510277
  22.4169946  15.0097990  77.3232508  60.1455641  35.9351325   9.0847176
  59.4748068  35.2648640   8.9541084  59.8780823  36.6559601   8.5145491
  27.5302958  37.2758985   9.9709934  27.1929383  36.6751266   9.3065417
  28.3952284  37.5287867   9.6482348 113.6315727  91.2968254  45.5125666
 113.3506966  90.6404591  46.1501646 113.6028671  90.8411598  44.6712732
 103.6139488  71.7912054  72.1760511 103.7338543  70.8452320  72.0924425
 103.7264442  71.9652224  73.1105566  70.3916597  17.3280013  21.7556930
  69.8084974  17.6924050  22.4215508  70.8238125  18.0911636  21.3722086
  97.4829197 100.3871822  75.3145313  97.5777531 101.0652828  74.6456432
  97.7044201 100.8275032  76.1350727  88.9445591   2.2157399  50.6202555
  89.4306946   2.0144610  49.8206329  88.0248165   2.1297267  50.3694534
   2.6489085 102.3295879  50.5420732   2.1295892 101.7223263  50.0150299
   2.3591869 103.1978703  50.2621078  75.7789469  34.1875601  21.4541006
  76.5468740  33.7799048  21.8545175  75.8222914  33.9277029  20.5338669
  65.9488344  51.2851667   6.5196693  66.4945030  51.9282961   6.9722897
  66.2590694  50.4388332   6.8417013 113.6708832  72.5335073  74.0612602
 113.5226536  73.3840895  74.4745016 114.6144390  72.5054216  73.9027166
  85.1041031  94.7459221  84.1256332  84.8332119  94.9781513  85.0138474
  84.2853355  94.6863651  83.6333847 115.2501011  97.7057171  94.5714569
 114.8985100  98.2413006  93.8602829 115.9366035  97.1811676  94.1594028
  83.7879467  47.6931429   2.9394126  83.3545303  47.7942514   2.0919694
  83.1578350  48.0360842   3.5731226  79.7354460  90.6638527  83.9541531
  79.2235231  90.4859638  83.1651592  80.6229496  90.8232498  83.6329556
 112.0052719  76.3769341  64.9141026 112.8608799  76.7794752  64.7653246
 112.1833611  75.6489563  65.5095625   3.4778714  92.6285648  76.6555738
   2.5486752  92.4661636  76.4929295   3.7684029  91.8703270  77.1624279
  76.2619925 102.8806782  66.0234785  77.0832443 102.4137878  66.1777449
  75.8225155 102.8796482  66.8738270  21.7870688 109.3974972  87.3787117
  21.1275744 109.3258953  86.6886616  21.8570590 108.5122013  87.7359104
  73.9048386  43.3763933   7.8611207  73.7645102  42.5358391   7.4252188
  74.5122433  43.1781244   8.5738474  35.1904488  82.5730801  17.9302776
  35.3060699  82.1110535  18.7605739  34.4829035  83.1953144  18.0989325
  61.8122053   8.9310014   9.4314605  61.4415836   8.2120347   9.9432802
  62.7484703   8.7366021   9.3884200  24.3555450  35.1903510  89.1090202
  24.9177170  34.4532657  88.8704777  23.4683704  34.8316002  89.0878391
  71.8067026  56.0738182   8.5070795  71.0642433  55.9372950   9.0955937
  71.9413233  57.0215034   8.5071981  68.1178236  10.7402205  18.9368081
  67.8091431  11.3978422  18.3135235  67.3280621  10.4584122  19.3984270
  65.4378939 107.8768730   2.4940477  66.1168623 108.3010769   3.0187276
  65.8630323 107.6916599   1.6566804  69.2354774  43.3539438  18.3988750
  68.4948015  43.0137634  18.9007807  69.4585133  44.1787863  18.8302946
  96.3251877  89.7400379  74.4545984  95.8276558  88.9231110  74.4908190
  96.6446304  89.8657417  75.3481293  58.5967827 106.7894173   4.4138768
  58.2170391 107.6665688   4.4652915  59.0668726 106.6830921   5.2408820
   6.3157529  75.5160284  75.2297592   5.4738164  75.5372667  74.7748709
   6.8148071  74.8353291  74.7782898  91.6795540  13.4078693  11.9827282
  90.7475281  13.2630169  12.1457267  91.8933392  14.1890883  12.4928534
  65.9089422  38.6863232   9.8409820  65.5453730  39.1434264   9.0826249
  65.9788990  39.3609667  10.5164027  78.7885141  44.3752575   9.4696552
  78.4725142  45.2768421   9.4103080  79.7211885  44.4608736   9.6672094
  64.9689579  31.1114955   1.9518246  65.7348728  30.8075047   2.4388519
  65.0167608  32.0661950   2.0018142 100.5131626  37.9349399  90.5284309
 100.0433445  38.5018778  91.1400509 100.0072765  37.9862237  89.7174549
  97.3967171  75.1800776  75.0390196  98.2869625  75.4646111  74.8323202
  96.9483089  75.9789228  75.3165340  13.2525909  91.4407921  68.9322710
  12.5517857  91.4651489  68.2807302  12.7973104  91.3683414  69.7711420
  88.5643959  95.1818562  86.6975594  89.2171955  95.1629066  87.3973560
  88.1737995  94.3080711  86.7106438  13.2514834 105.2102566  34.5186210
  13.2631660 105.5661106  33.6301041  12.3646355 105.3835392  34.8343849
  41.6702938 106.1542320  69.1506672  40.7954264 106.4084625  68.8570690
  41.9761992 106.9004822  69.6661901 109.5935631  79.5217896  90.4299068
 109.5273495  78.8059616  91.0619164 108.7632942  79.4987917  89.9541283
  30.7365084 103.2261562  79.8238230  30.8746123 104.0254307  80.3320694
  30.0560260 103.4586334  79.1920567  40.8921814   6.2958241  62.2840214
  40.1526403   6.1403131  62.8714943  40.6322861   7.0594931  61.7687559
  12.1404171  95.4884148  64.3548822  11.9800580  95.0215912  63.5347700
  11.4092112  95.2383804  64.9197340  51.8202734   5.0559700  68.4706068
  51.4668465   4.6985611  67.6560068  52.7470207   4.8169658  68.4548283
  83.6101341  77.9148865  14.2048633  83.6645699  78.8652563  14.1045511
  84.1489697  77.7238178  14.9725711  54.9346256  33.2789898  80.1995468
  54.6955824  33.1618094  81.1189842  55.3876305  32.4691176  79.9647570
  96.5999794  48.1041908   7.3309922  96.5931892  48.7661123   6.6395873
  97.1854210  48.4613514   7.9987651  75.3012753   2.7901053  53.2360268
  74.6327066   3.4145635  52.9544353  74.8090553   2.0068344  53.4818649
  52.6372766  76.5502357   1.2182909  53.4676743  76.7643881   1.6435063
  52.2634554  77.3990583   0.9816618  28.1687021  26.2147546  66.2210369
  28.3398962  26.5769291  67.0903778  28.4803534  26.8875313  65.6156635
  18.3891344 100.6383514  93.3036518  17.6062143 100.1313019  93.5185337
  19.0822053  99.9837875  93.2174110  94.3375492  81.8472481  16.3260448
  94.8845959  82.4837971  15.8658564  93.6803246  82.3776245  16.7765963
  87.6391697  78.1541157  65.8433867  87.8646278  78.9162683  65.3099728
  87.6291180  78.4848976  66.7415619  43.9124937 103.0347944  94.6028262
  44.4411601 102.9091621  95.3908373  43.5354997 103.9087749  94.7041462
  44.2244196  87.5964165  86.1560154  43.9553595  88.0829906  85.3768539
  45.0754833  87.9678345  86.3883114  47.9690790  33.7188721  72.3983049
  48.6921453  33.4645247  71.8249702  47.2987223  34.0552044  71.8035460
  19.4172525  72.4652147  13.0420268  19.1625261  73.3786631  13.1722438
  18.9486086  72.1961737  12.2519505   6.9594932 109.4202328  71.4648819
   7.7579403 109.8053837  71.8259525   7.0226669 108.4902000  71.6822958
  36.5925956  95.9370804  94.3019676  36.0525489  95.3713608  94.8538208
  37.0853114  95.3316116  93.7480164 113.6094856  73.4472609   9.6802276
 114.5093918  73.1265211   9.7396320 113.6944866  74.3371820   9.3381029
  55.7261705   2.3726897  64.8371077  56.5735626   1.9441801  64.9576616
  55.0858355   1.7230427  65.1272154  35.1387811  98.0549908  45.7098532
  34.3837786  98.1256962  46.2939787  35.8613658  98.4414864  46.2045527
  86.6815662  63.4986448  13.6383617  87.5567627  63.5733652  14.0187263
  86.7135715  62.6946449  13.1199074  63.6749125  15.7270849  61.9908667
  64.2571211  15.6893277  62.7497053  63.6762333  16.6490662  61.7336082
  63.3212519  29.0142345  79.5862913  62.9279852  29.8701668  79.4161320
  63.9134884  28.8717103  78.8479328  80.5209923  55.0087023  17.3703706
  81.2200928  55.5884123  17.6727402  80.6599712  54.1938734  17.8530419
  13.2381654 108.3592701  87.5200367  13.8854182 108.2485104  86.8235970
  12.5113928 107.7913475  87.2641087  23.9494228  90.0207806  78.0642653
  24.8677063  90.0228882  78.3344173  23.8433003  89.2003536  77.5827408
  33.3742166  79.2052794  11.5035319  33.8632941  78.8994122  10.7396746
  32.6372433  79.6934128  11.1363399  48.3049488  29.6224618  88.2645512
  49.1184998  29.3202543  88.6683273  48.5696173  30.3611922  87.7164078
  83.3394146   7.2763610  67.1201086  83.2465649   8.0295396  67.7034903
  82.4816704   6.8519074  67.1386003  91.5998268  11.1112106  73.4613419
  92.0943356  11.0068440  74.2742395  90.8183098  10.5726731  73.5855865
  58.7272501  28.4236813  83.8452244  58.6883116  27.7390647  84.5130730
  57.9558945  28.9653087  84.0121937  42.9284286  89.3238068  90.7209873
  42.6473713  88.7565899  90.0030041  42.9055834  90.2066422  90.3517818
  31.5567541 104.5103359  93.1893349  30.7961082 104.2119694  93.6879539
  31.5837312 105.4557800  93.3364391  50.1885605  20.7949138  69.8705912
  50.0588942  21.7230844  69.6758652  50.8081865  20.4949474  69.2055225
 104.9738598  92.2677708  74.8648310 105.4803944  92.9466057  75.3107500
 105.0703049  91.4936829  75.4195595  91.8654156   8.6358935  66.3182545
  91.9175720   8.0036598  65.6014585  91.1168194   9.1892684  66.0955381
  80.4011345   0.7150106  86.7928600  80.7767677   1.5590370  86.5423584
  79.4753265   0.7864459  86.5604782  95.9090424  61.8161201  10.7275224
  96.6785336  61.8352795  11.2965155  95.7993698  60.8918571  10.5040467
  73.4364557  25.4209185  88.7525272  73.8025951  24.7554612  88.1700039
  73.6129856  26.2506747  88.3091640  40.2313757 109.0534782  77.5379086
  39.4498634 109.0600109  76.9852543  40.8035469 108.3998394  77.1359062
 101.4579582  50.9797287  22.0042396 102.2021484  51.5607357  21.8466353
 101.8513489  50.1684570  22.3256731  55.8870792  14.5742333  59.3694019
  55.0701284  14.4849133  58.8786411  56.4154243  15.1778626  58.8471842
  42.0302773   8.3385724  83.3910084  42.6217175   8.6757076  82.7181244
  41.7862558   7.4666780  83.0803871  39.8535442  97.4579048  80.4397678
  40.6085968  97.0158386  80.0515652  39.1822839  97.4286842  79.7580147
  13.1967950 101.8785000  83.6100674  13.6402965 102.0835686  84.4331646
  13.5680747 101.0383320  83.3408070  95.2933407 106.4082623  85.4164886
  94.8883152 105.6967068  84.9206161  96.0749054 106.0150146  85.8047485
  64.1192579   9.6638596  74.2710066  63.1808853   9.6985328  74.4567060
  64.2399740   8.8391060  73.8004303  53.7414694  10.2987504  71.2877893
  53.0232859  10.4955661  70.6863642  53.6939240   9.3513292  71.4157152
  18.1953371  91.5004063  83.3417797  18.7744582  92.1426868  82.9315090
  17.3298228  91.9084930  83.3177376  61.1622620  28.9757061  82.9996586
  60.3107595  28.8151288  83.4063435  61.7718840  29.0339208  83.7353230
  67.7958441  39.6913552  87.9305458  68.2256746  40.3979254  87.4486351
  68.3850050  38.9430761  87.8346539  73.8322687   9.4819170  89.5444489
  73.2324553  10.2277410  89.5585918  74.3106508   9.5435745  90.3712463
  69.7978306  14.5920050  54.6487522  69.9488688  13.6481774  54.6998358
  69.1763878  14.7736204  55.3537750  46.1517429  20.0524282  88.8338280
  46.9761181  20.3445792  88.4448624  46.4108276  19.3915176  89.4759369
  97.3583984  42.7164173  42.0114326  98.0789757  42.3225403  42.5032187
  97.6225281  42.6372385  41.0948133  37.7266479 103.1438541  77.7593803
  36.7920041 103.1269646  77.5535059  37.7733111 103.5423851  78.6284208
  39.8529744   3.3058175  88.7421799  39.6117616   2.9845408  89.6109867
  40.6716728   2.8536710  88.5383987  44.4759417 108.3006382  79.4040346
  45.4212046 108.4479046  79.4360018  44.3598795 107.6363373  78.7247181
  16.5883446   8.4558696  79.4873714  16.3210022   9.3294084  79.2015600
  17.5436246   8.4995300  79.5293999  13.8527691  63.3094501  18.3933878
  14.4932747  62.6506138  18.1252027  13.9138770  63.9897871  17.7228403
  62.8264332   1.1796522  62.5685883  62.1077967   0.6698632  62.1945381
  63.5842609   0.9581578  62.0274162 106.2714672  76.6006947   1.7935400
 105.9134483  77.2002745   2.4481800 106.5395546  75.8307695   2.2951156
  36.5760422   0.5257520  71.3297510  37.0420074  -0.2647066  71.0572052
  36.9440937   0.7369089  72.1877623  76.8344164  10.6017160  22.6202440
  76.4273691   9.9354684  23.1740093  77.7204180  10.2747989  22.4641800
   3.1385162  46.0606050  67.1822786   3.0239108  45.2762270  66.6457701
   3.5680848  46.6878986  66.6007233  80.3385353 105.1713371   4.2355567
  80.5126190 104.8900890   3.3373225  80.7470703 106.0346031   4.2996651
  54.2812490 100.0141907  76.0077667  54.9101257 100.4962349  76.5447807
  54.3771839 100.3888702  75.1321840  29.2468929  87.8277874  79.6489906
  28.9823079  87.0113564  80.0728512  28.7182474  87.8661156  78.8519382
   1.1063458  23.4955525  34.6619749   1.4485371  23.0980349  35.4626727
   1.8841699  23.6847687  34.1371703 111.8412018  61.9990158   2.2228590
 111.7477322  61.7591047   3.1447804 112.6775646  62.4625349   2.1795979
 106.3383102  53.8487911   5.1727957 105.5017662  54.3066692   5.2550465
 106.5000725  53.4871054   6.0441446  84.5795059  26.0952139  86.6305637
  84.6121025  26.3607144  85.7114983  83.7892723  25.5591893  86.6971397
  56.2906504   1.7105231  86.1904144  55.6385708   2.2529544  86.6340351
  56.3394356   0.9141018  86.7191505  49.8332262  87.2840214  79.9383593
  49.2799187  87.9297543  80.3777981  49.2496395  86.8546009  79.3128633
  84.4034189  54.2733884  -0.0357091  84.6317834  55.1298260   0.3256477
  84.0059531  53.8025975   0.6968272  47.8904295  10.7251608  79.4431639
  47.0643711  10.9387374  79.0092993  47.7034521   9.9246448  79.9335146
   0.9706789  49.1402388   3.1775892   0.0230543  49.0432024   3.2715234
   1.2370266  49.6454239   3.9457536  89.4028378  20.6266689   3.1131798
  89.5843410  19.9968636   3.8107699  88.9000130  21.3197160   3.5410678
  47.9406023  24.0887189  60.2499580  48.4076691  24.4580436  60.9994125
  47.5300264  24.8434472  59.8280096  52.9561503  92.2587800  94.6560700
  53.2940085  91.5133787  95.1525197  53.7339898  92.6625133  94.2711053
  70.6535482  22.2053099  89.7126961  69.7520685  22.4708104  89.5308304
  70.6063843  21.7618322  90.5596542  56.3314009   4.9069121  65.6970596
  56.8642044   4.6730003  66.4570856  56.2167978   4.0836436  65.2223730
  57.7156401  92.7628803  39.9686646  57.3591948  92.8873634  39.0890718
  58.0632067  91.8710327  39.9622416  61.0659599  20.6909895  79.9791479
  60.6425714  21.5070534  79.7126579  60.4196787  20.0117660  79.7862673
  55.0740385  13.7042046  70.3350258  55.4628944  14.0998483  71.1150837
  54.1785336  13.4896791  70.5963326  24.9089313  95.3175259  62.0459366
  24.9607754  94.5949268  62.6715565  24.3608952  94.9814701  61.3367462
  26.2791252  91.2695980  79.5239210  26.0189080  90.4824924  80.0024414
  26.0797167  91.9901657  80.1216221  38.5350800  36.4131927  92.2434044
  37.6392198  36.1618114  92.0187283  38.9115691  36.7205119  91.4187527
  15.2931905 108.8020706  89.9432468  14.9714231 108.2771683  89.2103291
  15.1491582 108.2519817  90.7132435  82.3643208  24.6969199  86.1421776
  82.7239799  24.5516586  85.2670956  82.3936844  23.8358259  86.5591717
  86.7354202  15.3035009  89.4833851  86.7215443  15.6377470  88.5865498
  87.6506329  15.0693250  89.6375847  51.4161301  22.0419836  58.0823088
  50.9887695  22.6798248  57.5106907  51.9251490  21.4908528  57.4878454
   5.4702714 109.5436209  47.7146053   6.3086513 109.8187670  47.3436022
   5.3334477 108.6614819  47.3691463  65.6814480 107.7305794  90.9879684
  65.7157135 108.6581135  91.2219524  66.2197018 107.2965431  91.6498852
 108.0428886  30.4313135  38.7802315 107.1947765  30.0500631  39.0073729
 108.0078793  30.5446553  37.8304124  83.0971146  24.5942593  75.2029037
  82.4598312  25.1840949  74.8001719  83.4113693  24.0514183  74.4798517
  81.3120270  68.1832647   8.7492466  82.0335770  67.8091812   8.2436192
  80.5259991  67.7843189   8.3761221  51.2791777  32.1338272  92.5522518
  51.6552925  31.2559700  92.6165867  50.8383894  32.2676253  93.3913136
  48.9620209  37.7728891  63.4130001  49.4818068  38.1555986  64.1198111
  48.2156086  38.3644366  63.3172464  69.2548752  30.7415080  90.5712795
  69.9654198  30.4788256  91.1563873  68.9270782  29.9187565  90.2081490
 103.3421516  88.4332943   4.6779886 104.0987682  88.0464363   4.2374262
 103.5991192  89.3404484   4.8431140  99.6478271  88.7039757   9.2041296
  99.1172886  89.4648743   9.4403487  99.3829250  88.4961414   8.3081037
   5.2242023  86.6828728  11.7252314   4.3566251  87.0455360  11.9041753
   5.8118510  87.1726322  12.3005950  67.9232836 102.3512936  77.5641298
  68.6709166 101.8008804  77.3310661  68.1504774 103.2184982  77.2286081
  42.8383207 109.0660000  81.2220764  43.4002972 108.7061596  80.5358315
  43.2920408 108.8553619  82.0381641  80.8534527   6.5919679  70.1858473
  81.3615417   5.8312243  69.9041557  79.9836349   6.2414104  70.3775406
  57.7194118  38.1015563  71.4801073  58.1898642  38.8794661  71.7797041
  58.4054756  37.4534702  71.3203192  82.9944324   4.9720141  60.9046602
  83.9174652   5.2249569  60.8885002  83.0027103   4.0260831  60.7584476
 112.1849823  80.2783489   5.8323485 111.7695332  79.4203281   5.7461143
 111.5577126  80.8882809   5.4440784 113.9207840  74.5791721  15.8165121
 113.5089207  73.9321136  15.2438784 113.1925392  74.9690342  16.3001370
  80.6729889  19.5664275  72.0806313  79.9350166  20.0168920  72.4913645
  81.2000656  20.2686095  71.6993570  55.1791525  16.1910069  80.8348942
  55.8547020  15.5869389  80.5267239  55.3819418  17.0192122  80.3999424
 101.9550133  85.7030010  37.1458745 101.4846325  86.0358524  36.3815546
 101.6676331  86.2633705  37.8667259  61.4770174  94.5390320  86.1103725
  61.1684132  94.0599537  86.8794537  61.8316650  93.8626957  85.5332851
  56.5649128 101.6068268  68.2256937  57.0495987 100.8330917  68.5131693
  56.4223242 101.4660454  67.2897005  79.2072153  44.6789789  58.4606695
  79.7539425  45.1463175  59.0922689  78.3109951  44.8330784  58.7594461
  73.5517311   4.2379212  71.4332247  73.0822325   4.6090201  72.1802807
  74.2441034   3.7060872  71.8256617  47.0298147  20.8968282  93.6944389
  47.5397348  20.1728725  94.0578938  46.5673256  21.2655735  94.4470024
  96.9836426  37.9090142   5.8905798  97.5237656  37.6368737   5.1486641
  96.9506454  37.1388841   6.4580661  95.3945160  20.4380465  86.9906998
  96.2885380  20.7629013  86.8837929  95.2881145  19.7945845  86.2900829
  84.6427155   9.7806835  91.7175007  83.8623810  10.3345907  91.7399311
  85.0432396   9.9654371  90.8679867  59.0191269  12.5216556  64.7253370
  59.7398424  12.0979214  65.1914406  58.9771986  12.0663702  63.8843918
  34.4494915  14.2206359  77.9653931  33.5202003  14.0007460  78.0309582
  34.8966193  13.3742905  77.9676914  14.8944044 100.0667381   1.0885393
  15.3818297 100.0559521   0.2648085  15.1130986 100.9099770   1.4852263
  77.8371048  15.4697645  87.5410461  77.7489281  16.3769853  87.2488022
  78.7818813  15.3281403  87.6008224  76.0364676  13.9033103  88.9650249
  76.6916323  14.3861735  88.4612083  76.3587189  13.0020440  88.9753437
  23.6522532  95.2339268  88.9733124  23.7030005  95.3177834  89.9254799
  24.3433619  94.6102238  88.7506294   4.2754942   9.8235077  90.1976585
   4.0993541  10.5942869  90.7372093   4.8642826   9.2882192  90.7296658
  73.1041574  17.9068148  81.1519241  73.1109095  16.9781196  80.9201622
  73.2054377  18.3629000  80.3164864  51.7486286 109.4115734  63.6786795
  52.3800755 108.7633610  63.9906549  52.0209312 109.5980835  62.7801800
  26.6508055 103.0382919  68.2582998  26.1703467 102.4015522  68.7874031
  26.1312628 103.8399982  68.3180332   5.4572344  52.8291798  11.0280430
   4.9740064  53.5817480  10.6869173   4.8957929  52.4771166  11.7187440
  49.9347162   5.1602417  83.6664867  49.6945763   4.4802240  83.0370903
  49.3304968   5.8798152  83.4838295  58.1870317  15.9597635  82.5292683
  58.9745903  16.4118576  82.2266197  57.9168749  15.4240072  81.7834759
  85.7454777  10.7512367  94.5429325  85.9766960  10.1134098  95.2181721
  86.0060406  10.3351986  93.7211990  40.8342028   7.2553140  66.0896397
  41.2040758   8.1359261  66.1524534  39.9290204   7.3950076  65.8114958
  13.8601553  34.7551179  63.6947346  14.3611419  35.3039551  63.0913925
  14.2067170  33.8730717  63.5601234  48.2722473  18.6031568  40.0973558
  48.3883476  17.8262305  39.5504236  47.3857069  18.5187197  40.4482841
  38.2693148  16.6868019  95.0232220  39.1149712  16.8200421  94.5950317
  37.9411411  17.5711846  95.1856995  60.3479862  17.1545660  42.0672417
  60.0304461  16.5209949  41.4238262  59.7510529  17.8983808  41.9857311
 113.3832169  32.3079276  20.0616765 113.4904003  33.2537150  19.9605250
 112.4847031  32.2007275  20.3737760  57.7386236  27.6478171  91.0432243
  58.4864473  27.0884442  90.8332348  57.0215273  27.2973323  90.5148602
 108.7963772   7.7433461  80.3547001 108.4324741   7.1103245  79.7357512
 109.5314789   7.2849244  80.7617569  46.1723566  38.0515766  68.2022762
  46.3982534  38.8707662  68.6428785  45.2160788  38.0577707  68.1607151
  87.2674942  51.6915274  11.4598739  87.2497559  51.8831825  10.5222261
  86.7064381  52.3607492  11.8517852  18.6903405  91.8815422  70.2845001
  18.5976756  92.7370644  70.7036972  17.7928758  91.5619850  70.1913786
  59.7018957  59.6086311  11.6744840  60.0386524  59.0247822  10.9948170
  60.4178715  60.2221251  11.8395352   3.4147006  58.8373137  11.1186123
   3.0053687  58.1534052  11.6486561   3.8621110  59.3967819  11.7534757
  64.3506336  12.7868032   1.0099518  64.2102480  11.8487251   1.1385354
  65.2009869  12.9593408   1.4141348  20.7981157  62.2744608  11.6613865
  21.0839820  62.8129387  10.9234476  21.4879513  61.6183090  11.7604983
  15.1326513  63.2633448  14.7210944  15.2535713  63.8287926  13.9582825
  14.6532071  63.8055134  15.3475296  15.5413878  71.9420385  12.6576948
  15.8585644  71.0995817  12.9831159  14.5942950  71.8274069  12.5795400
  52.7627420  31.2215877  88.6413288  51.9608784  31.6262794  88.9721870
  53.3691692  31.2516999  89.3813038 109.1856289  37.3912907   5.1415491
 109.3060112  37.5426579   6.0790068 108.8821507  36.4854121   5.0822335
  80.4381943   9.4795650  62.3380804  81.3275337   9.3578982  62.0056391
  80.4248142   9.0011120  63.1670189  24.6235228  67.5608444   2.1478216
  24.5909405  67.6656199   1.1969315  23.8863659  66.9849443   2.3507239
  34.3888712 104.3718052  50.2032852  34.5267200 104.0961170  51.1094999
  33.5390997 104.0002441  49.9665213  15.4781473 105.6318855  89.4505978
  15.4595804 106.1233997  90.2717590  14.8769307 104.9012184  89.5951557
  70.0744534 103.0230045  89.3791771  69.7708511 103.2222557  88.4935379
  69.3069696 102.6570320  89.8187923   3.2222116  31.8140531   8.2330734
   2.2878447  31.9035220   8.0454952   3.5683647  31.3152170   7.4930918
  92.5703332   0.4277314  87.9570866  93.0318162   1.2380494  88.1730747
  92.5984237  -0.0862895  88.7640762  93.7574673  10.0342417  80.9056568
  93.5140419   9.1494155  81.1777973  94.1458988  10.4269242  81.6874218
  34.6333957 107.2106266  71.6628838  35.3472281 106.7912865  71.1824369
  33.9920092 106.5127277  71.7962551  22.3034453  28.1197023  24.9287081
  21.4928818  28.1754804  25.4347801  22.7704072  27.3740578  25.3057909
  32.4277496  22.0952344  60.8238745  32.0417118  22.5556707  60.0787544
  32.3082519  21.1676073  60.6202555  42.0713997 106.0220814  90.4154491
  41.4750814 105.4773235  89.9017715  41.6704798 106.8912220  90.4054642
  79.0231705  19.4855475  60.6026316  79.3417835  20.2168798  60.0736046
  78.3403015  19.8681188  61.1535931  90.3304577   2.7266118  83.5499001
  90.8481693   2.4740739  82.7854156  90.8852863   2.5065470  84.2982101
  76.3458729  16.4080775  33.0653620  76.9410992  15.7109511  33.3409572
  75.5528021  15.9498715  32.7872992 115.3806210  57.4853468  21.1101556
 116.3340569  57.4659443  21.1926270 115.2126217  58.1318712  20.4245782
 103.7400723  79.1779947  15.1702499 103.2991314  79.5970583  15.9092927
 103.1340885  79.2860317  14.4372165  58.2062864  16.7165887  92.7495289
  57.8538513  17.2551608  92.0410347  57.6870489  15.9129810  92.7205372
  40.9720659  95.0853634  93.4180164  40.7015467  95.8962250  92.9872513
  40.8632708  95.2626801  94.3523312  53.0542707  30.4600573   7.1861917
  52.4038458  29.8832631   7.5867969  53.5268164  29.8981237   6.5720558
   8.9059932  75.5246960   0.9106124   9.6627052  74.9977599   0.6538070
   8.3060653  75.4604040   0.1675189  47.9526377   7.9708409  79.8255301
  47.4072552   7.6423717  79.1107607  48.8487196   7.8940094  79.4978619
 104.3615532  22.8632069  72.6419544 105.2310467  22.8015661  72.2464705
 104.0185833  21.9702506  72.6068020  27.4078345 108.7751961  89.8954773
  27.3911953 108.6212444  90.8400726  27.8770781 108.0212975  89.5381641
  28.3370686  93.1630898  94.7475338  28.1957841  92.8307438  93.8610649
  27.8773594  94.0024948  94.7647285  73.7956285   4.3555972  75.6897736
  74.7313356   4.4402242  75.5066872  73.7185812   4.5283997  76.6280890
  79.6119833   8.1116140  76.6377449  78.9900446   8.0057216  75.9178782
  79.7138929   7.2305775  76.9977760  11.0071242  49.7171497   2.4065132
  10.7436430  48.8687181   2.7628386  11.9414091  49.6199131   2.2224282
 112.4513912  30.7171917  87.7568150 112.6740074  30.2623653  88.5691071
 113.2588863  31.1645961  87.5037956  64.4089174  21.1321783  77.3767471
  63.7721252  21.6539764  76.8884325  64.7883415  21.7451549  78.0064535
  19.0406048  89.9808598  10.9643352  18.5338855  89.2114067  11.2239766
  18.9797473  89.9965954  10.0092018  65.7178259  17.6939726  60.1209402
  65.3646994  18.0135798  60.9512281  65.7681417  18.4726167  59.5664883
   2.2513884 105.5107784  90.6103802   2.9855978 105.2591801  91.1706161
   1.9955565 104.6992493  90.1719761 106.6050053  54.8999834  49.2905474
 107.4324512  55.2882481  49.5748329 106.7635822  53.9562464  49.3114567
  35.0048232  92.5383854  17.7985072  34.2004418  92.0641327  17.5880575
  34.7351193  93.4552002  17.8527188  56.7294073  17.7365983  84.5890903
  57.3583698  17.5205112  83.9006615  56.7266893  18.6933160  84.6193314
  93.0244923 101.3928604  13.0504203  93.1470013 100.6084538  12.5156891
  92.9035473 102.0989990  12.4156153  24.3006110  70.0341797   3.2987902
  23.6021280  69.8835802   2.6618636  24.8800969  69.2785025   3.2019216
  60.6289053  12.4814177  75.4481936  60.6111002  12.4547029  76.4048576
  61.3551235  13.0686617  75.2384663  70.8270073  32.6538134  81.2999058
  71.5743399  32.5471401  81.8884182  70.5563259  31.7595363  81.0919762
  36.4915872  96.2705803  50.4648304  36.4143133  96.1136913  51.4059210
  35.6776333  96.7154121  50.2285385  86.3193321   8.1789577  80.7660580
  86.7585373   8.9387840  81.1481571  85.8343601   7.7912241  81.4945412
  75.5040550   1.5934920  71.7649460  75.3906822   1.0781498  70.9663200
  75.5877638   0.9415714  72.4608088  46.0244846  22.1265125  74.5105505
  45.7494164  21.9515276  75.4105234  46.9506216  21.8853521  74.4919872
  58.6462975  12.3477912  69.6084738  58.5406065  12.9128444  68.8431120
  57.8024578  11.9047987  69.6974993  53.9235258   2.8556299  82.5268650
  53.5538960   2.6709256  81.6634560  53.5131550   2.2130141  83.1055450
 113.1639767  65.7102776  20.8207440 112.5069141  66.0964203  20.2416086
 112.8910923  64.7979546  20.9179115   5.1782399  64.5789576  75.1307154
   4.9282897  65.2919483  74.5430040   5.9670645  64.8963213  75.5703402
 110.0129128  75.4867983   6.8928856 109.3537140  75.9249449   6.3546312
 109.7781372  75.7152367   7.7922916 109.9222946  79.6939182  42.7529573
 110.3618908  80.4526711  43.1367350 109.0059090  79.7918892  43.0115509
  85.0932312  75.5004597   9.9928856  84.7362041  75.1658249  10.8155537
  85.3067303  76.4148378  10.1787996  62.8424358  29.3408203  67.7078581
  63.7337351  29.4655371  67.3818922  62.7941704  29.8909521  68.4896898
  55.1759338  14.0370631  90.8042431  54.2794991  13.7399328  90.6482029
  55.2875614  14.7820175  90.2136326  61.7292118  14.5054960  85.0917435
  61.0928726  14.3126321  84.4031906  61.2620068  14.3241882  85.9072685
  74.7388744  24.7345185  79.2361832  75.2652407  25.3732085  79.7170591
  75.0908041  24.7555447  78.3462763  51.4545107  27.7572227  78.5910273
  52.1406174  28.3328342  78.2531548  51.8863249  26.9104362  78.7038183
  73.6083746  24.5338464  85.7586098  74.0168953  24.7152305  84.9121761
  72.6806593  24.7267151  85.6230450  66.5646172  30.4972196  81.1961651
  66.7918158  31.2830544  81.6932297  67.4075985  30.0994563  80.9784603
  80.1481724  16.7269599  85.2696896  79.6110773  16.8863428  84.4935703
  79.5227146  16.7080188  85.9940338  77.3306942   3.1052047  73.0695581
  77.0402193   3.9993781  72.8898048  76.5860462   2.5571233  72.8218985
  99.7241783  11.2412262  69.4559622 100.2900982  11.7372787  68.8644409
  98.8357067  11.4412701  69.1612864 109.5160389   1.8267679  54.4722366
 110.0154018   2.1817160  53.7367916 110.1816368   1.5149020  55.0853872
  84.7290611   8.6271536  88.0982971  83.8233185   8.7472653  88.3836842
  85.2515507   9.0705931  88.7665844 107.0353317   0.8873220  67.1226597
 106.6967392   1.7676756  67.2856331 107.5557613   0.6832287  67.8996611
  29.2885590  24.8418689  76.8225574  28.7037063  25.5924726  76.7187548
  29.1277957  24.5345473  77.7147150 111.7578738 108.8173321  70.8432865
 111.0577075 109.4585403  70.7214308 112.5645773 109.3286987  70.7803059
 104.6651649  41.2604380  17.6071417 104.9431610  41.8083525  16.8731499
 103.7221050  41.1537981  17.4827099   1.8370239  88.8906384   8.3909148
   1.9505574  87.9459000   8.2870203   2.7201539  89.2491436   8.3026606
  78.2009697  30.3512025  45.7273149  78.3733797  29.5939112  45.1678371
  78.2075214  31.0978818  45.1284313  63.6779642  32.3898029  87.1954632
  64.2753935  32.5305796  86.4609623  64.2001963  32.5934005  87.9713917
  89.8959064  60.9614897  22.4852681  89.9673748  61.8177938  22.9070091
  90.0219345  60.3330803  23.1962204  68.7890196  15.5372667  73.9960051
  69.3380976  15.7857251  74.7396564  67.9014301  15.5072570  74.3530941
  53.6744499  35.8234334  62.3646450  53.3131027  35.9744072  63.2380676
  54.3866968  36.4581943  62.2871065  28.6132884  97.3384953  56.4366245
  28.0211473  97.5602627  57.1552515  28.5857940  96.3828278  56.3898611
  60.7263422  28.6833644  76.9482660  60.3200483  28.0840921  76.3221407
  60.1113844  28.7172818  77.6810074  32.8166080 103.1223106  86.3168335
  33.4459996 103.0800343  87.0367718  32.6626396 104.0582085  86.1879349
  99.5114517  13.2334828  74.3230724  99.1397381  13.6060977  73.5235643
 100.3697872  12.9037309  74.0570736  77.3507264   4.7836317  94.0911602
  77.1480611   3.8938154  94.3799266  76.7516664   5.3394712  94.5895625
  56.9759798   4.8041120  87.2402287  56.7673492   5.7029080  87.4949265
  56.5003920   4.6709955  86.4202690  31.0308051  26.2398219  40.6188107
  30.4832196  27.0096064  40.7731295  30.4088879  25.5383682  40.4253912
  82.2906208  16.1908603  77.8744364  82.0531559  16.9536889  78.4016275
  81.4587021  15.8752120  77.5215673  98.5263920  22.2771311  89.8382759
  98.3444309  23.1321168  89.4482422  97.9911804  21.6647983  89.3334675
  82.2086811  21.3691902  66.9304848  81.9424820  20.5413508  67.3305416
  81.5785122  21.5070152  66.2232924  83.2635784  20.6854725  79.6258688
  83.9653492  20.6261206  80.2741241  83.4994125  21.4398837  79.0859795
  84.8730850  23.0457830  78.9507484  84.2127132  23.5383415  78.4633875
  85.4577732  23.7154078  79.3056726  86.0912991  65.9947634  12.6771319
  86.2159157  65.1407909  13.0911851  85.3339863  65.8748865  12.1041191
  79.5633125  22.0596361  62.4313498  79.9280930  21.2568998  62.8038836
  78.6152506  21.9369626  62.4799395  89.6008205  92.5233841  14.7518468
  90.1358604  92.5490189  15.5451369  89.3888855  91.5971947  14.6357095
  92.3235416  79.2223263  26.4708233  91.5570354  79.7820377  26.5950251
  92.3045158  78.6213827  27.2156286 113.6446476  13.2779992  88.0047703
 114.2221832  13.8609564  88.4975624 112.7634048  13.6053061  88.1851292
  64.2753601  18.1199121  56.3632774  65.1354933  17.7013361  56.3286686
  63.6755133  17.4148619  56.6068268  80.6484222  22.4089885  70.0924158
  79.9693346  23.0821371  70.0483942  80.3208733  21.7016339  69.5369053
 114.0813732  38.7367702  16.0904682 113.8182449  38.2150054  15.3323412
 114.6406746  39.4229984  15.7264686  72.0517206   9.8806244  71.1764717
  72.5479317   9.1824389  71.6037273  71.2746668   9.4435364  70.8280945
  94.1074753   3.3902869  76.7216301  94.5111179   2.7610159  77.3193932
  94.8209667   3.6653557  76.1458731  10.8451593  69.7269869  11.1538446
  11.7861807  69.6575737  10.9929323  10.7048810  70.6512403  11.3595319
 101.5558910  69.6316862   9.9674320 100.7935047  69.2750311  10.4232848
 102.1600628  69.8781443  10.6677663 100.3036308  70.9358644  30.9584832
  99.8453236  71.1986971  30.1602912 101.2208462  70.8622503  30.6948209
  45.2818346   6.7279649  90.5348778  44.3679333   6.4756441  90.4031563
  45.2408552   7.4702078  91.1378956   7.1072721  52.0074129  16.6865361
   6.5785861  52.6250458  16.1813068   7.1788394  52.4066973  17.5535333
  86.7964172  89.5866013   7.4030906  86.6854668  89.3236542   6.4894295
  87.7300549  89.7813034   7.4846065   5.2194518 107.6806068  91.1083221
   4.8813123 107.9541779  90.2556515   5.7831901 108.4028816  91.3853741
 102.3046017  75.2076006   1.5261008 102.5794792  75.3111362   2.4371195
 102.6595592  75.9764957   1.0799649   5.4405642  59.2616224  15.2272558
   6.1057699  58.7905025  14.7254813   5.8677703  59.4653082  16.0592651
  65.4384518  30.9733391  90.7309628  64.9707842  30.1736546  90.9718418
  65.6830454  31.3689828  91.5675449  75.5183601   5.8413774  62.0008850
  74.5749903   5.9931678  61.9439363  75.6789112   5.1066530  61.4087391
  87.6492977  22.7048039  76.6632366  87.6348495  22.7441764  77.6195145
  87.1639156  23.4811926  76.3841963  29.7265196  92.5564480  77.9717302
  29.0081501  92.1009350  77.5327635  29.6894646  92.2462654  78.8765192
  30.7220149  38.4328103   1.6698916  30.6369185  37.7343202   2.3188150
  31.6011739  38.3186102   1.3089621  78.6852837   7.9579645  90.8640289
  78.7750244   7.0663542  91.2004948  79.2153263   8.4917969  91.4558983
  94.5759551  28.5617603  94.1550555  95.5125050  28.3659519  94.1826915
  94.1607587  27.8051628  94.5690639  83.6878872  14.0564418  69.9792194
  82.7739716  14.2678308  70.1697254  84.1709232  14.8488355  70.2137947
  36.9325209  86.5740585  75.3281879  36.2716389  86.9030857  75.9374571
  37.3398566  85.8409882  75.7896280  -0.2272548 103.8094521  74.9661398
   0.2829228 104.1176033  75.7151365   0.2861844 104.0722179  74.2022228
  71.6727781  26.7094970  82.9167652  71.0614920  26.8282008  82.1897984
  71.9980526  25.8153057  82.8125954 115.9940764  53.7815714  16.9701505
 116.8199466  53.9491415  16.5161777 116.2555851  53.4289742  17.8207493
  96.8715954  74.5075512   4.0550843  96.5510082  73.9023018   3.3864081
  96.2580299  75.2417231   4.0275812  49.4433594  34.5372558  78.7133694
  50.1154137  33.8953996  78.9426947  49.9335527  35.3305531  78.4974480
  27.2651267  68.2299614   2.5667533  27.3886943  68.8051224   1.8116686
  26.4175272  67.8124046   2.4136074   2.9467991  62.8939724   3.5874501
   2.8992328  61.9874811   3.2837322   2.7778676  63.4180737   2.8044993
  42.6796865   5.4431951  87.6348400  42.8440046   5.0086951  88.4717560
  42.0967293   6.1704099  87.8529072   8.7917268  86.5578556   7.7549577
   7.9684073  86.8414402   8.1523991   9.4340378  87.2045612   8.0472666
 112.0129681  94.7718906  19.5485413 111.1268997  94.4617367  19.3616951
 112.2153854  95.3674412  18.8270295  89.6868420   5.1306617  50.6981611
  88.7713718   5.2213347  50.4337358  90.0226116   4.4156677  50.1575327
 111.3274002  94.5676517  78.6778402 111.8978500  93.8728619  79.0066242
 111.6769791  95.3690243  79.0674973  69.6456003  17.2494376  61.6359425
  68.8892841  16.8703139  61.1881876  70.1961040  16.4975643  61.8547201
  73.5490417  21.8734813  81.2169838  72.8666401  22.2933221  80.6932545
  73.1342220  21.0824537  81.5611172  86.7227364  49.9852753  23.0100060
  87.5332069  49.5495510  23.2736611  86.6924572  50.7786465  23.5446835
  17.0804262  45.1328897   2.9482156  16.4329755  45.7095003   2.5425535
  16.7062676  44.2558861   2.8639650  19.2392981  72.2072697  16.0170770
  19.0928185  72.0299482  15.0879204  19.5324719  73.1180763  16.0437810
 114.0015030  50.3856611  18.1608713 114.0411663  49.7632933  17.4347067
 113.8853741  49.8395014  18.9383376 116.0977745  51.9183350  19.2685449
 115.5502319  51.9964600  20.0497770 115.4946613  51.6371202  18.5805011
 115.7845974  10.9988880  59.1156054 116.2020683  11.2636876  58.2959557
 116.1670303  10.1441157  59.3139505  64.2552662  29.3999481  82.5302982
  63.7960100  29.4544625  81.6922379  65.1623535  29.6229720  82.3212910
  66.5774775   0.9758163  85.0886822  66.2354612   1.3362348  85.9068203
  66.0616636   0.1829163  84.9421310  46.0639381  34.9849296  90.8215427
  46.1606216  35.2946234  89.9209976  45.1499939  35.1665926  91.0404682
  41.3792753  14.9516952  80.2972889  41.1683512  15.2968502  81.1648178
  40.7750988  14.2189693  80.1776409  53.1359053  34.0540767  91.1236858
  52.2952032  34.5112348  91.1023235  53.0537701  33.4354568  91.8494892
  41.9588614 106.7330456  52.8779840  41.3462687 107.4606800  52.9852772
  42.7229118 106.9847298  53.3967447  40.4971981  88.2475090  64.7896147
  40.7877541  88.7254906  64.0128613  39.6348143  87.9065609  64.5523739
 101.8059921  47.0402288   6.8714261 100.9623337  46.6075659   7.0028794
 102.3917484  46.3402891   6.5829760  51.4278173  14.6700168  79.7489882
  50.8131123  13.9533317  79.5917177  51.3283110  14.8710501  80.6795311
  81.1328697  68.1095266  17.1029687  81.7388058  68.4562731  16.4481103
  80.2692032  68.3952475  16.8052018 105.7452965  72.0894432   2.9752982
 105.8819485  71.6911697   2.1156853 105.9928894  71.4059687   3.5980278
 112.0639801  27.2094035   2.6701978 112.0680237  26.3229847   2.3089822
 112.1986961  27.7776933   1.9118232  10.5206215  25.3463292  80.0287247
  11.4417851  25.1966143  79.8159504  10.5417550  25.8617067  80.8350563
  71.1322784  11.2787151  74.0145063  70.6091785  11.9313633  73.5490513
  71.0377550  10.4807377  73.4943819  70.6080389   7.5901538  80.4417610
  70.9183788   8.3643025  79.9720621  70.3207779   6.9910836  79.7526836
 110.2264500  66.5884590  22.3429322 110.2939129  67.5166941  22.5666714
 110.4525948  66.5490246  21.4136672  24.3343592  51.6850758  16.0600507
  24.9983120  52.2811222  15.7134545  23.7525845  51.5173864  15.3186679
   9.6166193  89.2111588  11.9660544   9.6079302  88.2629871  11.8352020
  10.5127156  89.4069672  12.2397363  44.0567636  98.8217545  89.4638634
  44.2428064  98.3156300  90.2547264  44.9065924  99.1741276  89.1995716
  84.9021912  74.5919609   5.5733204  84.4895840  75.4159117   5.3143018
  85.7075977  74.8567247   6.0176724   3.5282047  88.1641565   0.7619155
   2.7617843  88.7110649   0.5895103   4.2693718  88.6874686   0.4568923
  77.2443724  23.0360079  94.5700932  76.8142223  22.6678586  95.3418922
  78.1285286  22.6698709  94.5911598 115.5173683  15.1091516  73.1042051
 115.8536434  15.9976208  72.9868364 115.8495235  14.8384678  73.9601469
  22.6278329  86.2193966  29.7194982  21.9844007  86.0628319  30.4106665
  23.3876991  86.5795898  30.1767731  21.9708109  92.7637196  12.9458499
  21.9004941  92.2453213  12.1442604  22.2827268  92.1439838  13.6052918
  86.4366245  32.1117330  86.0647297  86.5701294  31.9153857  85.1374435
  87.2910786  32.4160337  86.3705540 113.0381870  23.0109143  83.0775642
 112.1151543  23.2617140  83.1143951 113.2496738  23.0122447  82.1440220
 102.7755833  80.9612656   7.7358836 102.2626400  80.3287315   8.2388985
 103.5338879  80.4644489   7.4286485  87.1100235  75.6475878   6.3917190
  87.0012474  76.5642214   6.6450679  87.7746010  75.6666756   5.7030904
   7.9588306  93.4460449  19.9401402   7.0542133  93.6830425  20.1444221
   8.3076304  93.1014538  20.7622290  33.8845444  44.0131426   4.6336088
  33.5055113  43.3071566   5.1572007  33.3148289  44.0751457   3.8669205
  21.4045429  87.3430634  10.3253400  20.9619951  87.7267361  11.0824227
  22.3327470  87.5240517  10.4733741  96.9383907  78.2381105   4.6970463
  96.5883541  77.8181362   3.9113465  97.3923302  77.5354099   5.1622128
 107.4347973  90.3686523   2.7119434 108.0477619  89.9460316   3.3135232
 106.9830132  89.6429062   2.2813395  63.8414621   4.9389964  83.9330387
  63.1669760   5.6073487  83.8121891  64.5423412   5.1948696  83.3334255
 101.2219524   5.7122624  65.4446030 100.6266403   4.9983883  65.2160931
 101.0713768   5.8601296  66.3782454  70.9445286  33.5315490  84.5407486
  71.5064478  33.6486220  85.3067589  71.4765215  33.0226803  83.9289761
  57.7405262   2.8506428   2.0881851  57.3905373   2.0142168   1.7813756
  58.6338758   2.6488560   2.3664640  92.8035736  35.8944297  94.5968056
  92.4307728  35.5333281  93.7925339  93.3546257  36.6190791  94.3010712
  11.9740200  65.5781078  23.5019875  12.1160352  65.5873585  22.5554276
  11.1503148  65.1040363  23.6159778  92.2527027  19.7028470  86.9951725
  93.1141663  20.0362492  87.2460747  92.0659161  20.1277947  86.1580467
   7.1129441  68.1252623   5.5888784   6.3258648  68.3903646   6.0647541
   7.5497752  68.9486122   5.3709328  37.0152926 108.5972977   7.4646711
  37.4656320 107.7845860   7.6947200  36.0870862 108.4010124   7.5916988
  36.5109086  82.0061493   9.7592634  35.9422874  82.3576736  10.4443383
  37.3365617  81.8190193  10.2059340  92.5886345  30.9701443  71.8734932
  91.8238354  31.1996722  71.3456392  92.2345924  30.4491997  72.5942612
  45.2988911  92.6709938  77.2522736  46.1059952  92.2405338  77.5342703
  45.2064133  93.4177685  77.8438902  94.1691589  25.9007359  53.3658028
  94.3995667  25.7982731  52.4424171  93.3046055  25.4972458  53.4431314
  55.1339245  30.6354451  90.2791882  54.6684885  29.8124242  90.4283142
  55.7337904  30.7092595  91.0214424  86.5603447  12.1240294  87.2583866
  85.6194305  12.0473254  87.1002007  86.7356586  13.0637538  87.2092247
 113.5504246  82.4934864   3.3124337 112.8643036  83.1277275   3.5202691
 114.2534924  82.6896667   3.9316651  56.0269547   4.8930731  58.8295412
  56.3456297   5.0572199  59.7170877  55.0786877   4.8070428  58.9276218
   4.2914495  96.8924809  34.3004870   3.5486260  97.4202919  34.0074778
   4.2475286  96.9267845  35.2560639  45.3461266   3.5555941  92.2245979
  45.3711367   3.6013392  93.1803703  45.6727695   2.6798695  92.0180988
  18.9976811  81.5580750   1.1679025  19.5498240  82.3245621   1.0134034
  19.6136260  80.8281898   1.2319884  97.9597473  33.6818528  82.0642471
  97.3455906  34.3267822  82.4151230  97.5940990  32.8364611  82.3247147
  40.0832367  80.3326130  84.2381859  40.1475525  81.2722397  84.4090366
  40.1742268  80.2550793  83.2884789  14.1836572  66.5670347   2.3090219
  14.8106325  67.1742010   1.9159803  13.3267057  66.9124317   2.0588890
  95.2431393  16.9040740  73.3206129  95.8095264  16.6324615  72.5983429
  94.3937206  17.0671701  72.9105997   8.8716800  68.1753157   1.0755504
   8.5585601  67.5231157   0.4487956   8.8158043  69.0065728   0.6042541
 100.2069855  25.8025122  47.5771809 100.9962082  25.2616191  47.5490522
 100.4399681  26.5917492  47.0882511 108.5278893  43.3288908  59.8458672
 107.6570225  43.4001017  59.4550467 109.1280746  43.5618162  59.1375160
  94.1560268  16.3201809  80.8505630  93.3267498  16.1259246  81.2873650
  94.4896412  15.4651427  80.5788326   7.9803914  37.2483802  83.9061356
   8.6247385  36.7047668  84.3594933   7.1695387  37.1193552  84.3981743
  99.3105793  44.2725611  53.6725044  98.5046482  44.6925211  53.3719444
  99.0886211  43.9163971  54.5327997  70.1244783  20.9176254  76.0576963
  69.2996120  21.4017773  76.0199594  70.4382324  21.0483956  76.9525099
  94.3619347  18.6475742  76.9230366  93.9739418  18.5764134  77.7951717
  93.9861393  17.9160321  76.4332867   0.3846131  46.7723846  90.9459782
   0.4719983  45.9104681  91.3530350  -0.0982608  46.6069984  90.1362228
  73.7036514  13.9407980  89.8578262  73.7827730  14.5242691  90.6124973
  74.5788145  13.9304984  89.4702435  24.0092635   9.1390693  88.1473160
  23.6606073   9.2742980  89.0284348  23.2905984   8.7295491  87.6656055
  55.9951448  37.0662308  86.6162109  56.3138151  36.2395430  86.2538910
  55.3770065  36.8059659  87.2991467 111.9811821  58.3007383   1.0006806
 111.3603115  58.4044123   1.7217922 111.7581654  59.0030718   0.3897642
  11.4674187  61.6229868   1.1961156  10.7773364  61.2986803   1.7747699
  11.8968618  62.3145580   1.6996488 107.9824257  81.1104107   8.5064411
 108.3238888  81.0477734   7.6144117 108.6486721  81.6049099   8.9837521
  90.3639698  36.4303732  82.5810051  90.6176949  37.1353960  81.9853592
  90.4340172  36.8172956  83.4537125  10.4457855  72.5991154  20.9584427
  10.3262961  72.0131254  21.7058206   9.6757853  73.1675196  20.9742451
   6.2385732   3.0095872  79.4814920   6.8395191   3.2132989  80.1981544
   6.7698270   3.1000254  78.6904049   3.1548703  65.6473064   6.7590910
   2.2453435  65.5900002   7.0518517   3.5342962  64.7990513   6.9887280
  77.0841360  25.4809523  68.7615681  76.2755442  25.9889770  68.6957979
  76.9994068  24.8074484  68.0867004  85.5946498  32.7379002  94.8498234
  84.7792398  32.9972710  94.4207966  86.2064873  33.4462704  94.6495948
   8.7131226  78.1701803   4.3096167   9.5218939  77.7462673   4.0225294
   8.4081411  77.6336288   5.0412798  80.3117561  18.9195371  55.5862999
  80.2167797  18.8811529  56.5380001  79.4161892  18.8600981  55.2536392
   8.0541772  37.2905898  81.1388493   9.0041035  37.3717880  81.0535431
   7.9009396  37.2517037  82.0829105   4.0480623  90.9930134  11.3788569
   4.7462326  91.0661697  12.0295775   3.8689351  90.0543118  11.3242626
  60.4815435  11.3917625  89.9674416  60.3866196  10.4537535  90.1328564
  60.7781267  11.4459610  89.0589714  11.2936640 107.5482273  20.7073712
  11.5308785 106.7949295  20.1665449  11.9459832 107.5550842  21.4078450
  77.2442293  34.9478030  83.6700439  77.4865341  34.8658800  82.7476501
  77.8950548  34.4230366  84.1361713  12.6295996  71.8125439   3.7251043
  12.6374817  72.7234793   4.0189907  11.8921888  71.4172411   4.1900679
 101.5903470  81.1654864   0.9436668 100.7683274  81.4366399   0.5350173
 101.4836595  80.2265774   1.0963023  86.2418652  10.2188015  58.3168507
  85.7303333   9.5894015  58.8252020  86.5800762  10.8338392  58.9676762
 110.1276112  88.9361095   8.8697904 109.5458126  89.0710449   9.6178168
 110.2875042  89.8161507   8.5289258   2.6539949  94.2148495  18.4774649
   3.1014505  95.0488377  18.6205912   3.3552903  93.5633850  18.4792578
  60.1417112  14.9578178  94.5700741  61.0982418  14.9643517  94.5348072
  59.8703480  15.4643798  93.8045788  99.7553062  62.4148989  72.5136518
 100.0678158  62.9740238  73.2249498  99.7173309  62.9942322  71.7526245
  55.2835417  29.1440225  84.5098686  55.8155060  29.8202944  84.0904713
  54.7891474  28.7486482  83.7919044 100.5997562   6.2414265  44.7100163
 100.2698803   6.7291570  43.9553452  99.9756336   5.5245864  44.8233366
  95.9724140  55.5752134  86.7300129  96.1535263  54.6526623  86.9098377
  96.2379360  55.6981993  85.8186340   1.1401876  13.9679456  86.8291187
   2.0366085  13.9331663  87.1629620   0.9625664  14.9017668  86.7166042
 110.0462532   6.8008888  84.3462563 110.7780266   6.5747482  84.9203587
 110.4605007   7.1053934  83.5388470  95.6033039  80.1952648   0.7998015
  95.1780987  80.7399273   1.4622054  95.7728672  80.7926369   0.0713579
   2.8542209  82.8511238  13.4132826   2.6828712  82.8697395  14.3548369
   3.1661832  83.7327290  13.2091320 112.8631973  44.1646338  81.2555313
 112.9694462  43.4311008  80.6498337 113.7052345  44.2267990  81.7064667
  39.6868229  83.0645275  20.7236528  39.9384379  83.8805676  21.1560917
  40.1121759  83.1062984  19.8671710  39.8143625  94.7243214  82.0524979
  40.3640699  94.6089077  82.8275681  39.3998790  95.5779839  82.1777916
  97.7015495  84.3059731  22.0303535  97.5436401  83.9175320  21.1698818
  98.4276962  84.9134636  21.8892932  57.3596716  80.7536030  88.0658531
  56.9225931  79.9839067  88.4302235  56.6446066  81.3238621  87.7835083
  56.8097639 108.4236526  63.3530092  56.4834499 107.5645065  63.6206436
  57.4683523 108.2323456  62.6852560  73.5098124 108.3716774  80.1589966
  73.5229015 108.7976265  81.0160923  72.7792978 107.7551746  80.2090549
 104.0520191  15.4687583  57.2356653 103.9632034  14.6210432  57.6712418
 104.8323917  15.3765953  56.6890717  92.2913262   0.4030980  72.3161793
  92.0659730   1.1891545  72.8137350  92.7281091  -0.1650154  72.9507685
  91.8392086  90.1444530  10.8090127  92.1027851  90.9409904  11.2697566
  92.6627636  89.7507477  10.5209267  29.1830945  70.0601053   8.7763000
  29.3230891  70.9999275   8.8919324  28.4132123  70.0004387   8.2106543
   7.7251786  54.6964455  10.7277715   7.6830870  55.3490686  10.0288153
   6.9177139  54.1912746  10.6327164  88.6381817  26.3676453  84.3364334
  89.0676403  26.8972683  83.6646461  87.7633190  26.7474127  84.4178295
  71.0692549  87.2869873  92.2823429  71.6569471  88.0354500  92.3855495
  70.8556700  87.2770309  91.3493252  95.9648705  36.8772650  59.5983315
  96.0129547  36.0857677  59.0621853  95.1723671  37.3222113  59.2980099
 106.2768078  64.2848921  12.5410032 106.1375713  63.3398962  12.4791265
 106.4211369  64.5654058  11.6372824   9.1064966  67.6050043   7.7486151
   9.7086519  68.3414936   7.6426607   8.4405106  67.9257154   8.3567584
  35.3430963  54.1278505  28.2308125  34.8173499  54.6911192  27.6628757
  36.2457633  54.2828608  27.9526114  69.6568012  10.9829855  67.9768229
  69.9792624  10.9278703  67.0772648  70.2683306  10.4487503  68.4836292
  97.3944187  39.8810291  79.3697977  98.1110191  40.2417326  79.8919249
  97.4518681  40.3424311  78.5331106  97.5433350  16.1722946  92.2044563
  96.6673851  15.9957707  92.5476551  97.5287342  15.8162665  91.3160515
  80.6589413  21.4202094  59.1387939  80.1669312  22.0293045  59.6893978
  80.9154129  21.9397449  58.3768654  97.7446938  92.0930290  12.9106808
  97.6455021  92.5283051  13.7573969  98.0991745  92.7695179  12.3336732
  13.2053888  79.8978233   6.6656303  12.9637849  79.6802855   7.5659287
  12.5164497  80.4929161   6.3698864  -0.1148436  38.1224275  72.5152016
  -0.0599808  38.4469223  73.4140444   0.1851588  37.2150707  72.5693989
  39.1858125 108.2781887  58.3427906  38.4372187 108.5276222  57.8009176
  39.5816278 109.1102505  58.6020756  84.7541142   1.4920290  77.9670238
  84.1417694   1.7834432  78.6425543  85.0955391   0.6604504  78.2958651
  71.4513206  83.2757854   1.8068905  72.3817921  83.4931278   1.7501479
  71.0338068  83.8380051   1.1543422  92.6712704  24.2129993  91.7215633
  92.3766327  24.7865939  92.4289608  92.0491219  24.3697786  91.0112190
  34.9537921  91.6603947  64.4408798  35.8278537  91.3170910  64.2554474
  34.4985676  91.6235733  63.5996628  50.4337168  63.8921499   6.0299069
  51.0998440  64.5238781   6.3008767  50.0945139  64.2405605   5.2054185
  74.4706869  12.9785848  46.2985659  74.4195032  13.7151027  45.6893444
  73.5717583  12.6554453  46.3597441  79.3369770  20.2682543  79.1668892
  78.7201738  20.5744839  78.5020542  79.6961832  21.0696626  79.5476103
  96.3208199  35.9632635  83.0579853  96.3396645  36.9160533  82.9681587
  95.3909206  35.7382321  83.0282688  34.9731159  98.3652878  92.7047253
  34.5068312  99.1664314  92.9434299  35.7911444  98.4076691  93.1999683
  96.5705299  29.0501261  84.8410225  96.5929222  28.3621883  85.5062103
  95.7593536  29.5269179  85.0167751  72.5251865  20.1384687  65.6099224
  72.1392298  19.6624243  64.8746347  71.8161964  20.6937051  65.9343958
  90.7848358 102.6641941   5.0438225  90.4493237 103.4442902   4.6021044
  91.5824032 102.9613400   5.4818064  18.0783367  93.2106781  19.2911732
  17.7377212  94.0440369  18.9660311  18.9599335  93.4170532  19.6016967
   5.3531790  71.2296820  85.3753376   6.1614901  70.7280111  85.2695465
   5.1553506  71.1708164  86.3100243  18.5927141  88.2646561  87.5734711
  18.7965882  87.6232433  88.2540989  18.3546102  89.0570831  88.0547237
  33.5272789 103.2437515  70.5954552  33.3906889 103.8515854  71.3221741
  32.7950168 103.4113121  70.0022030   0.9024726 104.1778374  11.9669878
   0.3398024 104.4285107  11.2343240   1.7417192 104.5980930  11.7791677
  89.5993805  25.2405119  57.8008366  90.4262829  25.2660203  57.3193598
  88.9560413  25.6021523  57.1912766  80.2039909  20.8907151  85.9651089
  79.8847818  21.7408061  85.6623173  79.4452620  20.4857922  86.3853264
 101.4239597  18.5716188  88.0071354 100.6977558  18.3036768  87.4440384
 101.3804531  19.5277941  88.0153942  32.3892713  66.6683340   7.1143103
  32.7254176  67.5384045   7.3292971  31.7290831  66.4941359   7.7851599
   9.8249441  88.2342052   3.9558780   9.1489053  87.6081657   3.6965060
  10.5275643  87.6926994   4.3154901  65.5357170  12.5190973  56.6847658
  65.4641867  12.6062715  55.7342291  65.0518131  11.7188728  56.8889856
  67.0897150  89.1702652  88.8872433  66.6472578  88.6035156  88.2553673
  67.8191853  88.6426830  89.2124653  89.1093540  34.9593449  80.7379436
  88.7125397  34.3479466  81.3583946  89.4104481  35.6887388  81.2797546
  80.5784798  24.9999428  94.1388607  81.5092373  24.8203969  94.2718792
  80.1502705  24.1539288  94.2697048  49.8959255  72.6211166   6.7514414
  49.3271399  73.2263994   6.2756872  49.8163700  71.7940474   6.2761962
 102.6344395  46.9601536  94.9008560 102.7280998  46.2333727  94.2850208
 102.4521828  46.5399265  95.7413387  87.9934502  23.6902118  67.1975279
  87.7892971  24.4064164  67.7988625  88.3379650  24.1238165  66.4168024
  77.1339798   7.8895301  75.2862024  76.5510798   8.5485613  74.9091864
  77.4462080   7.3872483  74.5335674 105.0348186  49.0865278  90.1744080
 104.9172115  49.6741295  89.4280052 105.3365135  49.6558952  90.8822441
 109.7222710  35.5715513  63.2159519 109.0922546  36.2533426  62.9825830
 110.3389835  36.0066748  63.8046503  93.9698982   2.9375988  61.9226742
  94.0961456   2.0416254  62.2349644  94.8255730   3.1942236  61.5788937
  91.5208149  19.1405463  75.2773809  90.9626198  18.4334898  75.6009912
  90.9226894  19.7223055  74.8083067  26.6763544  97.4467278  11.3909698
  26.6468382  96.5743732  11.7838478  26.0618806  97.9645634  11.9110692
  12.7042234  88.6690331  53.2837868  13.3417296  87.9593658  53.3625031
  12.1643829  88.4237862  52.5323486  19.0610254  45.7467890  24.3246722
  19.0973699  44.7912836  24.3684244  18.1278658  45.9535980  24.3764019
   8.9196444   9.5388144  46.5319824   9.3017137  10.2385724  47.0616913
   9.6511221   9.2049062  46.0126781  22.9277468  77.1190786  92.0416260
  22.3115230  76.4427519  91.7604160  22.6082563  77.3914862  92.9018402
  22.9582810   0.9630028   4.3032852  23.0309772   1.8013488   3.8470799
  23.1859422   0.3097760   3.6416987  61.9011879   0.0015819  17.0832956
  61.8685627  -0.2480499  18.0067956  61.2053823   0.6517021  16.9861948
  88.3298302  19.5337355  69.8434067  88.9556503  19.3922472  69.1330814
  88.7670612  20.1527953  70.4280663  42.3614311 101.8600559  11.1317074
  41.8450689 102.5035000  11.6170704  42.0973873 101.9799614  10.2194929
  12.3265982  94.9240780   6.8795919  11.7425549  94.1657066   6.8804109
  11.7870307  95.6415653   6.5474617  16.3149810  90.3935909  29.9277472
  16.4778590  89.4819450  30.1698065  15.3750813  90.5132580  30.0637674
  99.3439484  30.6959176  86.1140347  99.4564915  30.8811378  85.1816940
  99.6992397  31.4670515  86.5560246  93.0096817  10.4577923  84.4085503
  92.1734619  10.1224673  84.0852451  93.4918785   9.6768904  84.6804237
  24.3379664  54.1810274  10.4458129  24.9760675  53.5131693  10.1947582
  24.1155243  53.9708376  11.3527703 106.7888927  17.8886986  90.6412983
 105.9983444  18.1829333  90.1888847 107.5061989  18.1465554  90.0623226
 110.4204178  59.6938181  68.5246468 109.6337986  59.1936970  68.3070612
 110.0969219  60.4440546  69.0233755 106.0403252  63.5466337  83.5639381
 106.3653660  62.6552343  83.6903667 106.0676479  63.6793947  82.6163769
 107.0441055  67.8742886  67.9674435 107.0721340  67.1543837  68.5976648
 107.4177074  67.5062799  67.1666765  99.1461086  50.5771685   9.7297299
  99.1865253  51.2562847   9.0563798  98.2415009  50.2654982   9.7015619
   8.5112536  46.8475199  82.6181602   8.5879201  47.1965170  83.5061646
   9.1485083  47.3477650  82.1083641 114.9024868  30.4674268  69.8361969
 114.3200016  31.2117934  69.6850252 114.7294331  30.2077913  70.7411146
 106.3047600  57.0046043  83.5731792 105.6852913  56.4034653  83.1595039
 106.8434429  56.4455509  84.1331005 104.8523712  53.6850882  94.9017525
 103.9199162  53.8111973  95.0774097 104.9394798  53.8246584  93.9587975
  98.7550831  16.2276781  78.2670641  98.1198978  16.5070403  77.6077175
  99.0758705  15.3840494  77.9482937  66.7441368 107.2428989  86.5724087
  66.7927837 107.0001030  87.4970245  66.9235802 108.1830788  86.5618992
  89.0699673  19.9837482  77.7574921  89.6399784  20.7503796  77.6975489
  89.5130062  19.3145013  77.2358990  93.0812454  14.5452189  87.0816422
  93.2403564  15.4662704  87.2879887  93.3047295  14.0774322  87.8862953
 109.0677929  59.5174456  91.1744118 108.5031891  59.8885155  91.8524647
 109.0958118  58.5812712  91.3719463 112.7775764  45.8318853  55.6490326
 112.9065418  44.9209118  55.3849745 113.4578800  46.3156319  55.1806259
  51.8494606   3.6407009  20.5658674  51.1472178   4.1633439  20.9530783
  52.6539230   4.0866569  20.8308148  96.0750675  79.4893694  15.9327936
  96.3973141  80.1666832  16.5274620  95.3360271  79.8980856  15.4822302
  48.3484793   5.3884727   5.2628362  48.4554148   6.3357019   5.3497392
  47.9074526   5.1222146   6.0695791  43.9259720   3.4709334  72.1630239
  44.7393513   3.6198726  71.6808796  44.0854073   2.6682550  72.6595354
 100.3065300  65.4673529  90.2749825  99.7983837  65.9759426  90.9069347
 100.5734348  66.1054373  89.6132851  93.5118771  33.3676267  88.3780003
  93.4878445  32.6935673  89.0571880  94.4440365  33.5370398  88.2415676
 113.8684082  37.2101331  92.3712826 113.8792801  36.2531447  92.3882103
 113.4850693  37.4303269  91.5222836  85.4574394  41.3682175  53.2951689
  85.9116650  42.2037697  53.4035826  85.8260918  40.8051109  53.9757872
  81.2463856  14.7579265  70.4504299  80.3105736  14.5742261  70.5325890
  81.3064766  15.7127953  70.4795218  92.4547672  33.5003781  69.4376421
  91.7635822  33.0554438  69.9280834  92.0218945  33.8119531  68.6427975
  65.9932089  81.8466473  15.1584017  65.5406952  81.4814663  14.3980706
  66.7750263  82.2624397  14.7949255  60.4637241   2.7380267  19.4554877
  60.4809809   2.9527763  18.5228479  60.4419327   3.5873196  19.8964620
   4.9092609  13.5896778  68.8049984   4.9990514  14.5418000  68.7645817
   5.6643093  13.2994056  69.3167353  99.9913311  47.8132105  92.1285629
  99.2502594  48.1247044  91.6089249 100.7460785  48.2847166  91.7760372
  12.3527884  98.4338951  25.7947993  12.0286548  97.5432301  25.6611061
  12.7874720  98.4051704  26.6471243  94.1097736  25.3885674  77.6867914
  94.5716000  24.7460961  77.1481085  93.9167118  24.9238992  78.5010672
 110.4789543  32.1032619  65.1125765 110.3233242  31.6116524  64.3061447
 111.3675594  31.8609095  65.3731251   5.8583516  41.7037106  89.5672989
   4.9949518  41.7841101  89.1619492   6.3112658  42.5124884  89.3285942
 103.6847401  31.4351940  75.8958864 102.8803825  31.1694121  75.4502487
 104.3814564  30.9765482  75.4263449 103.0794144  54.1769886  47.3908234
 103.0916691  54.2131615  48.3472586 103.5157681  53.3523750  47.1767139
  18.2997286  98.6133385   2.0251054  19.2312419  98.3967495   1.9850393
  18.2144964  99.1609001   2.8055799   8.2419908  75.6445312   5.9096301
   7.3272741  75.8752441   5.7474643   8.5541034  75.3001070   5.0728565
   2.8278738  38.0828738  71.9477463   3.0620453  37.9784870  71.0255194
   2.4296948  37.2467756  72.1898746 102.6529026  68.0399513  69.2847443
 103.0165195  68.8714790  68.9804840 101.7831135  68.2653332  69.6147442
  88.9396000  22.1987391  89.6084785  89.7298908  21.8566990  90.0264359
  88.2609749  22.1203113  90.2789593  64.6713543  37.3336101  85.1361084
  64.3511343  37.9111266  84.4431686  64.9654436  37.9279518  85.8263969
  31.9960499  66.1357832  10.9968126  31.6000485  65.3402519  10.6410873
  31.7305899  66.8272400  10.3904676 109.4241142  59.1266680  64.7330093
 108.4844685  59.2927647  64.8085833 109.7123814  58.9681959  65.6319046
  70.8045912  95.3458214  47.0295906  69.9121475  95.1063633  46.7797184
  71.2985754  94.5283985  46.9661331 110.3028488  34.4953918  77.1037531
 109.4757175  34.3843627  77.5725365 110.6193352  35.3564239  77.3770475
  82.2043228   6.0052401  76.7327595  82.4187469   6.3738269  75.8757925
  82.6944447   6.5433890  77.3543787 107.3024273  88.7201023  11.3121295
 107.0453930  88.5615921  12.2204459 106.5936852  89.2533779  10.9522295
   6.8887746  24.8409033  80.5324936   6.1586487  24.6089482  79.9586105
   6.9907963  24.0832019  81.1084366   6.4317662  41.1825657  93.4390545
   6.6018885  42.1222830  93.3741188   5.7112420  41.0268497  92.8284550
 113.5623360   3.6343718  64.4922352 114.2473888   3.0059600  64.7203350
 113.9369392   4.1477576  63.7764597 106.6194248  12.4593365  87.2685337
 106.4465714  11.5198779  87.2071266 106.2198925  12.7226937  88.0975437
  87.8474712  62.4839115  80.7761002  88.4052849  61.8779039  80.2884197
  87.0705700  62.5890589  80.2269268  42.8527975 100.9604549  29.9146700
  43.2357645 101.7041779  30.3798962  41.9332314 101.1989975  29.7975063
  27.1647525  54.4599342  81.8584442  26.3266373  54.0034628  81.7847538
  27.8128982  53.8194561  81.5653133  95.7443333  33.7027192  86.3195610
  96.2854195  34.3340778  85.8453751  96.3449574  33.2919264  86.9414425
  26.9761896  85.6679344   5.2088612  27.0855355  86.5285301   5.6133986
  27.2852540  85.0506020   5.8718908  76.8546200  10.2739143  10.3198314
  76.2211323   9.8167622  10.8729458  76.3315153  10.9099090   9.8318744
 108.0721855  33.8596773  81.3969326 107.3816776  33.4498429  81.9179630
 108.8866806  33.5616994  81.8019581  69.4208431   0.1219514  62.8429794
  69.3329763  -0.6159013  62.2395849  70.0459814   0.7075638  62.4157906
 101.4936829  40.7669258  75.8014441 101.9766521  39.9567318  75.6384754
 100.5967045  40.4805565  75.9736490  42.4450350  96.1588955  38.3262420
  42.8245163  97.0227432  38.1650138  42.7797842  95.9070873  39.1869187
  91.3414764  35.5328965  86.1185455  92.0697689  35.8889747  86.6275024
  90.7545185  36.2774897  85.9870720 107.8005123   5.5124968  85.4345036
 106.9534588   5.7183117  85.0390720 108.4359741   5.9909922  84.9020863
  89.6034527  17.3825586  76.0515928  89.5629978  16.8057001  76.8143654
  88.7896824  17.2106242  75.5778360 113.5613823  44.1432381  68.2005262
 114.3350220  43.6736631  67.8887415 113.6070919  44.0736341  69.1541004
  99.5353127  15.4643846  47.5943899  99.0495110  15.0941873  48.3313942
  99.7904778  16.3381672  47.8904152  43.1664038  75.5838108  10.0776756
  43.3052731  76.5054989   9.8598814  43.7894297  75.1108360   9.5259833
  85.4502964  32.5197053  80.4654503  85.7198620  33.1709576  81.1130810
  85.1008701  33.0351925  79.7385311  29.8841476  72.8301334   9.1243488
  29.4326615  72.9295731   9.9625039  30.1737022  73.7149334   8.9018178
  92.1772766  41.9140291  91.5871525  92.1516037  41.0319853  91.2162495
  93.0377007  42.2528505  91.3399506  96.0339451  18.0669475  94.6518135
  95.1772594  18.0079865  94.2288971  96.5010452  18.7380600  94.1541576
  54.2832041  13.0572140  15.9372067  53.8252163  13.8090265  15.5613649
  55.1691961  13.3770561  16.1073577  18.3834743  92.2007465  29.6989465
  17.7383029  91.4937210  29.7089791  18.7379730  92.2141457  30.5879807
  39.3236399  96.7722321  18.0252111  39.5302010  95.8382702  18.0608714
  38.4819031  96.8486977  18.4745026  90.7975388  54.4318962  84.6576977
  90.4760933  53.6132812  85.0355434  91.7483997  54.3255663  84.6294975
  80.4681206  80.0078011  52.3930788  79.5428085  80.1599407  52.5851345
  80.9343910  80.6249905  52.9569101  47.2697115  56.7500973   0.8216666
  46.5456772  56.2362909   1.1794586  47.4334669  56.3658094  -0.0395762
  59.5619535  32.4833298   8.7533486  59.7145987  32.7542377   9.6586335
  60.3481340  31.9923139   8.5144800  29.0253139  87.5247574   9.3777579
  29.7126007  88.1675148   9.2024773  29.2354560  86.7871857   8.8049942
  98.3895206  72.0147943  82.5267506  98.0155277  71.6100311  81.7441082
  98.6913109  71.2771940  83.0569363  12.5316262  57.6822758  57.7385855
  12.1922147  58.4062243  57.2123384  13.3329117  58.0274677  58.1323099
 104.6563721  71.0070992  65.8546686 103.9543343  71.2493229  65.2507639
 104.6949863  70.0518990  65.8062887  12.9803884  61.3617706  85.9704304
  12.9199898  61.0661983  85.0620174  12.1644497  61.8387938  86.1218548
  26.1032844  31.5012741  83.4372616  26.3705635  32.3572445  83.1024456
  25.1553535  31.5731502  83.5490322 100.3218365  37.1037316  73.2048702
 100.2809429  36.5058875  72.4584532  99.5898151  37.7055693  73.0700827
  13.7082064  72.4356508  15.8249211  13.3161736  71.6140032  16.1206186
  14.5850372  72.4344826  16.2088466   3.1561080  92.6051044   8.9427036
   3.1604511  92.3474789   9.8645735   2.2384906  92.5363159   8.6791146
  15.6124139 106.8776035   5.8949298  15.5817020 106.4034653   5.0639755
  16.2904060 107.5411034   5.7671821  89.1272926  41.2145567  87.3680973
  90.0013828  41.6042662  87.3497963  88.9441204  41.0807943  88.2980347
  67.6685286 104.9015999  19.4172907  68.0982351 105.3985214  18.7211227
  67.9502726 105.3294086  20.2258873  89.8236656  74.2575026  82.9233837
  89.3280411  74.2216873  82.1052742  89.7986126  73.3610582  83.2580376
  89.4561291  61.4279175  78.9212513  89.7105789  60.5138493  79.0476179
  90.1965523  61.9315863  79.2593670   6.6265988 100.3965187  81.2555981
   5.8497763 100.9554768  81.2740803   7.3194045 100.9605598  80.9119320
  49.8472071  29.3919349  26.5020704  50.4415560  29.1202497  27.2014785
  49.0936279  28.8079858  26.5878248  48.3776426 105.9699917   0.9869252
  48.7083912 106.7556190   0.5514704  49.0199184 105.2918053   0.7776912
  88.4494877  72.5712490  59.3137693  88.4924889  72.8804731  60.2186251
  88.7722683  71.6709566  59.3527269  90.3118324  30.9652376  60.2636242
  91.2377739  30.8600426  60.0449896  89.9947262  30.0722790  60.3988838
   7.9149568  66.2739182  57.1332169   7.4669051  66.0187101  57.9396582
   8.8443089  66.2642908  57.3622227  58.3792162  51.6350269  -0.0221161
  57.8245592  52.4033213  -0.1574294  58.0492640  51.2406111   0.7852253
  69.5895576  20.0911665  30.9949017  69.0247917  19.6110129  31.6004801
  69.5485878  19.5897675  30.1805615  27.4874878  10.6920457   7.6943994
  28.1855607  11.3241935   7.8656161  26.7526865  11.2236941   7.3883826
  55.4232550 101.8334484  32.3736882  55.0410891 101.3571548  31.6365814
  54.7993898 102.5367355  32.5537324  67.5942802  27.8740954  17.3474050
  66.6811180  27.6439524  17.5188744  68.0527782  27.6554871  18.1587112
  75.8400202  16.6352642  26.2453294  75.9549189  17.5799775  26.1426353
  75.9754086  16.2806010  25.3666282  49.4261980  13.3572865  53.5145187
  48.7185574  13.0883265  54.1002989  49.0358400  13.3339155  52.6408482
  86.7892456  45.0072813  86.4554024  86.9973850  45.5926752  87.1835709
  87.5731850  45.0199223  85.9063053  29.2648578  97.2906017  15.5165112
  30.0514507  97.2323418  16.0588312  29.5689321  97.0904541  14.6312356
 107.9068756  45.8970881  93.5801697 108.6780930  46.3278246  93.2114983
 107.8370953  46.2492466  94.4674969 100.9247017  67.7998161  94.0297127
 100.1556778  67.6754999  94.5859337 101.6066647  68.1042242  94.6284580
  93.0729485  55.5519152  62.0763969  92.3717117  55.1411915  62.5821781
  92.6711369  55.7562923  61.2319994  31.6004443  99.3932438  88.6310577
  31.7992306  98.4584618  88.6849594  32.0135212  99.7711086  89.4074726
 101.0724831  65.6974888  71.5448475 101.8037701  65.2465868  71.9669056
 100.6347942  66.1631298  72.2574806  54.6009827  11.1041641  10.2869296
  54.1214657  10.3847420   9.8761642  55.0112295  10.7099056  11.0566628
 106.9952011  93.3681870  64.4447184 106.7973709  92.6901150  63.7987137
 106.9770908  94.1856670  63.9471006  10.0135756  98.4054947  37.8455877
   9.3181843  97.7695656  38.0136776   9.7666794  99.1725445  38.3622169
  31.6769576  95.6357384   6.1254948  32.4336648  96.0793209   5.7422626
  30.9313321  95.9480000   5.6128871   8.5386872  46.3069582  36.4374423
   8.9579350  45.9810877  37.2338557   9.1966993  46.8738985  36.0351586
  31.6837978  91.5469646  92.7357101  32.1062064  92.3279190  93.0933666
  31.4657259  91.0194588  93.5040951  94.3335629  76.6361427  90.4361534
  95.2143002  76.9870996  90.5679417  94.2710781  76.4944172  89.4915676
  41.5566301  37.2835708  21.5881515  42.4157763  37.6740265  21.7482734
  41.7496681  36.3987255  21.2782860   9.8349231  64.3255711  82.6434708
  10.7112837  64.6674252  82.4663734   9.9513060  63.3762312  82.6814175
  55.7035971   7.9929888   2.8389186  55.1858997   8.6843896   2.4263868
  56.2449694   8.4505653   3.4821683  60.9108686  27.4813247   0.4131924
  61.6703176  27.3712969   0.9853500  60.4810572  28.2735991   0.7353637
  55.0025797  16.3272154   0.0627337  55.3743505  17.2073328   0.0043464
  54.9956608  16.1318111   0.9997509  95.6704998  71.6224909  86.1402607
  96.3719463  71.1646461  85.6770229  95.3743267  72.2926664  85.5243301
  52.1529818  42.5035429   6.6878897  52.4426317  41.6187143   6.4655989
  51.9932461  42.9227734   5.8423376 112.3502636  74.3766260  66.6284895
 112.2582817  74.6178961  67.5502014 111.5350723  73.9214182  66.4175653
   2.4276501  62.4483776  92.9419899   2.7937540  61.5641356  92.9596138
   3.1139606  62.9993057  93.3183956 100.7283401  91.5563107  82.5084114
  99.8628235  91.5777302  82.9166412 100.8450508  90.6443310  82.2421265
  97.7122133  53.4993423  94.9532028  97.9379861  54.3025459  94.4840265
  97.1478968  53.0187572  94.3475517  62.9216576   1.6758277  30.5761766
  63.8193750   1.4761788  30.8416486  62.8712940   2.6313660  30.6015062
 111.4336014  61.7627859  90.0780869 110.6977177  62.2506809  90.4477692
 111.3563728  60.8879519  90.4587936  55.6500435   1.6922778   7.4547660
  56.3255310   1.0310205   7.3041534  55.2069139   1.7785642   6.6107142
   6.8822461  17.8476834  45.2531719   6.4783746  18.7128854  45.3205967
   6.8062669  17.4786651  46.1331081  92.0860672  79.8701096  92.7928734
  91.8787575  79.6561003  91.8832302  91.8913937  80.8041668  92.8695202
  40.0247908  97.6299477  10.0127733  39.7982049  98.2762814   9.3440926
  40.5256224  98.1230640  10.6625676  19.5134246  91.5116882  25.6227946
  18.6857510  91.1456776  25.9345984  20.1810074  90.9116459  25.9552288
  96.9177818  55.8042717  80.4263687  97.7276230  56.2681723  80.6389427
  96.3757610  55.8972931  81.2098217 110.4611778  40.7852983  68.8890076
 110.8240223  41.4127111  68.2637644 110.7892132  41.0776377  69.7393990
  96.6255283  47.3571110  93.7391472  96.8769646  47.2216320  94.6527386
  97.4549103  47.3668194  93.2613754  82.9399300  12.4086189  15.6342685
  82.0766640  12.7578640  15.4128110  82.9905987  11.5777600  15.1616836
 109.0266991  47.9789925  57.4403191 109.4002533  47.5814342  56.6537857
 109.4259548  47.4974298  58.1648350 109.1412258  30.3638053  94.8844433
 108.2156086  30.4815912  95.0979805 109.1412067  30.0671744  93.9743710
  91.0091782  50.9732819  90.9875679  91.8259048  51.4678335  91.0554218
  91.1934090  50.1447392  91.4300632  56.5472937  30.8512807   2.3093918
  57.1824694  30.1353741   2.2932281  55.7192707  30.4425597   2.0572901
  76.5618753   7.5602829   7.3281705  77.1884823   8.0887389   6.8338698
  76.0702515   7.0837188   6.6592729 107.4134064  25.9614730  57.9063129
 107.7766418  25.3163266  57.2996235 106.5005779  25.6965280  58.0194092
  83.9834499  72.7348995  73.4156752  83.1853104  73.2303095  73.2319260
  84.6901989  73.3719063  73.3109522 105.6708050  70.7102108  42.1525431
 105.9367180  71.1123085  42.9794931 104.7245979  70.8490610  42.1120548
  49.7407675  26.2924457  23.8500977  49.2786884  25.5617380  23.4392691
  50.6353617  26.2285137  23.5156631  51.7582130 108.0398273  27.6823902
  52.5416422 108.0618000  27.1328592  51.2201786 108.7635422  27.3614860
  11.2100136  63.3132219  60.0481129  11.0012007  63.4861374  59.1301107
  10.4735982  62.7915144  60.3670883  53.0198622  73.3730364  59.4231176
  53.4316111  72.5544405  59.6998692  53.2865381  74.0110111  60.0850105
  18.8990855  53.8145542  70.7853031  19.8145413  54.0659142  70.6628561
  18.5166430  53.8687038  69.9094963  93.6341858  52.0967674  94.1404152
  93.6010742  51.3075733  93.5997581  93.3238983  51.8115187  94.9998283
  89.8423004  71.6025114  83.1685448  89.9478149  70.7413530  83.5729027
  90.3634739  71.5562153  82.3670006  76.0180950  69.6407890  82.3884106
  75.9382391  68.7983084  81.9411087  76.9527578  69.7239971  82.5773716
 105.0411510  64.0337276  91.7088890 105.5439377  64.7635555  92.0705318
 104.6796036  64.3741655  90.8905792  21.3971043  89.1185188  87.0262909
  20.5229259  88.8846207  86.7143059  21.5307832  88.5689926  87.7985477
  81.1282921   9.3957222  81.9270039  81.7461777   8.7638968  81.5592575
  80.6622601   9.7449780  81.1673546  63.1922579  79.7513628  24.0244699
  63.9052296  80.3822613  24.1238594  62.7578592  80.0070763  23.2107520
  59.9125767  17.3904908  16.9481003  60.2271128  18.2513595  17.2241521
  59.5027494  17.0228338  17.7311063  11.4038467  36.0240364  78.6104345
  11.2768424  36.6680026  79.3071461  10.6964898  36.1998057  77.9899645
  68.0528784  14.6869886  16.0726297  68.6983204  14.6955323  16.7794311
  68.4234905  15.2617168  15.4028809  94.9071789  71.7019701  71.4977407
  95.1425648  72.4267673  72.0769596  94.7912884  70.9545135  72.0843458
  94.9385166  91.4419842  72.6034784  94.3808651  91.9746208  73.1705427
  95.4983616  90.9544182  73.2077026  18.8805258  70.5248976  81.3687801
  18.9523005  69.6978474  80.8922577  18.2616961  71.0442114  80.8553696
  16.7517686  37.4262571  90.1809883  17.0963144  37.6765800  89.3237495
  15.8942068  37.8489685  90.2271843   3.2662481  43.1296921  85.2034092
   3.7541837  43.6332560  85.8549976   3.9247307  42.5714493  84.7898865
  88.1101131  47.7079153  90.9704113  88.8921547  47.9930258  90.4978085
  88.4443665  47.1465111  91.6699314  99.0379810  69.1992521  81.3069725
  98.4158611  69.7851181  80.8757401  99.4953156  68.7639999  80.5875111
  90.9453011  31.7896724  37.7685547  90.4184818  31.1614943  38.2626081
  90.6659985  32.6452279  38.0945086  42.9723167  88.6083317  29.8704767
  43.1886053  89.4853210  30.1872373  42.2415400  88.7449169  29.2675352
  62.6121950  15.4552603   5.1318318  62.1985197  16.2582469   5.4485619
  62.9757166  15.0470781   5.9176248   8.2636505  68.8429403  69.1703939
   8.4188473  67.9057980  69.0524483   7.3824263  68.8950634  69.5404768
  17.4412513  48.2432652  90.0838280  17.9866576  48.2476759  89.2972183
  16.5509808  48.1128454  89.7572613  32.8505731  51.0906887   1.7084733
  33.7917924  50.9577608   1.8210444  32.4464154  50.4298449   2.2707637
 100.8500290  26.6514182  83.8722420 101.1803913  27.4652433  84.2527390
 100.3516006  26.9310474  83.1043816  75.3823948 103.7746239  80.2940941
  75.4575682 104.7076416  80.4942417  74.4451761 103.5907650  80.3577328
  45.4353523   6.4757234  10.8826900  45.8658934   5.8293349  10.3231835
  45.7595062   7.3193294  10.5672777  85.5831718  64.0939617  69.5630503
  86.2184620  63.6187077  70.0985575  84.7313023  63.8252115  69.9070263
 112.8377724  43.7024832  52.1841097 112.9607010  42.7595282  52.0747852
 112.4788475  43.7965202  53.0664730  55.2485707 109.7055385  18.3082092
  55.7906011 110.4833684  18.1762469  55.8723596 109.0131712  18.5267043
  82.4466991  45.6366062  46.5938187  82.2374153  46.2101030  47.3310661
  83.0425072  44.9831820  46.9602728  53.1242895  14.1222095  21.7923093
  53.6817408  13.5696697  21.2444210  53.4311771  15.0132036  21.6244340
  25.4355860  86.4224243  28.2450438  25.5661774  87.2933865  28.6200070
  25.7497406  85.8213139  28.9204741  59.3311167   6.9865125   1.1846471
  58.4465981   7.2746360   0.9591495  59.5513964   6.3412499   0.5128247
  49.2225885  30.5792618   5.1758462  49.5074081  29.7253823   4.8502681
  49.9034548  31.1858416   4.8847991  16.4795816  69.3429804  83.4541702
  16.5549612  69.0381861  82.5499344  17.1301103  68.8308573  83.9345646
  83.0793095   7.6244980   4.6921247  83.6297989   7.4241555   5.4491299
  82.9324532   6.7771482   4.2718092  85.0450706  73.4124565  82.1910000
  85.7997036  73.3378124  82.7751160  84.3880177  73.8795710  82.7070618
  99.5926857  60.5278683  78.2515430 100.3287888  60.8311033  77.7200937
  98.8735294  61.1167049  78.0228186  36.8832970  48.8365269  27.4844837
  36.4674473  49.6718216  27.6979923  36.2426329  48.1758356  27.7476668
  80.6768036 104.3310261  40.2717733  80.8241749 104.6185493  39.3707490
  81.4338398 103.7815285  40.4746914  98.3241653  97.5304699  12.7250755
  98.2131958  98.1725025  12.0238507  98.2628822  96.6824818  12.2853088
   9.8147839  98.7610149  20.1225328   9.4404471  99.6419239  20.1126838
   9.0672576  98.1814671  19.9757087  67.5652790   9.7312093   5.1067317
  67.2203112   8.9860004   5.5985600  67.5478601  10.4579234   5.7294786
  38.0566406  96.4000988  22.8702164  38.9757586  96.3478756  22.6080585
  37.6597691  95.6063747  22.5114179 107.6955128  57.2860622  91.0256386
 107.9665756  57.8209496  90.2795506 107.2656536  56.5266323  90.6322956
  22.1543574  61.6857576  94.8688793  22.5653481  61.8967342  95.7072067
  22.6230931  60.9101200  94.5608139  42.2958469  14.1475117   1.0948364
  42.0141506  14.8071229   0.4609667  42.8676128  14.6231639   1.6973892
  97.2294044  26.6619658  79.4231939  96.9307518  26.2481380  80.2330017
  96.7215443  26.2338209  78.7339926  52.6748610  53.9578009   3.1437224
  53.6158371  54.0488958   2.9937333  52.2930527  54.7447062   2.7548352
  24.0768552  79.3785429  14.8192322  23.2421994  79.8198414  14.9768341
  24.7317195  80.0733566  14.8871648  94.2432404  67.9154682  86.8680000
  94.9395466  67.3379278  86.5552139  93.4761524  67.6669216  86.3522243
  98.4410095  49.7560406  62.0620871  98.7883186  49.9408674  62.9346991
  98.1236267  50.6021404  61.7464685  32.5314832  60.3826952  65.7340574
  32.6171684  61.1703396  65.1969242  32.1709180  60.6964111  66.5633965
  88.7386513  65.3093338  78.3118916  89.3068886  65.1890516  79.0727234
  88.6537838  66.2587070  78.2240343 104.5463943  48.4660387  68.6833954
 104.8521233  48.0862617  69.5071268 104.5689583  49.4112825  68.8324976
  89.4322300  69.0796375  70.8434153  88.5649681  68.7285852  70.6413269
  89.3249512  69.5092154  71.6920567  24.3096948  85.0889874  59.3618298
  23.8467288  85.8893681  59.1142654  23.8228321  84.3872547  58.9296627
  96.9681835 101.8616867  12.7995396  96.3538742 102.0616055  13.5058558
  97.7395439 101.5112686  13.2450187  17.0932674  56.3978195  51.6310549
  16.6912735  57.0471191  51.0539532  17.6271760  55.8575630  51.0485601
  12.1537566  98.6101818   6.8499148  11.9687915  99.5492172   6.8344045
  12.2392452  98.3676434   5.9279066  30.1335883   6.3876992  83.8854694
  31.0128713   6.2136447  83.5496235  29.8715544   5.5689263  84.3064022
  38.5135961 107.1346188   3.6792746  38.9604473 107.9596233   3.4897518
  38.5946417 106.6272926   2.8716311 114.4943237  87.4966621  78.0922365
 113.5953522  87.3510456  77.7974701 115.0313187  87.3191452  77.3199940
  18.6099696  67.6792526  84.5577717  18.8543522  68.2935858  85.2499390
  19.2843461  67.7924681  83.8879681 113.3890820  80.9702587  79.6530867
 112.8943539  80.2310181  80.0066280 114.2812634  80.8362770  79.9729300
  44.7046375   3.2809538   2.1203257  44.5622015   2.3449811   2.2613902
  45.1286125   3.3322680   1.2636791 113.9470196  55.7440519  85.6500721
 114.6226788  55.3494358  85.0987148 113.8715076  56.6429758  85.3299809
  48.6715746  13.9628673  13.9996767  47.8788948  14.0063870  13.4648907
  49.3536663  13.6732399  13.3937871  28.7243748 101.0462189  19.6195471
  27.8634477 101.4187431  19.8099732  29.2279673 101.1845779  20.4217219
  89.1324425  74.8177719  76.2426853  89.3585968  74.2046690  76.9421005
  88.1974602  74.9839067  76.3628626  10.2785349 102.8981972  24.7970986
  10.8697665 102.2196579  24.4711232  10.2594483 103.5541916  24.1002917
  80.7035065  74.1812372  87.1830082  80.1264668  73.4189701  87.2299671
  80.4255676  74.7372437  87.9109001   2.8604925  61.2996531  77.6521635
   3.4394717  61.4668226  78.3958483   2.6910067  62.1656084  77.2811842
  15.7302868 107.3942375  12.8404057  14.8437989 107.5926399  13.1420839
  16.0531402 108.2221603  12.4846804   1.5236782  70.6430054  81.7771912
   1.2543145  70.5928612  80.8600426   1.0091762  71.3646317  82.1388149
   2.1717267  84.2543793  76.5481758   2.2713144  84.7713566  77.3475838
   2.1415736  83.3471298  76.8518591  78.0603600  51.8330717  16.3616157
  78.0168152  51.5915251  15.4364169  77.7709436  52.7451706  16.3849092
  12.9946136  93.9086628  66.5665245  12.9634321  94.4160843  65.7554817
  12.0827198  93.8591576  66.8532801 103.4928513  42.8725719  75.7098532
 102.7438736  42.2893143  75.5870533 103.1937027  43.7194586  75.3788948
 107.7492619  30.2148175  59.2963266 108.1488609  31.0346508  59.5868921
 107.1051216  30.0090218  59.9737930  84.9304295  86.5527821  74.5233393
  84.5974350  86.2640190  73.6736584  85.4295921  87.3458195  74.3280220
  68.2302094  17.0426738   2.4413025  68.1560326  17.9861093   2.5850335
  67.9053736  16.6506374   3.2518718  59.3874216   7.1734577  20.2773428
  60.1339149   6.9245970  20.8223653  58.7635708   6.4552462  20.3832221
  25.4086137  34.2735314  75.1848364  26.3511610  34.4403720  75.1865101
  25.0210333  35.0857186  75.5109787 115.4563236  73.8735533  62.7394247
 114.7252274  73.6361885  63.3098650 116.1218262  74.2191982  63.3342886
  39.2045307  92.9179001  39.3707156  39.2089367  91.9615459  39.3307805
  39.8550010  93.1876945  38.7223864 102.7700806  47.3830843  52.0744658
 103.3341408  46.8891525  52.6695251 103.0877113  47.1568489  51.2003088
   1.6733161  79.4201136  70.4817867   2.5382745  79.5606613  70.8669186
   1.0668220  79.8283339  71.0996485   3.1312513  73.3520412  81.9434166
   3.4100705  73.8056374  82.7388668   2.6088077  72.6146173  82.2588348
  56.5636873  43.9957523   7.0143282  56.8780231  43.6137152   7.8337616
  57.2749567  43.8454771   6.3916397  29.8359632  88.3823490  12.2117496
  29.6425629  87.9421425  11.3840723  29.9524307  89.3018150  11.9725037
 113.1270218  41.2400770  93.7592220 112.5753117  40.8488369  94.4365501
 112.5120735  41.5179920  93.0803776 104.6524906  74.5081472  68.7563181
 103.7935925  74.0873861  68.7176371 105.0535202  74.1611481  69.5531845
   6.1106110  34.0058827  57.1046877   6.8312156  33.8816261  57.7223587
   5.6065154  33.1939411  57.1582842  42.5664854   5.0266665   2.2178784
  42.8769541   5.6219542   2.9001328  43.2623863   4.3748200   2.1339184
 110.6340504  50.2993822  70.3423119 111.3345051  50.9015036  70.5934048
 110.9607220  49.8678446  69.5528173  88.4769058  62.3685503  54.4327211
  87.8837299  61.6542244  54.6653366  89.3477631  62.0382023  54.6534157
  45.1815891 102.1141720  10.4055941  45.4083681 101.1859608  10.3486812
  44.3017101 102.1230888  10.7823765 115.3206921  38.7325835  62.2646427
 116.0359764  38.1231570  62.4468327 115.6122875  39.2208505  61.4947081
  57.0140266  11.4377093  29.0561056  56.4867496  10.8362508  28.5303116
  57.2687292  10.9249830  29.8232222  34.8497963 101.1776447   3.5257289
  35.7669210 101.0887337   3.2664824  34.6941018 102.1220493   3.5353935
  96.5586567  56.4858055  82.9681778  96.0127735  57.0803213  83.4827614
  97.4302292  56.8808651  82.9908085   9.3411875 108.0029202  27.6550937
  10.0830686 108.2194233  27.0903158   9.1169655 107.1022224  27.4212265
  57.4450541  10.8741820  32.1951294  57.9990911  10.3974867  32.8132176
  56.7054892  10.2879715  32.0350266 112.4044991  40.3503370  66.2179804
 112.3638725  39.9975514  65.3290939 113.0931664  39.8418450  66.6462374
  52.0478964 101.4802837  17.0378268  51.7299080 101.8656826  17.8542709
  52.0393038 102.2043800  16.4118624  62.7430916   0.6964510  26.8054032
  62.0161247   0.9733828  26.2476730  63.2120514   1.5061244  27.0072341
   1.3702777  57.3168087  86.5629959   0.8088019  56.8959904  85.9119320
   1.7752475  58.0465269  86.0942268  87.1981812  98.9882183  84.7607708
  86.7966366  99.5227528  84.0757275  87.7376842  99.6025372  85.2585411
  51.8072939   1.0768758   5.2557588  51.9280577   1.9250941   5.6825763
  52.2505808   1.1679067   4.4122884  68.6523437  13.0464232  11.8779945
  67.9530001  12.4184573  12.0591295  68.4192276  13.8194275  12.3921466
  52.8733921  60.0086451  13.4322274  53.4334230  60.7684612  13.2732475
  53.4413528  59.3821287  13.8807011 105.9284592  74.4892073  61.6479206
 106.7973995  74.1601467  61.8779039 105.7747078  75.2082491  62.2607565
 108.1367493  88.7902546  75.6062555 107.6763058  88.4908390  74.8223114
 108.7215042  88.0667210  75.8315897  51.2102747  18.9957011  18.3579588
  51.1992216  18.8509798  17.4118268  51.3335752  19.9400163  18.4543884
  43.5369110  96.5305233  34.7248006  42.5811863  96.5815449  34.7396803
  43.8271666  97.3706245  35.0800800   4.9094832  59.4416380  56.8646955
   4.5435488  59.4207096  57.7489376   5.7478923  58.9862394  56.9416094
  10.5940604  62.3688459  65.8994293  11.1401570  62.7855778  65.2328396
   9.8236817  62.9331541  65.9650278 102.5660038  47.0679951  65.3043938
 102.0726013  47.3015928  64.5181274 102.2673416  47.6897144  65.9680986
   5.9516484  42.5739574  84.5127296   6.3189179  41.8923378  85.0755310
   6.0180664  43.3751059  85.0323200   7.9345721  97.3549461   3.3571637
   7.5602865  98.0788708   3.8592458   8.4567171  97.7800751   2.6768237
  20.2738452  97.3345661  50.9622622  20.7300782  96.9575024  50.2099943
  20.4717708  98.2700348  50.9181643  44.3811274   6.6918898  81.6359901
  44.2921400   7.4654156  82.1927357  44.8673201   6.0655129  82.1721745
  23.1869531  80.4923820  75.1277447  23.8270926  80.5783844  75.8341837
  22.3582315  80.3209591  75.5750322  61.0168648  43.7747240   7.0448792
  60.8199310  43.3692551   7.8892994  60.9996557  44.7154140   7.2210562
 100.9033203  46.7769957  80.3885269 100.3971004  47.4303198  79.9056816
 100.2644062  46.1035728  80.6220150 114.1158199  92.1056938  24.6398807
 113.7830448  91.3237476  24.1993594 114.8663616  91.7944145  25.1458740
  20.2628946  64.7335243  93.0325603  20.1532817  64.3485737  93.9020538
  19.7896218  65.5643463  93.0770588  13.8133252  21.9398570  81.1363506
  14.4494414  22.5425291  81.5215492  14.0288460  21.0885453  81.5172005
 105.3391838   0.8561429  18.6709380 104.4736004   0.8848255  19.0785801
 105.4544926   1.7275728  18.2920635  27.9823875  66.9007397  84.5416451
  27.0331883  66.8359995  84.4364738  28.2224083  66.1177826  85.0372219
  87.2458744  79.1457748  70.0708675  86.9741058  80.0284290  70.3224373
  86.4451027  78.6241436  70.1246405  19.0989113  85.7267761  56.2347937
  18.5912776  86.3417435  56.7642879  18.8388193  85.9155941  55.3331661
  56.9230890  19.5137012   7.9007167  57.3884201  18.7192512   8.1625324
  56.9853735  20.0898337   8.6625719   3.0694887  42.4126434  40.6250095
   3.8703036  42.0597410  41.0128069   3.2632867  42.4742174  39.6896601
  14.4640040  56.3991261  92.7954197  14.5161104  56.1194992  91.8814564
  13.5276377  56.3954449  92.9940033   9.6887141  99.0875053  61.1874771
  10.2211130  99.8264980  60.8930731   9.2807668  98.7529850  60.3887844
  26.0456276 100.0465679  13.5659957  25.6050444 100.7375717  14.0605974
  25.3496909  99.4260979  13.3493984 109.6701813  74.1605043  90.6881523
 109.1272831  73.4243393  90.4060841 109.1420269  74.6081638  91.3491249
  93.1060219  17.4874544  48.8411665  93.9980793  17.8087282  48.9724636
  93.1160355  16.5997601  49.1991186 107.9788780   9.8079967   2.4228574
 107.1703243   9.9643642   2.9107302 107.9370975  10.4195559   1.6876830
  28.5052705  78.0340767  92.0854664  27.8597116  78.5630703  92.5541306
  28.5250020  77.2035360  92.5609016  73.5676575  84.0778351  58.9043951
  73.2157421  83.2805634  58.5084820  74.2468023  84.3680000  58.2954645
 106.7754745  77.1570587  90.2222538 106.3874912  76.3242674  89.9536133
 106.6531372  77.1832180  91.1712456   1.3064092  93.5898876  82.9465580
   1.2970525  94.3537045  82.3697472   0.4045720  93.2693100  82.9341507
  87.6625824  80.6809425  78.9007568  87.4351501  81.5010834  78.4627151
  87.4577427  80.0015068  78.2583904  53.7814617  57.8757572  87.3996925
  53.0586958  58.0551481  88.0010700  54.5598984  58.1882286  87.8608131
  91.5211773  64.2908525  70.7452965  92.1971416  64.6047497  70.1446486
  91.5069866  63.3426046  70.6154537 109.2951298  69.7691011  86.7927933
 110.1600552  70.0878334  87.0507717 108.7238026  70.5325365  86.8763733
  73.0238152  47.2766733  12.7769828  73.8609648  47.2309494  12.3151183
  73.1736612  47.9057646  13.4826899  69.1152525   2.6940987   1.6062944
  69.5494699   2.6421222   2.4577561  69.0609646   1.7857678   1.3092764
   1.6669568  54.0149355  68.7284803   2.2414730  53.6259174  69.3878937
   2.1660817  54.7547579  68.3823967  99.6909332  47.9645157  95.1068592
 100.0196266  47.5193548  94.3258190  99.3950367  48.8177395  94.7895622
  23.0896783  71.1243868  61.1931896  22.7369928  71.5201283  61.9902039
  22.8132486  71.7131186  60.4908991 100.8355713  50.5200720  69.7210884
 100.9185028  50.8625221  68.8311005 100.1233864  51.0291576  70.1082087
 112.1629333  34.2576098  73.8700914 112.2020626  33.5384750  74.5006037
 112.6671982  34.9615383  74.2780590 113.6100864  36.7523265  47.5505114
 114.5169449  36.4516282  47.6090717 113.3968449  36.6903424  46.6194296
  62.0603609  31.5989804   7.7059257  62.7308035  31.3395476   8.3379340
  62.4185181  32.3798466   7.2837806 107.2970200  44.8943949  84.7156334
 106.4866066  44.5961094  84.3027306 107.3576164  44.3821669  85.5219746
  71.6213655  26.5208888  14.6972692  71.9183159  25.6855249  14.3364096
  70.6663895  26.4764857  14.6495402 106.3348484  60.8874226  84.8031044
 107.0395088  60.4848146  84.2955589 105.8850384  60.1498890  85.2153492
  94.4600391  62.3406458   5.3834915  95.1975060  62.2507381   4.7799227
  93.8503742  62.9239702   4.9315298  63.5067415  34.0911818  36.3064551
  63.6490250  34.5682693  35.4889131  64.2967272  33.5617638  36.4154196
 105.4291439  83.8861370  70.3629160 104.8996067  83.0906487  70.4178667
 105.6533051  83.9610481  69.4353580  97.7571011  72.8720188  93.8236904
  96.8247128  73.0826187  93.8739967  97.8417301  72.0448256  94.2978477
  26.0021687   6.2211311  85.7318401  26.5548015   5.5770075  86.1744881
  26.2707686   7.0619559  86.1021137  67.6322985   7.3107672   6.1043280
  67.9289436   7.0540208   5.2312219  68.0603504   6.6906965   6.6946816
  78.2406664  27.3774934  19.7554862  78.6588907  26.9947219  20.5267239
  77.4275684  26.8827963  19.6536243  99.6972561  53.2259464  85.2832985
  98.8690567  53.3108234  85.7556534  99.6718407  52.3441362  84.9118137
  12.7503991  94.1362286  24.8438573  12.1289253  94.2966557  24.1337419
  13.6107385  94.2355251  24.4361925  93.9516068  64.4198847  79.6634960
  94.0936565  63.4805155  79.5467138  94.5045948  64.8302221  78.9986181
  29.1685414  71.6553974  83.5146141  28.5114980  71.2489176  84.0796757
  30.0056005  71.4327431  83.9220333  65.4020214   8.3845776   1.6413382
  65.3530979   8.2885242   0.6902271  64.5269728   8.1508440   1.9509988
  55.3515673  54.2957115   2.5337133  55.9662199  54.5049524   1.8303978
  55.7714796  54.6302271   3.3261812   8.2309818  85.2371216  92.8922272
   8.2955420  84.6865559  92.1118832   7.9773587  84.6337795  93.5907173
 103.6089325  94.0184021  93.4103203 104.1346836  93.4189320  92.8807449
 102.9173660  94.3163395  92.8193855  48.0783844  34.8822379   2.0584148
  49.0044785  34.7641110   2.2696617  47.9920292  35.8176851   1.8748005
  93.9123631  75.4419231  79.6252203  94.7664833  75.8019590  79.8641443
  93.4735489  75.2906179  80.4623413  10.7940519  83.3850193  63.7610483
  11.6142356  82.9174805  63.6031199  10.3145099  82.8272343  64.3735456
   9.6108282  85.9873962  50.7172918  10.2379704  85.4222298  50.2661800
   8.7695980  85.5427647  50.6130791 105.4075050  80.4948139  68.6132622
 104.7092724  80.9739876  69.0594578 105.6825066  79.8295784  69.2441845
 107.8401947  70.4874659  78.2521105 107.8987789  69.7144794  77.6905966
 108.2481861  71.1863422  77.7408886 107.6313305  79.4094467  95.0389671
 107.0286369  80.0650978  95.3898525 108.1469154  79.8830652  94.3862057
 101.8526554  68.9336777  62.4036455 102.6012135  68.3524466  62.5380373
 101.4207077  68.9691591  63.2571077  98.4241199  98.3151340  81.6138649
  98.1573868  98.4865093  80.7106876  97.6808834  97.8510284  81.9991398
  17.8149557  64.9677372  54.5127106  17.4718773  65.6778860  53.9702940
  18.5163903  65.3731394  55.0224876   7.3999637 106.9011593   9.0301889
   7.8123027 107.5399685   9.6116799   8.1230462 106.5462875   8.5130340
  14.7538042  27.4325037  55.7102013  14.1669559  27.3983479  56.4656305
  15.0813746  28.3318710  55.7018518  70.4198694  10.4013431   0.9740242
  70.2924490  10.5032277   0.0308294  69.5722485  10.0975299   1.2987801
 106.4433670 102.5276566  59.5563793 105.8855152 103.1918144  59.9612522
 106.9792080 103.0143356  58.9300776   7.3517418  39.2910743  89.3010330
   7.5400048  38.9943457  90.1913929   6.9188130  40.1368666  89.4169617
   8.5549474  55.2714682  51.6556740   8.3844846  55.4422617  50.7293892
   8.1285036  54.4317722  51.8268299  32.9526329 108.7669373   8.6429924
  32.5479722 109.5672226   8.3082861  33.5500550 108.4917164   7.9476023
  42.3421097 107.5294590  11.7036009  42.2274971 108.3594513  11.2407613
  42.3993778 107.7759361  12.6267481  81.8207169  79.3374157  72.6516914
  81.3225555  80.0671768  73.0198288  81.9159698  79.5559406  71.7246532
   8.8054425  83.4748363  73.1799507   8.8936412  82.6113987  73.5836029
   8.2771039  83.3203030  72.3968744  24.8375487 105.1698685  89.0343571
  25.5651426 105.4677486  89.5803452  24.2848849 104.6617508  89.6281719
  16.6143382  62.3158884  58.2042694  16.9339859  61.4176416  58.1193590
  17.3270726  62.7836037  58.6395645 107.9131126  65.2269363  90.6778336
 107.8972054  64.2724991  90.6068802 108.8046932  65.4707718  90.4291248
  39.7691683  12.5851512   0.6230033  40.6122927  12.8773617   0.9693874
  39.9860863  12.1555018  -0.2043950 107.0860195   3.4867683   6.2429017
 106.2365055   3.1257999   5.9894121 107.6757336   3.2325128   5.5330938
  35.3314614  99.5433044  64.2796516  35.1395869 100.0667095  63.5015345
  36.2437034  99.2753124  64.1690683 105.5218887  57.1896172   6.2203556
 104.9524784  56.5830612   5.7469726 106.3783646  57.0874929   5.8053112
  90.5310440  32.0373249  11.4676785  89.8108864  32.6609206  11.5611005
  90.6579971  31.6843653  12.3483229  85.9805107  10.2503943  17.1636224
  85.8102703  11.1169231  17.5329173  86.4324284  10.4263127  16.3383591
   2.1990837  44.0453482  82.7451420   2.4143980  43.5946608  83.5616970
   2.3478445  43.3900452  82.0634651  43.0038834  86.6223240  71.5443563
  43.3077431  86.8406010  72.4254131  43.7979937  86.6237354  71.0099220
  24.3872166  68.0299425  90.8161354  24.1214204  68.8844490  91.1558533
  23.6442924  67.4561405  91.0033417  60.9724951  18.6181808  56.3171959
  60.4280090  19.3960023  56.4386749  60.4486561  18.0439889  55.7585144
 111.1912441  62.3066425  73.0219173 110.3304195  62.4389553  72.6248026
 111.6181755  61.6611004  72.4586821 102.7888012  56.7751789  80.6301403
 102.8325939  57.2227144  79.7851372 102.6394558  57.4759388  81.2648487
  53.7904263  22.6429772  14.5079374  53.1404257  22.6482844  15.2105761
  53.2854271  22.4590445  13.7158692 105.3326797  71.1273336  50.8869505
 105.2477837  71.7037868  51.6463757 105.1118755  70.2577162  51.2204695
 113.9092731  65.3287649  70.6267357 114.3619728  65.5479240  71.4411497
 114.4459343  65.7250214  69.9402905 108.9535618  78.5811901  70.5095100
 108.7706757  77.8304005  69.9446154 108.6766052  79.3401909  69.9962473
  88.3748817  80.7978153  55.5045509  87.7435780  81.4042473  55.1173353
  87.8723621  79.9991035  55.6650400  11.9768703  91.8762589  93.0734348
  11.8119156  91.7660904  92.1370125  12.1193254  90.9870243  93.3977890
 103.2565308  76.7410469  79.2551041 103.7091446  76.1103535  78.6951160
 102.3925209  76.3555336  79.4003487 105.4849434  47.3463011  71.1479712
 105.1848793  47.0450830  72.0055628 106.4389038  47.2806740  71.1913729
 105.9265518  66.7661905  37.9838705 106.2892246  67.0281982  37.1376753
 106.6867256  66.4869785  38.4941626  24.9607921  10.1918972  74.6362257
  25.6246090  10.8118010  74.3340731  24.8506474   9.5837420  73.9053059
  34.3436074  22.7775502   1.5191519  35.0568986  22.3597360   2.0017274
  34.7571564  23.5161471   1.0722893  61.2107086  32.6316452   2.3540241
  60.6895542  33.0852747   3.0164811  62.0883512  32.5814271   2.7327779
  91.8851757  78.7244606  84.0065956  92.4899197  78.1754780  83.5074615
  91.0160828  78.4543419  83.7100220  69.1843367  16.7895937  69.4037294
  68.4321165  16.3270843  69.0342951  69.6517038  16.1230171  69.9071884
  19.0605426  97.4808979  36.0321689  19.5433450  97.4542427  36.8582582
  19.6628785  97.8978443  35.4160690  66.2522364   2.8251073  47.3964071
  66.8791008   3.5484391  47.4044657  65.3978920   3.2494408  47.3172283
  78.2259178  22.5865674  84.9525642  77.4205875  22.2923923  84.5269585
  77.9269409  23.1346011  85.6781673  87.7013111  38.9195752  92.8136635
  88.4911537  38.6019588  92.3760605  88.0252457  39.5112848  93.4927654
  62.6655912  12.3344135  49.7608232  63.3532333  11.7331994  50.0470400
  62.2566891  12.6345170  50.5725956  64.1193581  30.4378986  57.4525881
  64.1586637  29.8123240  58.1760120  64.2446804  29.9045730  56.6676760
  36.8211865 108.5212421  44.4816828  37.7548265 108.4167099  44.6650505
  36.7909956 109.0696907  43.6977673  71.4830732   1.5533486  60.8301163
  70.6657648   1.7306951  60.3645086  72.0876122   1.2585743  60.1490355
  90.7858276  28.1351852  57.7465820  90.1236248  27.9661465  58.4167576
  91.5282822  27.5866365  57.9997540  81.7781162   3.4594277  27.5542116
  82.0151997   3.8014087  28.4162283  81.0831165   2.8254098  27.7309299
  53.1140947 101.8341637  59.8617935  52.9650545 100.9484482  60.1927328
  52.8726578 102.4059200  60.5905199  89.1012764   5.8013159  66.0118675
  88.8390255   6.5855080  66.4940453  89.9818802   5.6063622  66.3324213
  23.3441734  99.5287609  77.6504564  22.4589753  99.6315670  77.9998684
  23.3983302  98.6056519  77.4031210  88.6380386  20.4510164  92.8615665
  88.4158897  21.3525867  92.6290703  89.5182133  20.3224254  92.5080299
  38.8228893  32.7855945  47.4047995  39.3711138  33.3133864  47.9854155
  38.1374955  32.4364305  47.9744959  78.9375162   9.1974920  56.3881588
  78.1990910   9.0656716  56.9827890  79.2478514  10.0815618  56.5839720
  91.7896461  53.5535622  56.3706589  92.2421741  53.4622526  55.5321455
  91.4666557  54.4546223  56.3716459  85.6245518  99.5167637  57.0603848
  85.4884815 100.4632092  57.0161104  86.5102863  99.3860340  56.7218447
  23.3620882  96.5474796  81.6377258  23.7799168  97.1772957  81.0503674
  22.7893472  97.0790291  82.1905899  71.3002253  22.3581982  58.2134771
  71.0351753  22.1039152  59.0974045  71.5277338  23.2849026  58.2889223
   9.0366554  70.7823896   2.1268751   8.1194764  70.8017445   2.4000785
   9.3272370  69.8924255   2.3262815  96.6041088  37.8952622  75.2609634
  96.7674351  37.1323252  75.8154726  95.7598686  37.7146006  74.8476171
  45.3031969 104.5702171  87.7791405  44.6782207 104.1783237  88.3891106
  44.9963570 105.4699421  87.6669598  64.0746355  13.3456278  16.5114915
  63.4573746  12.6170874  16.5781951  63.9417839  13.8465548  17.3162603
  17.4040818  91.7697906  44.5445681  18.0135441  92.3636818  44.1062880
  17.3391235  91.0168743  43.9570904  29.5603228 104.3715286  63.3312988
  29.0652776 104.6781254  64.0910101  29.7450519 103.4517002  63.5211182
  53.1221724  30.9159660  62.5113201  53.4596252  30.1577568  62.0343733
  53.9049053  31.3755870  62.8151464  83.6379623  22.1900868  83.3621979
  83.7119198  21.3649940  82.8826332  84.4374657  22.6679015  83.1414700
  90.1446724   7.1213520  52.5325060  90.0972366   6.2829232  52.0731354
  89.5742798   7.0103240  53.2931328  80.9869906   0.4277505  73.3343792
  81.3068435   0.8861531  74.1114187  81.4389703  -0.4158603  73.3509636
  58.0004072  10.2565110  54.2365265  58.6516476   9.9432921  54.8642349
  58.1536722   9.7320652  53.4505892  55.4103756  84.3447113  17.2804976
  55.5040455  85.0759888  17.8909862  55.9820032  84.5705795  16.5467012
  23.8124299  99.0108681  35.1335979  23.5604954  99.0694427  36.0551882
  24.7695231  99.0180111  35.1460171  66.9123602  17.4663103  56.5794659
  66.6360140  16.5668690  56.7551661  66.9638538  17.8742337  57.4438620
  48.2334995  74.3953466  77.7890730  47.4435616  74.5648766  77.2757626
  48.8910103  74.9838877  77.4182272  93.9091873  35.7781124  70.3294992
  93.7133598  34.9955964  69.8141813  94.6938515  36.1437297  69.9210167
  94.7842216  23.5362959  63.8092947  94.0241814  23.5635138  64.3905258
  94.5636559  22.8708220  63.1575871  28.4899116  88.3253765  63.0353308
  27.9464078  89.1089058  63.1185484  27.8635335  87.6099014  62.9258919
   7.9881448  21.7047739  85.2925014   8.5725939  22.0036554  84.5958519
   8.1244850  20.7580686  85.3298187  23.8519454  75.5722809   0.3155251
  23.7019634  76.2638092  -0.3290882  23.1098890  75.6398964   0.9163690
  10.2390122  73.0260515   4.6744117  10.7836413  73.7364626   5.0134224
   9.6432245  73.4536505   4.0592468  91.1623383  21.9812989  49.9363232
  90.2808571  22.2996926  49.7418022  91.0984707  21.0303450  49.8478031
  15.5613399  72.5155687  68.6935043  15.1333773  71.6997671  68.9534092
  15.0287652  73.2032776  69.0930700  55.2032089  17.9528379  90.3472519
  55.1241684  17.6677406  91.2575817  54.8007441  18.8211906  90.3324127
  76.5230036  25.8542061  83.0050468  76.2387228  24.9408007  82.9717827
  76.5833998  26.1198282  82.0874310  65.1171064  20.2051449  43.1142187
  65.4120731  20.5572438  42.2744274  65.4040956  20.8516812  43.7590885
  83.0441093  23.0603456  47.7148151  83.0774784  24.0118265  47.8138113
  82.5968361  22.7530360  48.5033178  54.3825197   7.5849843  71.2814713
  55.0284338   6.9624323  71.6153145  53.6644602   7.0377129  70.9634781
   8.6887550  67.3427725  13.9110506   8.0369598  67.8908873  13.4740555
   9.4407928  67.3466825  13.3188891 107.9384327  32.3018456  84.2583370
 107.1006584  32.7132249  84.0458965 107.8688431  31.4173341  83.8991356
  91.2350082  26.3265085  79.3402481  92.0479965  26.6414118  78.9451361
  90.8082104  27.1164894  79.6719122  64.2580271  80.6484509  65.7338762
  63.9457798  80.1955128  66.5171909  65.0213194  81.1433697  66.0316467
  57.2129154  30.6899571  92.0891857  57.3715115  29.7800016  91.8380642
  57.6847935  31.2047958  91.4345741  75.9081793  15.5218065  82.3061562
  75.4900837  15.4077446  83.1596279  76.0857201  16.4607191  82.2499847
  80.9142017  14.4974756  63.5719728  80.4072475  13.6856425  63.5846567
  80.2592182  15.1902175  63.6576366  66.8225241   9.4524097  85.4732227
  67.7010822   9.7809517  85.2823448  66.2361050  10.1420760  85.1622486
  99.0034676  26.0013795  91.0407448  99.0938377  26.3550282  90.1558685
  98.0970001  25.6971931  91.0856915  72.3440123  45.0597906  84.5505810
  71.8047571  44.7996187  83.8037586  73.2386732  45.0634623  84.2102814
  82.7204514  61.1046648  72.0122623  82.9092979  61.9950581  71.7160082
  82.6360893  60.5966187  71.2054157 103.3278275  59.1001081  13.3922875
 104.1449261  59.5643234  13.2103860 102.7468967  59.7700310  13.7527835
 109.7397995  20.2666116  47.3742151 110.4188251  20.7626748  46.9169664
 110.0925827  19.3789792  47.4365187  64.7405577  27.3285198  86.0000229
  64.5790863  28.2537532  85.8153629  63.9328098  27.0220160  86.4121342
  85.7520199  24.4343328  55.3662920  85.5197716  24.6199727  56.2761402
  86.4512444  23.7833381  55.4256201  96.9811153   1.2117691  67.4002028
  97.3170757   0.8661927  66.5732002  97.6611805   1.8139493  67.7020645
  60.3299522  11.8735051  78.0856991  59.9835157  10.9821737  78.1274509
  60.9549046  11.9217002  78.8091230  68.3623505   0.3954650  55.1863480
  67.6099825   0.1170372  54.6641874  68.2314825   1.3351953  55.3128910
 106.5013599  13.6018908  64.7988701 106.3429642  12.8367066  65.3517151
 107.4438858  13.7548172  64.8658895  48.8137388  13.4886706  69.5250177
  48.2575798  13.1985688  68.8019991  48.3799648  13.1541669  70.3099871
  74.4081640  29.7019005  53.1683207  73.5954046  29.5743513  53.6575890
  74.7811747  28.8238144  53.0904627  85.1614094  17.2325730  42.2658348
  84.5275688  17.5417531  42.9130459  85.1619339  16.2807155  42.3668289
  70.0145531  10.0560999  55.8070850  69.6207142   9.1839498  55.7853222
  69.7668123  10.4095221  56.6614580  74.3642855   9.1721117  67.7319193
  73.5396528   8.8325900  68.0796862  74.1536236  10.0585771  67.4386072
  80.1202774  13.2028317  43.1442070  80.7611847  13.8792181  43.3632326
  79.5798445  13.1214952  43.9300489  71.9746113   0.3829574  84.8327637
  71.6505432  -0.5176412  84.8212242  71.1844206   0.9212849  84.8778439
  34.6587873  37.9373050  79.7996616  33.9222479  37.4246097  80.1326561
  35.3631711  37.7811050  80.4286861  31.6254950 107.5698185  85.0036240
  30.7108116 107.7993011  85.1676941  31.5898609 106.9491100  84.2758179
  34.3696117  84.3661594  72.8017235  34.0673900  84.0668583  71.9442225
  35.3217888  84.2752934  72.7652073  75.0801992  32.0950294  58.8026524
  74.2787457  32.0056248  59.3183184  74.9696636  32.9195738  58.3292198
  54.8948956  54.7640181   6.1527467  54.1685724  55.3127098   5.8567351
  54.4822931  53.9405107   6.4131737  31.9589329   5.8563566  80.9243488
  31.2760186   6.4841795  80.6883430  31.9522190   5.2163386  80.2126122
  68.1781387   4.9230272  72.2821617  67.9143858   5.0547981  71.3714981
  68.5473442   4.0400603  72.2992134  52.0809603  94.1105175  49.8870039
  51.8715954  94.4191456  50.7685661  52.7454710  94.7224712  49.5705175
 107.2010326   7.9570895  74.6556664 106.7366123   8.0240852  73.8213682
 106.7823601   8.6105251  75.2159929  49.2089462 106.2950230  66.2862921
  48.4085560 106.8154144  66.2169600  49.0942669 105.5927849  65.6460238
  48.2387543   7.9553688  58.4433699  48.1974268   7.4282438  57.6454592
  47.4218225   7.7597237  58.9022589  45.8584976 109.2880058  82.4343109
  45.5379725 109.6881104  83.2426548  45.4819584 108.4079838  82.4369812
  75.4716921  35.3983521  30.7462502  75.7473898  36.3136387  30.6965184
  74.6302271  35.4260802  31.2016606 111.5294075  96.1787510  14.9247921
 111.9065380  95.9051323  15.7609367 112.1124554  96.8715000  14.6143222
  96.9363308  12.5016916  32.9106712  97.1907330  12.3688841  33.8238382
  96.0066414  12.2752154  32.8856778  29.8962784 101.7581367  89.4079971
  30.3683400 100.9688377  89.1426563  30.0484109 101.8226242  90.3508282
  75.7557344  23.7030935  91.5755558  76.0095835  24.0588403  92.4271584
  75.7304049  24.4643855  90.9958744  82.9827404  13.8100076  48.0972290
  83.9181900  13.6233079  48.1767654  82.7850723  14.3679869  48.8494396
  73.4465456  22.6070976  64.6238708  73.7233782  23.3864069  65.1058197
  73.4473038  21.9081783  65.2778864  54.4604445  22.8826690  65.9074020
  54.7167063  22.8365803  66.8285084  55.2610683  23.1368780  65.4484844
 105.4043293   9.4067252  80.8864880 105.1064777  10.2546644  81.2158966
 105.9821606   9.0727669  81.5726471  31.3465142  20.8303118  34.4394422
  31.9581819  20.1541042  34.7307134  30.6354284  20.3456068  34.0203357
  35.6119347  56.2270117   8.4439850  35.1196432  56.0290670   9.2406654
  35.3672266  55.5324841   7.8324437  38.5973954 100.1099491  90.2097607
  38.3533287  99.3174267  90.6878471  38.3725452 100.8265018  90.8032513
  59.3070793  89.4520378  57.7815771  60.2087593  89.4300079  58.1020832
  59.3056297  90.1416492  57.1177483  77.6026058   9.8367018  45.2328920
  76.8497372   9.3664813  45.5911016  78.1180668   9.1621375  44.7907448
  87.7933121   8.2283592  91.2566090  88.4439278   8.1267816  90.5618954
  87.4613380   7.3429495  91.4051723 103.3280849  65.5376101   9.7617823
 102.5927734  64.9567938   9.9572414 103.2013607  65.7844639   8.8456839
   5.5692106  43.3534384  81.7212200   4.7846940  43.8917160  81.8262005
   5.7509762  43.0210066  82.6002502  23.7133789  21.1871934  76.9263029
  24.1561747  21.1768985  77.7748680  24.3635798  20.8452153  76.3126945
 110.4993057  47.8425264  47.5054169 110.3138638  48.1474018  46.6172218
 111.1834526  48.4318638  47.8229904 115.6333160  47.5669575  51.1230612
 116.1435413  48.3715963  51.2150669 114.9203014  47.6619482  51.7545795
  27.2796607  88.7727261  13.6808419  27.9366851  88.3704185  13.1127775
  26.4965892  88.2359219  13.5588920   5.8428729  16.6876590  71.3116407
   5.8009797  16.7244828  70.3560638   5.9858352  15.7621348  71.5096235
  68.0603743  20.2511716  62.1684790  68.5940647  20.2002144  62.9614544
  68.0203676  19.3499672  61.8483782  96.1656952  10.2537274  79.2505693
  95.4630947  10.4963982  79.8536444  96.6213036  11.0760212  79.0703297
   5.7110536  28.4806991  85.2148342   5.8310390  29.4147015  85.3865147
   4.8757306  28.4279132  84.7504139 111.4835072  49.7653341  53.7645006
 110.5424976  49.6579838  53.9031076 111.7061329  50.5649853  54.2411804
  65.3723001  11.7511058  72.8010368  66.2300110  11.6171622  72.3977757
  65.3494024  11.1284471  73.5276747  33.3697891  84.7427750  62.4832773
  32.8939676  83.9128971  62.4496937  32.7292371  85.3975487  62.2054386
  14.9447536  52.6098299   8.9577627  15.4480696  52.7776003   9.7544795
  14.9094951  53.4571409   8.5138547  98.1523132  21.6742635  64.5129251
  98.3971691  20.8343434  64.9012661  97.8337288  22.1951699  65.2500725
 112.2746086  18.3290672  68.8052511 113.1819630  18.3676112  69.1076565
 111.8083668  18.9480329  69.3671513  33.8382173  52.7861691  16.6195428
  33.9448023  51.9892836  16.1000812  32.9344225  52.7489138  16.9325948
 103.1674767  30.7497597  60.5220509 103.0582142  31.6797757  60.7204485
 102.7637005  30.6394482  59.6612167  94.5941830  42.0306396  47.0128822
  93.7072277  41.6978264  46.8758345  94.7941589  41.8117857  47.9230165
 101.0365200  78.5111809   1.6014594 101.0226345  78.1137562   2.4721463
 101.7874146  78.1077480   1.1659807  47.8408337  94.4971371  57.6534414
  47.4193811  94.3472576  58.4996986  48.5048199  95.1632977  57.8311920
  85.0588131 107.0553970  30.6304145  84.1690922 106.9298077  30.3004861
  84.9423122 107.2830105  31.5528297  90.3393173  28.3771157  38.5392809
  90.0679111  29.1283083  39.0668035  89.5295620  27.8930497  38.3773780
  28.4485674  70.0898123   0.7784395  28.3326817  70.8994770   1.2756719
  29.3557930  69.8341179   0.9451578 100.1958179  20.0256228  71.2906647
  99.8552132  20.1676440  72.1738672 100.1676369  19.0761125  71.1729002
  73.5714960   4.9568146  88.9686394  72.7497625   4.4879717  89.1141129
  74.1972923   4.2740047  88.7270069  81.8569088  13.5378933  83.2769489
  81.1615658  14.0372682  82.8487396  81.6253090  12.6223648  83.1207275
  76.9179583  19.3037510  80.1474857  77.8737688  19.2999709  80.0960827
  76.6937256  20.2068996  80.3717041  38.2687998  50.8469105   8.1329358
  38.9413881  50.4900360   7.5528526  38.7507772  51.4035892   8.7445199
   7.5746328  80.3010273  10.2586174   6.9250637  80.9922409  10.3871191
   7.2227025  79.7716665   9.5429659  57.0795822 106.9707203  84.6617126
  56.7469788 106.1142540  84.3932247  58.0044842 106.9563770  84.4155884
 103.7334633  53.7805843  56.4546967 104.5590115  53.3254862  56.6208172
 103.1529045  53.1040144  56.1062193  64.5026731 100.2532673  88.1235027
  64.4727898 100.9014320  88.8272190  63.9961195  99.5131302  88.4579182
 103.2612896  26.3452864  65.7993650 103.3343410  27.0655799  66.4255238
 103.1350613  25.5674410  66.3427353  18.2515538  71.4034557  10.5031276
  19.1842294  71.3214016  10.3040922  17.9673326  70.5091190  10.6918311
  62.5596189  22.8500342  76.0767984  61.9374466  22.1230268  76.1012030
  62.0649004  23.5998583  76.4073324 104.7383404  24.5108986  75.6864119
 104.9062157  24.1626334  76.5620613 104.8206043  25.4593396  75.7860374
  85.4861259  43.3387804  39.6633458  85.5872345  44.2294073  39.3275023
  84.8939800  42.9144478  39.0424299 103.9228916  17.5677741  72.4436665
 103.8207531  16.7137694  72.0235777 104.7992802  17.5424671  72.8277731
  94.8796654  24.8932695  89.5465183  94.5907307  24.4028592  88.7769413
  95.0029469  25.7875538  89.2282581 101.6153145  11.9344521  78.1458187
 101.9626904  12.2764027  78.9696074 102.3884773  11.6436303  77.6622105
  50.8003902   9.8521990  88.6522198  50.9916115  10.4440641  87.9246521
  49.9899483   9.4119161  88.3961582  46.4571667  91.8598461  57.3718882
  46.6741705  92.4652386  58.0808544  45.7304335  91.3398552  57.7149773
  40.0861311  10.5102813  57.4775600  40.5330133  10.6333303  56.6400719
  39.5159578  11.2747669  57.5593853 100.3431416  30.4977465  90.9968090
 101.0966396  29.9334812  90.8234024 100.0581455  30.7895875  90.1308727
   9.3366873  29.3722081  72.9656506  10.1288843  28.9464569  73.2933569
   9.0551788  29.9394083  73.6834717   8.6014849  70.7892609   5.3217745
   9.0166646  71.5539742   4.9229386   9.2823136  70.1164579   5.3153223
  72.4430609  20.0767827  30.5980206  71.8561792  20.3520060  29.8937106
  71.9869709  20.3272271  31.4014435  79.2561817  11.4507163  74.8486185
  80.2055931  11.3323939  74.8778629  79.1349030  12.3975027  74.7770643
  91.3968086  80.7380676  13.2780528  91.6701221  81.6255188  13.0457556
  91.2368774  80.7758236  14.2210424  62.4107647   7.5135678  84.0741444
  62.8319311   8.3558965  84.2454052  61.6521502   7.5020421  84.6577549
  22.9663682  80.0147629   8.8532907  22.0485663  80.1819324   8.6389929
  23.1379032  80.5648804   9.6176046  52.1045876  77.9506540   5.9886086
  53.0203152  77.6746893   6.0276121  51.8769789  78.1543541   6.8957639
  91.4771938  14.4165337  51.8661118  91.3323116  13.7145233  51.2317419
  91.2386703  14.0306747  52.7089930 113.8391685   4.6883130  35.6451011
 113.8503933   5.5379796  35.2044511 114.7557163   4.5197126  35.8636260
  50.5180883 109.8770618  32.4301624  50.5512094 110.2936172  33.2913375
  50.3134918 108.9604759  32.6151657  13.8667631  28.9371777  74.5365906
  13.1299341  29.4576979  74.8565483  13.7091780  28.0596066  74.8848248
  76.7827702   8.7730092  58.0373144  76.6948366   8.1882632  58.7900257
  76.0100603   9.3363178  58.0800724 106.8866253   1.1945484  53.3561373
 106.8192005   0.4147445  53.9071274 107.7244568   1.5881862  53.5996675
  51.7617893  95.6128311  71.3582230  52.0688057  96.1431217  70.6228542
  50.8073568  95.6388378  71.2902546  89.4780731  86.0827923   0.5348730
  89.9076843  86.3460159   1.3487414  89.8538876  85.2261829   0.3318484
  63.7217760 103.3743668  85.1357555  64.2430401 103.1924248  84.3538284
  62.9761410 102.7776814  85.0707245  54.8680449  94.4882965  83.3750916
  54.4927454  95.2922344  83.0158234  54.2354155  94.2022610  84.0340233
  67.3736382  28.4950304  94.1764164  66.4556551  28.2321191  94.1099930
  67.8628540  27.6746678  94.1139126  90.9022141   5.7157695  69.5857811
  90.2945232   6.4047641  69.3170309  91.6226768   6.1833048  70.0083590
  69.7751093  33.2395625  20.4732919  70.2771711  32.7662706  19.8098457
  70.2440929  34.0666628  20.5837154 105.8777142  16.0137916  86.1529160
 105.6398964  16.9352913  86.0503864 105.1833439  15.5353951  85.6999016
   0.0379906   8.2326782  59.3362141   0.8549176   7.7343482  59.3134212
  -0.4230918   7.9016101  60.1069498   6.4778161  64.8902225   8.7322277
   6.8501914  64.9860382   7.8556502   6.2155509  63.9709902   8.7818801
  18.1912422  56.4809036  76.0257959  17.4479866  56.0270071  75.6285810
  18.7483549  56.7215252  75.2855539 109.6839905  42.2033548  89.2394161
 108.8724709  42.7088594  89.2856789 110.2949905  42.6792049  89.8019791
  99.5681858  46.9677448  33.6572385  99.9187279  46.9163513  34.5464587
 100.3362083  47.1145582  33.1051373   5.1971370  19.9137795  85.4413319
   4.7560441  20.6051302  85.9350014   6.1286312  20.0567675  85.6089783
   2.6938885  13.2984602  76.2624693   3.6286181  13.2211602  76.4536142
   2.2603929  12.9904950  77.0583773 105.1200867  17.9570639  63.9342785
 105.1078320  18.8791597  64.1908360 104.7133446  17.9440808  63.0678940
  67.1456051   6.1735445  79.1152573  66.3254309   5.6851089  79.1857958
  66.9545794   7.0215672  79.5160055 107.8998661  76.1233091   5.3708744
 107.9430771  75.7339287   4.4975203 107.1271706  75.7258320   5.7723582
 105.3322124  31.1179137  52.2493172 106.1369038  31.6362405  52.2546196
 105.6110001  30.2456355  51.9706821  22.4320984  88.9202023   0.4851827
  23.1356144  88.8192940   1.1263659  22.7753711  89.5485020  -0.1501442
  68.7296391   3.1604007  63.2200003  68.6459780   4.0271863  62.8226137
  68.9904928   2.5896946  62.4971724  34.6267986  91.4277077  76.1569071
  34.6677017  90.9259701  76.9710445  35.3012729  91.0375309  75.6009579
  84.3575764  17.0738387  90.4756546  83.7430000  16.3870192  90.7341194
  85.1795006  16.6109788  90.3130531 109.7848511  26.0613418  68.1752157
 109.8690128  25.5474997  67.3720264 110.1195335  25.4864645  68.8635015
 112.5027752   9.5096403  45.8869028 113.0446911   8.9319193  45.3495121
 112.8873348  10.3780544  45.7677412 112.5987148  21.9665742  67.8469944
 112.8491306  22.8206563  67.4947548 111.6767216  21.8701315  67.6085520
  29.9781513  26.0445189  80.5306816  29.3615460  25.4467106  80.1080036
  29.6366143  26.1527109  81.4183044  94.9970627  42.8105974  28.7967443
  94.7785282  43.6801863  28.4616542  95.2942467  42.9670429  29.6930933
  83.4143257  10.3518450  61.9831991  83.0564690  11.2168717  62.1829605
  84.2856407  10.3557551  62.3794651  79.8855972  24.1652751  78.5524035
  80.4388905  23.4821534  78.9311409  80.2235031  24.2823076  77.6645136
  22.5309110  75.6684542   6.0044020  21.9748330  76.2918377   5.5370623
  22.3358130  74.8232460   5.5996901  77.6081276   1.1934639  86.8561363
  77.4454832   1.0470256  87.7879810  77.3925734   2.1157026  86.7174149
  99.4512558  50.3286171  15.4104090  99.4926739  50.8727360  14.6239901
 100.2622700  50.5239630  15.8797979  88.3795929  20.5051208  86.0880947
  88.0690765  20.5298543  85.1829910  88.9110279  21.2958407  86.1806774
  71.9633007  18.3636522  72.5292253  72.3340321  18.6329377  73.3696270
  72.6781082  17.9045308  72.0882177 102.8289032  12.0600915  53.4350014
 102.7491760  12.1294034  54.3863535 102.6883125  11.1315453  53.2498884
  61.3134909  32.9646015  90.8515930  61.8666267  33.6622953  90.5001640
  61.1226892  33.2390499  91.7485332  87.7303886  14.8619866  76.2133646
  87.3488808  14.5358074  77.0284081  87.0206261  15.3490686  75.7947779
  78.7554693  29.7403717  28.2144952  78.0456877  29.3119764  27.7360368
  79.4983244  29.7184896  27.6112390 113.4933758  40.8801413  37.9954529
 113.8115692  40.4632807  38.7962103 114.2451191  41.3735056  37.6672649
  96.7707920  28.8090229  62.0154095  95.9172344  29.2226434  61.8866158
  97.0174599  28.4931040  61.1461687  69.8593760   8.0276865  90.5086994
  70.0787687   7.3583794  91.1568737  69.8962641   7.5693178  89.6691990
  77.5251532   7.0635647  46.3514090  77.4112129   6.1804712  46.0001326
  76.6548872   7.3112315  46.6637135  34.8059773  99.9021816  57.2512484
  35.1449418 100.5654812  56.6501093  35.4044414  99.9273586  57.9978657
  44.9048996 108.6101151  91.7607021  44.9319363 109.4856358  91.3747597
  45.8223057 108.3929253  91.9262981  46.7514420  76.7394781  75.6062412
  45.8880949  76.4078188  75.3595352  47.1514988  77.0052338  74.7782612
   0.0532520  17.2403336  62.8996897   0.7791147  16.6265011  62.7875948
  -0.7210439  16.6834283  62.9806471  38.4120440  86.8495560  80.9587383
  38.2083988  87.6220608  81.4859962  38.3439016  87.1527481  80.0533867
  72.9773235  11.6521192  66.9743252  72.8243113  11.9303918  67.8773117
  72.1171665  11.3727522  66.6607714   6.2196684  93.6938000  11.3740909
   6.6377479  92.8775120  11.6481721   6.3500422  93.7231827  10.4262674
  85.3737450  14.9506998  66.3852835  86.0486507  15.2526021  66.9932270
  84.9801636  15.7545400  66.0459232  66.1113453  19.9323273  58.6376953
  65.4859352  19.9711752  57.9141092  66.7660189  20.5972624  58.4243870
  81.6254807  13.5691583  80.1074028  81.2005806  14.3318152  80.4998875
  80.9142113  12.9439008  79.9682188  25.5392313   6.5207559  91.8167591
  25.3859735   6.4289927  90.8763790  25.0373340   7.2965717  92.0666504
   4.0384868  20.8809590  49.4664907   4.1644657  21.1846972  48.5675430
   4.7646081  21.2693214  49.9545002  88.1575108  23.0675006  33.3125734
  88.0484962  22.2548342  33.8064575  87.5475407  22.9858756  32.5794268
  52.6524878  94.9137974  63.3368254  52.1370459  95.6467915  63.6733770
  52.0758152  94.4861984  62.7037048  70.5926561  12.5689363  51.0057783
  71.4581919  12.8443742  51.3077974  70.2232599  13.3497059  50.5932522
  95.8698940  38.7085915  48.6286879  95.3322124  39.4676113  48.4027958
  96.3256645  38.9677382  49.4295263  79.4823885  28.4643555  37.8814960
  79.1100645  29.3256259  38.0707574  80.3806114  28.6470628  37.6057410
  82.8584766  46.5040255  53.1575823  83.2037163  47.3179770  52.7908087
  82.5073910  46.7561197  54.0116405  12.6212633   0.8824779  86.1757565
  11.7199588   0.8107061  85.8615494  12.9622960  -0.0107986  86.1312008
  94.3133640  22.0528913  67.7567577  93.6713409  21.9688296  67.0517921
  95.0393677  21.4899802  67.4879074 111.5066910  78.2831192   9.2578852
 111.8216896  78.3069134   8.3543146 111.6169930  79.1799641   9.5736861
  70.2819872  18.4917951  90.7847786  70.2162647  17.5750768  91.0522556
  69.8110962  18.5327876  89.9524307  92.1052456   0.7096325  66.0510874
  91.4482689   1.3758507  65.8491850  91.6532516  -0.1225080  65.9115267
  87.8198814   8.1953073  83.3932018  87.2186184   7.7814656  84.0124416
  87.5674438   9.1186184  83.3949184  64.9066830 108.9864922  83.4644604
  64.4340038 108.1948376  83.2073689  64.8509502 108.9990520  84.4199562
  98.9964771  75.7317543  80.3770638  98.6267948  76.1407137  81.1595726
  98.2461071  75.3289890  79.9400711   1.4852569  17.0080352  45.7623911
   1.1136897  16.1499071  45.5579758   0.7484695  17.6136279  45.6809473
  88.0547047 104.5224571  68.1462336  87.7224159 104.4884491  67.2492075
  87.4405003 103.9880276  68.6495924  89.6788692  28.5346222  63.0094433
  89.6009350  28.0611062  63.8376570  88.9441681  29.1481590  63.0142736
  81.8469048  81.3716888  78.0627155  80.9603882  81.7247772  77.9875851
  81.7419052  80.5666828  78.5698366  12.7803552  76.7015076   9.3243545
  11.9121575  76.4060402   9.5985168  12.7028263  77.6539612   9.2690766
  11.0563993  72.5592327  11.6089797  11.5032887  72.6053905  12.4541962
  11.7044234  72.8725338  10.9779978  71.4847136  17.9690349  78.4564161
  70.7567072  18.1147873  77.8522730  72.2394562  18.3667755  78.0223703
 103.0322266  31.6787934  64.3503857 103.8100147  31.1217451  64.3815231
 102.4218941  31.2065172  63.7840939 100.1321316  13.8314366  62.3781633
 100.3986835  13.2828081  61.6404724 100.0538349  14.7102845  62.0070505
  81.6219997  18.0721986  53.5182190  82.4016094  18.6168051  53.4093761
  81.1907101  18.4242511  54.2968559  85.3084183   3.9414737  73.5361767
  84.7797203   4.6623313  73.1940174  84.8720074   3.6896542  74.3500280
  90.6853676  19.4322526  65.0559044  91.3312912  19.5517612  65.7521343
  90.3699875  20.3161430  64.8674870  77.2784948  96.4409351  57.8146458
  77.9204559  96.3354588  57.1125126  77.7808905  96.3144112  58.6195183
  45.7299137 106.3625526  77.5039768  46.4643717 106.9705868  77.4197388
  45.2862644 106.4040184  76.6568136  58.7820959 109.9114609  64.7003031
  57.8984118 109.6670532  64.4253445  59.3563986 109.3194294  64.2146015
   5.0724953  17.7080095  80.1794052   4.1457626  17.8841376  80.3418159
   5.5359560  18.2862735  80.7852554  77.0333433  18.5467768  49.5332193
  77.4958658  19.3091071  49.1851425  77.2298813  17.8439760  48.9137983
  78.0457211  11.7646098  58.8914585  78.9210320  11.5991628  58.5411882
  77.9789686  11.1871493  59.6519279  39.2194605  56.6379690   3.6614239
  39.3841982  56.6872931   4.6030504  38.2772446  56.7829800   3.5751960
 110.8519077  14.6167564  47.8391123 110.3230858  13.8204801  47.7888680
 110.7907391  14.8874950  48.7551832 105.7451534  45.3210783  62.4316359
 105.8189106  44.7173738  63.1707811 105.1961899  44.8585272  61.7984533
  70.3778601  44.4785786  89.1376591  70.5388451  44.8243427  88.2597256
  69.6160555  44.9660683  89.4510937  97.7151394  29.0337753  78.1549740
  97.7630138  28.8672519  77.2135830  97.5684166  28.1714082  78.5435915
  91.0067177  33.4314203  64.5902729  90.1881218  32.9409432  64.6649313
  91.0755730  33.6421871  63.6591101   2.1832913  70.2218008   5.2973461
   1.6870856  70.8187628   5.8573890   2.3804009  69.4732952   5.8604759
 106.1087799  32.6097631  73.8642359 105.3102684  32.2188783  73.5095119
 106.0359097  32.4862838  74.8106384  34.6273664 109.3466319  79.8804092
  34.0101865 108.6172526  79.8227406  34.5384601 109.8023634  79.0433693
  76.4274836   6.8103868  55.4507685  77.0935345   7.4873781  55.5703115
  76.8483973   6.0046816  55.7506037 103.9190102  30.8571148  67.6168776
 104.5941830  30.4844379  68.1838655 104.2867184  30.7970285  66.7351675
  71.5222073  18.1161344  57.3341417  71.8120384  17.2195876  57.1655178
  72.0471191  18.6531734  56.7406034  91.2132454   7.7806872  71.8239450
  92.1252346   7.5787431  71.6148233  91.2653923   8.3826888  72.5663090
  71.0305738   4.4173196  89.8899937  70.8836985   4.7130540  90.7884312
  70.3113079   4.8033857  89.3901539   0.5449448  48.8554478  78.1428719
  -0.0550212  49.4621420  78.5766935   0.0112496  48.0829763  77.9566097
  90.9476280  53.4354401  38.8606787  90.6338215  54.0243435  39.5469379
  91.2849617  54.0184355  38.1805682  71.6538239  27.5438166  49.7315025
  70.6977558  27.5668788  49.7720003  71.9325542  28.3281612  50.2040958
 103.4210396  55.4351950  58.4384966 103.5330009  54.6682358  57.8768301
 104.1687489  55.4061222  59.0354252  50.0023317 104.9968338  59.5771027
  50.1122284 105.9141254  59.8275852  50.8874130 104.6333599  59.6045732
 113.2888603  13.7089610  29.8213863 113.9320087  13.0030632  29.7558498
 112.4455929  13.2599306  29.8806429 115.5346489  41.7592144  61.0562611
 114.6402073  41.5588760  60.7804632 115.5688858  41.4879131  61.9735670
  57.9130602  96.5750122  88.0261803  58.6527777  97.1177769  87.7533054
  57.5440168  96.2439251  87.2073841  82.5137901  15.2019465  74.3420076
  82.8543758  15.9363568  73.8312483  81.5974236  15.1291716  74.0751696
 106.6617775  34.3637395  76.4689302 106.7816257  34.6793270  77.3646259
 105.9379959  34.8874712  76.1252880   5.3185409  27.9804182  63.5895014
   4.3774626  27.9046822  63.4318066   5.4849637  27.3973894  64.3301868
 112.5305176  47.4374437  40.2857733 112.8647995  47.1534157  39.4349980
 113.2875156  47.8281927  40.7222319  21.0248590   8.0252320  29.2044067
  21.8702865   8.4690845  29.1374779  20.8147812   7.7732599  28.3051801
  87.0115852  11.1480331  78.7826347  87.8497696  10.7217872  78.9614964
  86.7403316  10.7966363  77.9345942  25.1454711  41.8513107  56.4379978
  24.3760395  41.9401693  57.0004129  24.9778485  42.4461699  55.7070541
  17.5748730  30.6829691  62.1333838  16.7860806  30.8545661  62.6477718
  18.0272579  31.5258694  62.1002150 101.5927696   0.5089748  60.4415607
 101.8326855  -0.3407120  60.8113003 102.4260616   0.9678534  60.3353357
  87.8234959   1.4782959  46.3476992  87.5878143   1.0838159  45.5080128
  87.4149513   0.9112880  47.0017767 111.5322399   0.5104448  69.9872780
 110.6087685   0.2766485  69.8936510 111.5822029   1.4161262  69.6815395
  26.0522747 106.5969944  79.6099377  27.0083404 106.6379356  79.6321678
  25.8555317 105.9692001  78.9146662  36.4648175 100.8781910  86.4923477
  35.5973434 101.0065937  86.1086369  36.5979052  99.9305153  86.4718342
  50.8038476 109.4091697  75.8230734  50.7355359 109.6914596  74.9109983
  50.2920297 110.0534229  76.3121653  51.7851591 105.5814457  66.5628004
  51.9607353 106.0108089  67.4000883  50.8840370 105.8262825  66.3523960
   4.7880051  74.4528389   0.6958345   4.8151308  74.4777966  -0.2606556
   4.3085483  73.6501741   0.9009829 110.5708981  30.7569790  67.9212141
 111.0204506  30.5095005  67.1132040 111.1955929  30.5493593  68.6161089
  77.8020334 105.7354069  60.0865698  77.4747181 105.0945759  59.4553614
  77.1280766 105.7686901  60.7654715  18.8723445  84.3297482   6.2242275
  18.9046872  84.8082733   7.0525980  18.9668345  85.0058174   5.5532306
  83.6226463  32.6272440  44.2723799  83.6002159  32.4894571  43.3254147
  84.3544483  33.2287884  44.4096231  41.1922741 106.9660187  64.5362854
  41.7435026 106.3878059  64.0089846  40.6261301 107.4029827  63.9000702
 102.1899891  15.1971698  67.4925804 102.9922390  15.4900157  67.0603037
 101.4942837  15.7064128  67.0767736   6.0145366  11.3875878  73.6082649
   5.6175905  12.1885097  73.2659340   6.1275816  10.8287406  72.8394079
 100.5302620  16.2569022  83.6855602 100.8685493  15.4384029  84.0486717
 100.0009823  15.9855354  82.9355812  27.4512839  73.9941216  20.7856488
  27.4522948  74.6021271  20.0463533  28.1278348  73.3525610  20.5690527
  87.6363087  36.0547876  60.9022045  88.3358002  35.4969764  60.5619335
  87.7101707  36.8655324  60.3987455   3.0811369  24.9896431  71.5207338
   3.4649545  25.8366489  71.2938070   2.2849916  24.9380445  70.9918451
 111.0336399  12.0441699  66.8457317 110.6117344  12.0848572  67.7039671
 111.8889141  11.6502678  67.0177221 115.2024937  30.5507278  60.6130171
 115.4734802  30.6732249  61.5228510 114.3367386  30.9560895  60.5643177
  84.9741936   5.6810087  87.6590729  84.8308659   6.5788788  87.9582787
  84.3478775   5.5637139  86.9447899  55.1861954  18.8673365  66.4434433
  54.6357489  18.3410001  67.0232773  56.0790539  18.7038958  66.7472935
  59.8601294  95.6210423  93.5129547  59.0189457  96.0383606  93.3272552
  60.0678205  95.8886814  94.4082069  57.9042625  14.3030286  84.8267841
  57.9804039  15.1064098  84.3119907  57.0827103  13.9082372  84.5345116
  78.1656602 109.2716268  66.7687893  77.8265718 109.8527543  67.4496269
  78.5995629 108.5668693  67.2497034  96.7585754  12.1870446  35.7863593
  97.3897076  11.4752841  35.8926558  97.0001793  12.8238285  36.4589405
 109.1955090  42.8632689  80.2872658 109.2982388  43.7318611  79.8983955
 110.0750542  42.4861574  80.2668571 109.2816639  81.1975288   6.1069882
 108.7737751  80.5817604   5.5786747 109.0888405  82.0547390   5.7271963
  71.5898466  40.1423836  34.0349984  72.0424652  40.7889748  34.5765567
  72.0209312  40.2002144  33.1823254 103.0654907  71.2581396  42.1066475
 102.4238873  70.8793497  41.5057421 102.5570107  71.8568134  42.6537085
  71.4085913  18.7754655  62.9870987  71.7851067  19.4689965  62.4453592
  70.7744551  18.3426392  62.4154615  85.9990025  43.0024052  20.4800248
  85.7477093  42.9922867  19.5564544  85.7356071  43.8687229  20.7904339
   2.9584444  28.2264161  84.3937874   2.8006366  28.4262037  85.3165054
   2.7518409  29.0400386  83.9338303 115.1604557  49.8475218  58.8900948
 115.8690262  49.3259001  59.2670202 114.8431015  50.3819561  59.6180344
   6.4328325  23.3479762  54.9359703   6.7336333  23.7113404  54.1030693
   6.5180892  22.4006319  54.8287249  80.4426575   2.0785040  66.9136381
  81.0746670   1.5390843  67.3888445  80.9573746   2.8140357  66.5815496
 100.3218937  55.6327391  48.6569881  99.6821022  56.3435268  48.6159801
 100.0925446  55.0614643  47.9239941  93.9160824  67.2932434  71.3890600
  93.8341618  66.4816189  71.8898535  94.0254498  67.9742146  72.0527983
 109.1294289  15.6398726  50.7059193 109.5703316  15.3439438  51.5023279
 108.3081245  15.1485050  50.6901550  83.3318520  27.8729320  76.7298174
  84.0008831  28.1548119  76.1059713  82.5041294  27.9951763  76.2648821
  92.1445656  27.6864672  20.2096033  92.2377682  26.7352247  20.1577950
  92.7776337  27.9532003  20.8761716  98.6425781  35.9839630  51.7090988
  97.9840374  36.2394524  52.3550701  99.4735813  36.2704158  52.0880699
  96.7873192  31.1938190  55.5819035  96.1498070  30.7208896  55.0469828
  96.4361095  32.0821095  55.6437206  78.7339926  17.5909948  82.8954124
  77.9271698  18.0830979  83.0474281  79.3922758  18.2611609  82.7116585
  98.8825417  25.2294827  64.4428253  98.7925148  25.4096484  63.5070562
  99.3464184  25.9914422  64.7899008  12.1158326  18.2130325  67.2049093
  11.4200807  18.6838281  67.6637220  12.7320325  17.9650223  67.8941250
  97.9680634  37.8711796  57.5673199  97.5515366  38.5578990  57.0465994
  97.3048687  37.6236176  58.2116175 100.4729462  17.1475995  37.8086901
 100.5244064  17.1776223  38.7640333 100.3299522  18.0573976  37.5478220
 114.3765545  28.6880207  77.7224588 113.5589314  29.1303301  77.4942493
 114.1679478  27.7554750  77.6670122  94.6995258  35.9576416  80.4970360
  95.4084587  36.4790821  80.1205254  94.9807739  35.0503445  80.3789616
  79.3287659  15.0959730  49.8530388  79.2953539  15.9730113  50.2350330
  78.4143209  14.8785651  49.6720505 112.4520588 107.3801804   9.7786880
 112.5274467 107.7126598   8.8842571 113.2798004 106.9259262   9.9359190
  60.5766249  69.4625235   4.1844997  60.3136921  70.1787567   4.7625244
  60.2066135  68.6787510   4.5907339 102.9495335   3.0453211  44.5392895
 102.9679203   2.0893405  44.5839596 102.4648380   3.2383171  43.7367582
   3.7998635  56.0588360  82.8565884   3.5916823  55.1334190  82.7281475
   4.3888760  56.0693550  83.6110306 112.0191288   7.8921008  92.8189850
 112.7322483   8.2741743  93.3305550 111.3386440   7.6987761  93.4638119
 107.7552128  25.9319997  75.8214474 108.4017467  26.2212515  75.1775837
 106.9387722  26.3479018  75.5445290  13.0087221  63.7475586   2.2645675
  13.5364401  64.5448828   2.2196501  13.0999541  63.4506416   3.1699681
 114.5495605  53.5505676  60.6268454 114.5974445  54.3740892  61.1123848
 113.7605000  53.1223154  60.9588337 110.8472443  36.8578148  78.4850550
 110.3442001  37.4416757  77.9173613 110.3335667  36.8062901  79.2911005
 107.6203728  51.8810320  85.3638554 108.2356358  51.5666819  84.7013855
 106.7564774  51.7070246  84.9901772 102.2481918  35.6163359  80.7585812
 101.9764709  36.4600086  80.3971672 102.7448368  35.2022195  80.0528240
 100.5413723  30.9392858  54.8615170 101.4282036  30.8920360  54.5044088
 100.5956459  31.6013408  55.5506992  89.3215561   5.7355726  80.1946449
  90.0425529   5.4880124  79.6157503  89.0427780   4.9122879  80.5955315
   6.7777234  57.0952511  81.3021660   6.8959856  56.8770123  82.2266293
   6.9836670  56.2847185  80.8364868   1.8408836  33.1791735  46.0323477
   1.1387033  32.5484157  46.1914682   2.4722043  33.0166507  46.7332411
  11.0758126  19.2907023  46.8898582  11.3742983  19.2758906  45.9805059
  11.0403717  18.3689117  47.1453524 111.4829636  49.8233557  67.6665592
 110.8026123  49.2422152  67.3265076 111.0737991  50.6885862  67.6807117
  89.0932846  42.3177433  49.2179298  89.1619396  43.0386353  49.8438931
  88.5032463  42.6453304  48.5391283 109.1051865  63.4354591  64.3241358
 108.5233307  63.2859755  63.5789347 109.7480583  64.0677691  64.0029907
 104.5495224  13.2401550  85.4685402 104.1580486  12.3669565  85.4461002
 105.3770924  13.1197226  85.9342194  96.7596436  47.0772743  59.6195889
  96.2585163  47.7511644  60.0789118  96.4382076  47.1121311  58.7186480
  67.9154539  14.5593858  56.4944601  68.2265711  14.7947240  57.3685598
  67.0202160  14.2506444  56.6339493 115.1884842  19.5861042  46.1896181
 115.8010864  20.1444626  45.7108974 115.4577637  18.6936617  45.9722090
  29.3630600 107.7109337  67.7443838  28.5478425 107.3030663  67.4523163
  29.9368000 107.6743031  66.9790649 109.8543358  59.7223806  74.5214510
 109.4863033  59.7911119  73.6405087 110.5216789  59.0399313  74.4496489
   7.5857782  20.0733376  77.5447941   8.5071462  20.3158236  77.6370621
   7.1041608  20.8562660  77.8118181 114.7079277  29.9142480  51.0706043
 113.8525581  30.2182794  51.3741446 114.5318031  29.0614510  50.6731749
  40.9218550  88.2901287  32.4907231  41.5290642  89.0278244  32.5484347
  41.4592123  87.5219250  32.6839590  24.8565888  69.0410233   7.7062213
  24.3551922  68.6337090   6.9998729  25.7079339  69.2355490   7.3142993
  98.3298588  32.2378445  65.4738951  97.6773930  32.8207064  65.8622122
  98.3265114  32.4609041  64.5430565 103.0393600  34.0225005  56.6741562
 103.7363338  33.4846520  57.0498943 103.2832241  34.1218758  55.7538939
  25.0231338  78.4236336   9.4206297  24.8244834  78.0501318  10.2792740
  24.2616343  78.9651537   9.2130071 109.2904091  52.0899677  71.7134714
 109.7602940  51.3554764  71.3185358 109.6800804  52.8669405  71.3125896
  26.4420962  34.8431253  63.7205267  26.8117714  34.6983767  64.5915127
  25.9498453  34.0438128  63.5333967  23.7202740  88.9816189   6.0028398
  24.0365696  88.3054829   6.6020340  23.4438705  88.5002899   5.2229971
  41.2751770  83.7801552   5.6844592  42.0326567  83.4829521   5.1803428
  41.4700890  84.6936703   5.8935499  27.1952343  36.1141491  42.0276642
  26.6604519  36.0255313  42.8165770  27.0648837  35.2913308  41.5562725
 101.7874813  19.6552193  62.1613359 102.5542164  19.1255796  62.3800373
 101.0633183  19.2290664  62.6198292 107.9246044  51.7959785  11.0555851
 107.6306438  50.9346485  10.7590592 108.4098148  51.6190958  11.8615115
  93.0914211  27.0616651  58.5804939  92.7662086  26.3041568  59.0669584
  93.9583778  26.7954731  58.2742977  28.3612251  21.0162377  69.3874216
  27.4891639  21.3929772  69.5049334  28.9574409  21.7596006  69.4778204
 105.6523800  60.9657383  37.0826101 105.5979347  61.8525505  36.7264867
 106.5863991  60.8278513  37.2402120   2.1960801  47.0339155  38.0081487
   2.5988805  47.5831509  38.6806989   1.5428555  47.5996542  37.5964832
 108.9402580  33.6671805  74.8808050 108.0753708  33.9358830  75.1906347
 109.5527935  34.0988350  75.4763842  97.3800850  61.7192984  20.7461858
  97.4060059  61.8386984  21.6955566  97.0043373  60.8473682  20.6246161
   9.8208636  35.5163121  70.4759359   9.9987298  35.6487584  69.5447826
   9.6297318  34.5815325  70.5526781  94.7880840  27.7363348  75.9516716
  94.5984840  26.9239044  76.4209652  95.7326889  27.7099729  75.7991457
  10.6634593  21.2736773  59.1418314   9.9866146  20.9586763  59.7409058
  11.0869980  21.9902539  59.6144485 112.6198387  41.8883705  42.4719000
 112.3906803  42.4318552  43.2257843 112.0367241  41.1319780  42.5358438
 106.5754890   0.1576687  36.5829921 106.9842625   0.3411672  37.4288440
 106.8035221   0.9110339  36.0383153  18.4882081  21.5826440  45.4756355
  18.3195484  22.2159743  44.7780132  19.3998134  21.7365956  45.7236385
   6.5325379  42.7576065  79.2145300   6.5128779  41.8085623  79.0914106
   6.0423899  42.9043818  80.0235081  81.7159176   9.9557632  73.5786295
  81.9563866   9.0715277  73.8552713  82.1840286  10.5315185  74.1832876
  75.8151627 106.4884186  94.7935867  75.5441475 105.9981823  95.5697632
  76.3545656 105.8725739  94.2975807  98.7830830  52.1550703  50.3251982
  98.1547737  51.7129707  50.8961725  98.2647038  52.8141880  49.8635912
   9.6257144  14.7610366  91.3735008   9.3338597  15.0680280  90.5151272
  10.4406178  14.2914557  91.1955738  16.7368889  32.5397515  67.9554653
  15.8328164  32.8367543  68.0587769  17.1132982  33.1381202  67.3100901
  96.5020370  19.6349907  72.1742344  97.3796368  19.8319864  72.5017023
  95.9944248  19.4281352  72.9589462 109.1127110  76.3946819  68.5664368
 109.5226574  75.6135464  68.9379168 109.3394566  76.3651419  67.6369476
  98.6611366  33.5910296  54.7423553  98.8627148  33.3150220  55.6364536
  99.2689610  33.0935049  54.1953135  95.9313965  52.8868103  57.1725035
  96.8844032  52.9752922  57.1857166  95.6169796  53.5990953  57.7293015
 100.5484200  70.8674002  46.7449665 100.0430298  70.5733728  47.5028276
 100.5539417  70.1144314  46.1540031 111.4584351  39.1949487  60.0404167
 112.2779465  38.7012529  60.0704765 111.6656590  40.0289679  60.4619694
 107.6295280  49.7181368  43.3906460 107.1920967  49.6992970  44.2418385
 108.5235119  49.4295502  43.5743380  89.3259525  33.2764125  86.8373871
  90.1599979  32.8598380  86.6204357  89.4198799  33.5377669  87.7534103
 108.9000893  37.2768307  73.2381916 107.9841423  37.4509716  73.4548426
 108.9793682  36.3238835  73.2811117  18.2216835  46.5603971  52.7852440
  18.1236982  47.0439482  53.6054945  17.4232006  46.7561102  52.2949839
  80.6231785   9.9848014  79.2368746  81.3772964  10.5449033  79.0529442
  80.4029274   9.5943046  78.3911610  93.8208008  38.4305787  74.4069672
  93.3645630  37.7986813  73.8512897  93.4239769  38.3200932  75.2710009
   2.9374874  28.5144353  60.8803225   2.6896262  27.8365040  61.5089750
   2.1345161  28.6919379  60.3904629 100.0638771  31.3979959  51.0177851
  99.6638298  30.9824204  51.7816496  99.5314884  31.1037230  50.2787304
  35.0020838  87.6728916   7.4658012  34.1769052  87.2672939   7.1997136
  35.6662965  87.0095158   7.2787368  80.3553200  38.3147383  48.3690834
  81.2123871  38.1662273  47.9695702  80.5496407  38.5193682  49.2837381
 108.3226013  40.8626032  53.7557888 108.3177185  41.2095404  54.6478891
 107.7808475  41.4747381  53.2577705 102.1750069  34.2287898  54.0614462
 101.4881992  34.5316625  54.6554041 102.2374535  34.9154615  53.3975077
  28.4603500  93.5563469  15.0297189  28.3623290  92.6344013  14.7917271
  27.8788114  94.0219975  14.4287050 111.3552189  39.9290013  88.4081078
 110.7638359  40.3838825  89.0077591 111.6873646  39.1882563  88.9152718
 100.6600761  18.7722957  53.4582806 100.1809311  19.3183494  52.8350019
 101.4088535  19.3081248  53.7199211  88.4444141  37.2651720  46.8779516
  87.5252628  37.5321460  46.8676090  88.8341331  37.7756619  47.5877094
  95.9023380  53.9606619  74.0270472  95.9453678  54.5588827  73.2810497
  95.4623795  53.1824446  73.6849356  92.9728031   4.6962029  82.2855663
  93.4177971   4.2352617  82.9967308  93.6816406   5.0234807  81.7317867
  27.1892023  90.6551266   7.8893393  26.8534422  90.5240345   8.7760818
  28.0060315  91.1389351   8.0116093  18.5845840  71.2754869  92.2270870
  18.6098814  70.3976345  91.8463421  19.0164530  71.1808729  93.0760670
  86.1275673  28.0776477  89.7722054  85.4012585  28.5110521  90.2203846
  86.4733887  28.7432003  89.1774940  88.0986404  30.0973749  47.0407152
  87.7788639  29.8752427  47.9151440  87.4204159  30.6650877  46.6747236
  23.1885648  36.9211817  63.3623695  22.3707819  36.5362000  63.6774063
  23.2145429  36.6997552  62.4314928 112.8293133  51.5896034  71.0437346
 112.9049969  51.0618401  71.8386984 113.6800098  51.4992189  70.6143475
  98.2218456  38.6225080  88.4282875  98.2246017  39.1965461  89.1942596
  97.2944164  38.4844351  88.2357979  98.9446545  44.1132879  62.1502256
  98.3802032  44.5514059  62.7871466  99.3394279  44.8269796  61.6491985
   7.2549433  36.8521118  40.7638788   7.5620979  36.7736459  41.6670561
   6.3649797  37.1956348  40.8425426   6.1187905  45.1751041  90.5151176
   5.9429944  45.9657478  91.0252285   6.5442479  45.4934168  89.7189426
  95.8262539  56.8812895  51.5995502  95.6096840  55.9767818  51.3732910
  96.7610073  56.9587183  51.4085770  95.2859306  41.4300871  49.8055935
  96.2392902  41.4114094  49.8892117  94.9654293  41.3763857  50.7059431
  12.9653442  97.8045750  13.5320735  12.2100019  97.2362041  13.6825836
  13.1457758  97.7202225  12.5958252  85.6112862  28.2283354  62.4370289
  84.6777534  28.3161879  62.6294756  85.6404114  27.8813338  61.5454149
  96.4042473  38.8604832  51.7273426  95.7555008  38.9358783  52.4271059
  97.2439957  38.8087177  52.1838236  83.8794994  19.8100805  74.1940260
  83.0143166  19.4780076  74.4336700  84.0616322  19.4117320  73.3429241
 100.3971004  38.2546163  38.8654828  99.9522114  37.5475359  39.3327570
 101.2871647  37.9294586  38.7302351  85.5339432  22.4986196  71.2345695
  86.3836956  22.8854418  71.0235882  85.2228069  22.1368432  70.4047871
  18.6010683  47.6758718  65.4978085  17.6698720  47.6756096  65.7194042
  18.8426411  48.6019087  65.4794741  98.1738186  31.1284423  83.5153484
  98.0467415  31.0267043  82.5720978  97.7042007  30.3890872  83.9014149
 109.9729443  50.1277018  77.7491474 110.4896736  49.7551632  78.4635925
 109.4987488  49.3815804  77.3821640  37.5532651  90.0470066   1.8757716
  38.3640027  90.1850128   1.3859867  36.8609333  90.3255272   1.2763281
 108.4051037  41.5664053  83.8601589 108.9496994  41.1744499  84.5428085
 108.1035709  42.3921251  84.2389774  44.1148138  37.3531771  32.3221040
  44.3106413  37.1226025  31.4139628  44.6400452  38.1357837  32.4891090
   0.8708035  24.5881224  67.7025795   1.2777978  25.3495908  68.1158066
   1.2659524  23.8363004  68.1440020  25.8501387  11.9221938  42.9036474
  25.6610537  12.3083174  43.7588596  26.1967611  12.6478887  42.3845577
  27.7135730  46.4910746  40.0206470  26.8045807  46.2090683  39.9184752
  27.6546717  47.3249626  40.4868984   6.6964829  37.1320963  65.2784634
   6.5402108  37.5752521  66.1123848   6.1909491  36.3215804  65.3395271
  78.0403948   9.4339120   6.1615038  78.9793539   9.5353007   6.3174164
  77.9854727   8.9292645   5.3499955 106.5193748  32.4997711  69.9356270
 107.4152851  32.7196240  69.6802187 106.5094757  31.5434456  69.9753284
  88.5179424  74.0909576  41.0208893  87.9027176  74.1276598  40.2885103
  87.9966164  74.3392229  41.7843103  90.9643936  12.1785307  76.6550970
  90.7455063  11.6807592  77.4428415  91.6145039  12.8170383  76.9481659
 108.6946583  28.3397961  69.3586349 109.5266628  28.8107729  69.4052458
 108.9152145  27.5040936  68.9473104  24.4703245  38.8925481  45.1663923
  24.1669273  38.8498306  44.2595530  25.3577209  39.2462039  45.1056576
  95.0393867  24.7938108  67.8063107  94.5195293  23.9959264  67.9031038
  95.7913113  24.5270753  67.2774601 107.1979237  47.4165297  61.8854189
 106.9821930  47.4632978  60.9540176 106.7462635  46.6321325  62.1967936
  71.0797596 108.8205910  89.7780514  70.7071447 109.1535378  88.9616394
  70.3598166 108.3464241  90.1940727   2.7005997  20.3402829  67.6590967
   3.1820041  19.5794976  67.9841900   3.2874385  20.7381725  67.0160294
  94.7304058  57.7761507  64.8399210  95.5934525  57.5842714  65.2067327
  94.1234493  57.2658014  65.3760099 102.4227619  23.0536222  69.1578293
 102.3544025  22.4835300  69.9236965 102.9160976  22.5387573  68.5192680
   0.6247837  57.9400253  67.9887915   1.1697088  58.5639572  67.5092125
   0.4679606  57.2305727  67.3656416  16.5753019  28.0778480  66.1404943
  16.9046259  27.9035473  67.0221996  17.3391771  27.9700065  65.5738401
 103.2213593  56.4945793  73.0324554 102.3715878  56.8004990  73.3495283
 103.0772686  56.3060856  72.1051264 101.6261196  29.4959044  67.1941948
 102.4993801  29.8853779  67.1498394 101.0889339  30.0468707  66.6248941
   1.4520226  37.3816824  26.7292571   0.5645714  37.2425103  26.3986492
   1.4961968  36.8536520  27.5264168 100.0510597  35.6182170  75.5957937
  99.9612045  36.2397718  74.8734140  99.3513107  35.8554482  76.2043190
  16.3014519  45.8522511  24.5360994  15.6705737  45.4592991  23.9329314
  16.0680485  46.7803526  24.5556784 108.5196018  33.0097795  72.2049570
 107.6598549  33.4118700  72.0808697 108.7986660  33.3038878  73.0720520
  45.2357054  78.2810211   7.1061033  44.3992662  78.0603552   7.5158656
  45.7928181  78.5585785   7.8333026  32.7642846  99.0688801  13.7836409
  32.0554972  98.6337948  13.3097684  32.7931213  99.9513817  13.4140480
  36.7860055  86.1194706  18.8858509  37.0380473  86.1870098  17.9649019
  37.5850010  86.3303757  19.3689215 109.0324783  39.6947956  28.1012630
 109.2486668  40.0194645  27.2271442 108.1011391  39.8896265  28.2055640
  92.5471592  56.8481970  66.0827875  92.9957676  56.4757729  66.8419218
  92.1097183  56.1018324  65.6731367  22.0757294  22.9801822  58.7135983
  21.2662530  22.7146077  59.1499996  21.9191957  23.8868618  58.4496689
  11.3451910  89.3981838   1.7376351  10.8542275  89.2586994   2.5474077
  12.0421946  88.7426567   1.7641963  40.5712318  89.9111557   6.2388438
  41.5003014  90.1031494   6.3661295  40.4080486  89.1434383   6.7867500
  86.4599895  19.4321537  54.6812153  87.2087574  18.8379180  54.7309780
  86.8436337  20.3067470  54.7455597  96.6456223  11.7447722  51.6486692
  97.5410843  11.4655602  51.8395329  96.7153358  12.2257125  50.8240032
  85.2423668   9.1206378  55.7879400  85.5478287   9.7644156  56.4270592
  84.8536873   9.6444392  55.0873709 106.7820835  29.7527432  88.6995888
 106.4791489  29.7262859  87.7919674 107.3778152  30.5012846  88.7315178
  99.6286011  55.1658726  64.0599775  99.6469498  55.7179976  63.2782793
 100.2311611  54.4491816  63.8611984  16.5961540  66.4467478  60.4071045
  16.5717793  65.7511759  61.0642338  15.9504640  67.0851517  60.7100153
  29.8934674 107.5052547  17.5746703  29.5433021 107.6021767  18.4602344
  30.0848889 106.5708923  17.4937344  92.4281311  35.7027793  46.4830828
  93.0903339  35.3709912  47.0894098  92.0715714  36.4772367  46.9181776
  25.6381154  84.7262383   2.9766095  26.3647652  84.1591549   2.7184957
  25.9305143  85.1342201   3.7916470  88.4584045  31.8822742  64.9521732
  87.9728794  31.4778662  64.2331839  88.5684586  31.1791039  65.5922318
  13.9799571  33.5185671  36.5490985  13.2836080  33.0255246  36.9829655
  14.5179546  33.8545489  37.2659731  15.2833569  29.9278903  86.1330891
  15.9768629  29.3578625  86.4652824  15.5915034  30.2014995  85.2691364
 109.7197151   8.5163325  51.5147209 110.3242397   9.0887916  51.0424137
 109.8380661   8.7503856  52.4352884  20.3199100  54.0150928  76.0768795
  20.5800962  54.3920231  75.2363682  19.9254239  53.1730175  75.8499002
  83.4354210  11.0526896  78.8498497  84.3074036  11.4446163  78.8023138
  83.1700516  10.9473252  77.9362249 100.7177448  45.3842068  66.9912529
 100.0906658  45.4920912  66.2761497 100.9515190  46.2779951  67.2416878
  84.1947174  14.3749464  57.5941420  84.5877075  15.0434792  58.1552601
  83.2734203  14.3561804  57.8531742 114.2607212  63.6815262   2.3140593
 113.7453461  64.1499567   1.6574034 115.0629044  64.1964769   2.4009492
   7.9452962  22.8718996  60.8405638   7.9846072  22.6866484  59.9022865
   8.0452776  22.0163465  61.2580156   2.8872547  19.1453791  93.5911274
   3.7822530  18.9115369  93.3451080   2.4772914  19.4197404  92.7708340
  94.7542477   8.0515021  84.8262501  95.1785851   7.9038775  83.9810467
  94.4566441   7.1837908  85.0996494   3.2363030  32.0353603  86.5397453
   3.3618155  32.5338030  87.3472309   2.5302091  32.4927902  86.0832119
  11.9747126  55.7504082  83.7797737  12.7756882  56.1917067  83.4970570
  12.0863974  54.8441744  83.4925556 106.8464470  64.7052479  19.0645099
 106.5122604  65.5045795  19.4714701 107.7469349  64.6337223  19.3811023
  95.9146690  35.3465986  68.3502722  95.9171677  34.4609070  67.9872608
  96.7463207  35.4156256  68.8191271 109.2691326  21.2995815  71.0054970
 108.6688805  21.4441490  70.2740431 109.3666553  22.1619225  71.4093399
  76.8387747  51.2591076  58.7897778  77.3548412  50.7645464  59.4264174
  76.9919109  52.1760416  59.0178299 110.7449245  16.8653917  37.9873610
 110.8389664  16.0899878  38.5406566 111.3376427  17.5094259  38.3748293
 113.2635880   4.0409780  78.6595345 114.1183186   4.4702467  78.6967945
 113.4244537   3.1577721  78.9916515  27.7566028  72.4622726   4.8823893
  28.4182954  73.0569935   4.5292574  28.2127523  71.6262388   4.9783471
 104.0576649   9.8651189  78.5730839 104.5501709   9.7060329  79.3782949
 104.7043228  10.2196765  77.9628849   2.8851646  21.8901753  83.4579563
   3.3706683  21.4977241  84.1835594   1.9823152  21.9384742  83.7722206
   0.8169082  53.8340187  87.4528599   0.2608859  54.2790508  88.0924129
   0.3104156  53.8529587  86.6408634 110.4360294  39.6965098  73.2965708
 110.0770569  38.8346243  73.5075903 110.1582909  40.2557993  74.0220261
  22.3515224  28.0111575  69.0353489  22.5769973  28.5685444  69.7801399
  23.1656551  27.9355526  68.5376453 112.7809143  51.0730076  27.0804524
 112.9254150  50.1332331  27.1907902 111.9057083  51.2242889  27.4373364
   1.6962762   3.8260087  60.4130936   0.7753793   3.7502587  60.6629801
   2.0617777   2.9570723  60.5791950  60.3176594  46.2638521   8.2213622
  60.4330015  47.2107601   8.3006877  60.1859999  45.9624672   9.1202861
  98.0653286  47.1252871  10.1725960  97.3335743  46.5151453  10.0804436
  97.6523399  47.9861879  10.2398157 101.7182064  63.5687304  59.7617769
 102.3746109  63.0122519  60.1809359 101.0825920  63.7520695  60.4535961
  70.2069664  46.1189032  42.9987335  69.8181057  46.8872404  43.4166813
  70.0020266  45.3949404  43.5904360 111.6459846  18.6382520  66.1078405
 111.9159985  18.8615203  66.9986153 111.7823887  17.6928353  66.0460854
  86.0090256  63.8510275  34.3342471  86.3768101  64.7131538  34.5284319
  86.7275333  63.3714390  33.9219713  12.4207032  53.4789419  57.5225592
  11.9976556  53.2940388  56.6840649  11.7704821  53.2291746  58.1791162
 111.1784649  54.0201664  65.7142258 110.8415127  54.7021103  65.1331520
 112.0512581  53.8247108  65.3732681  96.2466908  82.6647282  55.1360273
  96.8678188  82.9289627  54.4573450  95.9514999  83.4883213  55.5243349
  26.3357449  59.8356676  77.7976322  27.1099901  59.3142605  77.5857210
  26.5117526  60.1810169  78.6728382  22.6019716  47.4427557  39.8332620
  22.8832126  47.5096798  38.9207602  21.6554260  47.5819206  39.8029804
  22.0900702  44.3936539  63.9771509  21.8415952  45.2169132  63.5567570
  21.3221478  43.8313818  63.8752794  94.2313290  54.4441462   1.6455963
  93.9512825  55.3183222   1.3742687  94.9616718  54.2351055   1.0632437
  85.3848076  16.2323856  85.0667095  84.5030975  15.9408426  84.8347282
  85.2851391  17.1639061  85.2630997 111.3672829  31.4081502  59.7535849
 111.7637444  32.2547460  59.5478535 110.4991913  31.6263008  60.0927830
  96.6852379  51.3834095  52.1837044  95.8435535  50.9456635  52.3109198
  97.2735882  50.9569502  52.8067636   8.6595720  51.5646458  79.2900372
   7.7314252  51.3646889  79.4116640   8.7497723  52.4711847  79.5837831
  88.5274792  77.0239973  78.4021568  88.2561111  77.2563839  79.2901802
  89.0087891  76.2031364  78.5058784  84.4116116  96.4774227  66.9097948
  84.4642544  95.5706787  67.2119093  85.1954746  96.5971375  66.3736439
 115.6945992  42.4361420  94.1704178 115.8975983  41.6666889  94.7023582
 114.7459793  42.3992062  94.0480137  28.9544368  41.5413952  45.2852106
  28.9882302  42.0356369  46.1042452  28.9621925  40.6240797  45.5585241
  13.3049464  49.2597008  65.9717417  12.5069869  48.8299704  66.2796736
  13.4252238  49.9979019  66.5690851  14.3685055  65.2515459  69.1306734
  13.4712994  65.1402283  68.8162518  14.2781937  65.3672886  70.0765467
  87.6202202  43.9386129  59.8593569  87.9740524  44.8187208  59.7311449
  88.3886814  43.3679724  59.8511124  56.8541670  13.5539591  13.7818408
  56.6839790  14.3902636  14.2152715  57.7194738  13.6606753  13.3867586
 114.9314117  74.3111515  41.5833378 114.4664001  74.1610098  42.4064159
 114.6370316  73.6038733  41.0094690   1.1073963  56.3096571  49.2312670
   1.5416962  56.8839884  48.6005831   0.9111297  56.8773222  49.9765682
  51.3479853 108.0170059   1.0105119  50.8988380 107.9643726   0.1668732
  50.6837893 108.3477116   1.6152494   7.7893734  26.8364239  82.2232437
   7.6604617  26.1440778  81.5749645   7.0208645  27.3991728  82.1287060
  91.2790012   1.9087709  10.3326333  90.8456039   2.6985401  10.0091159
  90.6224346   1.2188837  10.2367043  96.1807060  33.9005733  46.4022732
  95.4056644  33.9016032  46.9640017  96.5210342  34.7932243  46.4620733
 110.8485794  25.0197458  81.2121487 111.5064812  25.5547523  81.6561890
 110.0112534  25.3971744  81.4817047  92.0672417  66.4729023  79.8300219
  91.3863373  65.8937263  80.1723099  92.8324795  65.9074306  79.7256804
  36.5748930  27.5748754  58.3040094  37.3105383  27.2105265  57.8117609
  36.2711430  26.8509483  58.8516378 114.4270229  45.4246616  30.6229186
 114.3645668  46.1750793  31.2138534 115.3150463  45.0914764  30.7519126
 105.3466320  21.2167263  56.7819262 104.5621300  21.5007591  57.2510862
 105.1454830  20.3255033  56.4964581  24.8010874  19.4385457  60.5306816
  24.5815349  20.2554703  60.9786415  24.4877005  18.7512803  61.1186361
   4.7493050  54.3290758  66.5828228   4.6367347  53.4486580  66.9411850
   4.4386402  54.9113894  67.2760963   9.7715420  42.9469395  63.1142664
   9.5319319  43.3507204  62.2801304   9.4324303  42.0538378  63.0542040
  86.0878086  45.7592344  33.8473153  85.4803562  45.2051926  33.3571458
  86.1099911  45.3737974  34.7232056  86.1600208  34.0832424  68.4091711
  85.3993130  33.8868690  67.8623629  86.8627071  34.2657185  67.7853489
 106.5516186  10.9718406   0.4762831 106.7080879  11.9077969   0.6017142
 105.6966209  10.8160675   0.8774677   1.9833320  47.0763016  74.3786001
   2.6468390  47.5296783  74.8986340   1.6955516  47.7266502  73.7379313
 113.9431000  53.8377953  65.4263639 113.9360905  54.6928167  64.9961042
 114.8494244  53.7203026  65.7109737 102.5011349  43.0814409  71.3832903
 101.8374252  42.8074932  72.0162773 103.3349609  42.8860188  71.8108177
   0.6728714  76.9115591  75.9539986   0.0078425  76.6049337  75.3376007
   1.4146577  76.3218546  75.8189726 103.6942005  95.5197334  19.2636514
 102.9021263  95.4215240  19.7920597 103.9196205  94.6270752  19.0017653
  14.3434358  38.7791348  86.8945217  13.4096980  38.6081839  86.7714596
  14.5489252  38.3869481  87.7431679 108.6612988  81.4794540  75.2542782
 109.1687202  80.6722736  75.3392172 107.9092503  81.3515568  75.8324718
  99.7969532  19.6378124  67.9546261 100.2408886  20.0266194  67.2009850
 100.1022530  20.1504254  68.7031269 108.2634258  54.9873781  65.5922794
 108.3829784  55.7971144  65.0960255 108.6460972  54.3077135  65.0374365
 110.3070164  27.9099798  56.5419054 110.8015537  27.0965099  56.6415787
 110.1977921  28.2349133  57.4356174  42.0487452  97.2941685  29.3288946
  42.9796982  97.4255276  29.5086217  41.7630339  98.1169510  28.9318657
   2.4926716  69.2005014  56.5759993   2.1250214  68.3543110  56.3209963
   1.9264981  69.5035172  57.2858286 115.3781605  66.0027075  56.4436626
 115.7890511  66.4722824  55.7177877 115.2902222  65.1033640  56.1279345
  95.4684353  38.0267406  88.2959366  95.3885555  38.9306211  87.9912281
  95.1103210  37.5004649  87.5810814 110.0289917  47.3531103  61.8001318
 110.1058388  46.9753790  62.6762867 109.1020679  47.5766754  61.7161465
   7.6565510  56.5811253  53.8029432   8.0277371  56.2102270  53.0023909
   8.2112539  57.3368454  53.9963865  10.4460371  57.2737312  90.2116776
  10.5770040  56.3287306  90.1338959   9.6484882  57.4469709  89.7115421
 114.0601349  36.4925790  74.8392630 114.1806698  37.3732448  74.4841194
 113.9841843  36.6237855  75.7843828  78.1578255  69.0201092  61.6710758
  78.9022160  68.4188461  61.6955757  78.5434628  69.8846292  61.8129206
  63.8220501  15.3245056   2.3150341  63.4336758  15.1850665   3.1787205
  63.8323450  14.4554663   1.9139157  96.3993168  54.4502306  61.1382055
  96.1411190  54.7554684  62.0079184  95.9328651  55.0273609  60.5335712
  96.7389679  74.7894192  70.6990147  96.3749599  74.3240643  71.4521265
  97.0150375  74.0960741  70.0996065  19.4748676  47.8911829  69.0188026
  20.2067232  47.8239584  69.6320724  18.9503157  48.6197710  69.3508148
 114.6858883  11.5623212  83.7218285 115.2151966  11.3244820  84.4830799
 115.2273369  12.1870661  83.2393837  11.2858129  16.5661740  47.5342083
  10.9183753  15.8044600  47.9825544  11.2366033  16.3436794  46.6045284
  98.6829853  26.6301322  62.0311165  97.9528522  27.2487712  62.0518351
  99.1918278  26.8858647  61.2617636  37.3339343  48.7975311  78.3831692
  37.2307611  48.0919981  77.7445650  36.7635345  48.5478544  79.1101742
  89.8258209  39.6071434  47.9564238  89.2697334  39.9794340  47.2720289
  89.3145466  39.7044492  48.7597656 114.6099854   6.2559003  52.8344059
 114.5426559   5.3063989  52.9351282 115.3239632   6.5088058  53.4196424
  11.1480486  47.0558834  48.4089708  11.1217988  48.0093050  48.3281326
  10.6261384  46.7385674  47.6719809  90.5217648  67.5317144  82.0929718
  90.4026031  66.6375446  82.4131203  91.1343002  67.4449730  81.3625622
 111.6805267  61.6803980  37.7479410 111.5645027  60.8545160  37.2781706
 111.4373493  62.3536301  37.1124434  21.6143990  42.2411203  85.4032230
  21.7277455  41.4600325  85.9447765  20.9110165  42.0115232  84.7959518
  99.9831295  17.6699984  49.0059471  99.5266914  18.3578062  49.4905329
 100.5883884  17.2897887  49.6426010   5.9927636  23.1095743  36.6738057
   6.5739095  22.6000142  37.2384715   5.1455981  23.0864143  37.1187854
  42.9591513  93.3095455  17.7228045  42.9066944  94.0053082  17.0675194
  42.3534012  92.6383495  17.4085057  84.0789795  37.3746538  38.1169820
  84.4750309  38.0043221  37.5145793  83.7040043  36.7022634  37.5481987
   5.9024143  19.3790603  40.5801916   5.5212200  18.6526203  41.0733557
   5.9249640  19.0683782  39.6750975  99.0726376  36.4598179  61.2649679
  98.5879803  37.2657061  61.0864067  98.5380173  35.9967136  61.9099092
   3.0236307  49.5106506  81.4218044   3.5789496  50.1908398  81.8028545
   2.3435882  49.3608665  82.0785713 107.8575897  24.9472570  50.2160501
 107.3218250  25.4837346  49.6317768 107.4175358  25.0041437  51.0641909
  30.1815748  94.7642326  73.9837027  30.9065223  95.1774788  73.5147524
  30.5615497  93.9706802  74.3607044   1.4717703  32.2431087  66.7653513
   2.0597090  32.4209237  66.0312223   1.9168606  31.5616155  67.2690296
  21.3608217  52.2672844  79.1917276  20.5523777  52.6536655  78.8550377
  21.0980678  51.4052200  79.5142698  72.2654009 104.8022270  62.2239208
  72.2423315 105.4864502  62.8929043  72.6494980 104.0461349  62.6677895
 101.7426395  52.3186827  66.5458250 100.8235455  52.1543169  66.3349390
 101.8722439  53.2456923  66.3455915   0.1149949  43.4250450  65.1380062
  -0.0443893  44.3431234  64.9189949   1.0491101  43.3864880  65.3433704
  11.0947406  75.8330822  43.1198454  11.2829351  75.0251484  42.6422882
  11.9368446  76.2858248  43.1658125 102.5523281  23.9025497  60.3137589
 102.7495193  23.2313156  59.6604633 101.8724346  23.5108209  60.8619595
   5.4973125  31.0435390  85.6656170   6.0932750  31.6877937  86.0477161
   4.6230021  31.3747716  85.8708000  90.6531048 100.5191422  91.1263275
  90.8952427  99.5994473  91.0179043  90.7290268 100.8919525  90.2479935
  96.2484074  22.5005579  73.1464195  96.2264633  22.5635171  72.1915436
  97.1462440  22.7349472  73.3813334   1.8856613  48.0409431  85.8691597
   1.7721707  48.2711458  86.7913151   1.7089579  47.1008730  85.8334827
  70.9993649  11.4197874   8.1689465  70.1466274  11.0778403   8.4375495
  71.2323856  10.9031951   7.3975420   6.1250520  50.9464264  89.9555492
   6.5907079  50.3860188  90.5763054   5.2344120  50.5961561  89.9381065
 108.9556313  57.5597000  88.0390167 109.2890549  57.5503922  87.1418190
 108.2104969  58.1598949  88.0114079  39.3561339 107.1166706   6.2961149
  39.1656160 106.8429852   5.3988796  39.7083497 108.0022144   6.2067270
 105.6161404  32.9686856  55.9158468 105.6341457  32.1697712  56.4427662
 105.1681614  32.7136135  55.1093245  97.2554398  62.4190283  63.6542988
  97.3327923  62.4442863  62.7005625  96.8811131  63.2687569  63.8868237
 108.8573933  49.1007137  67.1806335 108.2359219  48.4391117  66.8768597
 108.4530354  49.9355364  66.9444180  15.5478168  21.8161511  52.5447750
  15.7803261  22.5185156  51.9374418  14.6050739  21.9161224  52.6769590
  50.5624342   0.3351728  63.2501364  51.5111065   0.4611741  63.2307434
  50.3287125   0.4176509  64.1746902  92.3801231  56.3651705  80.2387047
  92.9050541  55.7844353  80.7895374  92.9043579  56.4823389  79.4464397
  68.0132103   9.2411983   2.3033199  67.1019697   9.2942131   2.0151177
  67.9712296   9.3560910   3.2526720  19.6406412  59.6214867  53.8864517
  19.1122293  59.2630625  54.5995760  19.2529809  59.2531157  53.0925655
  20.8258033  97.6411247  19.1534376  21.4273810  96.9245815  19.3556905
  20.8120656  98.1739616  19.9485040   0.0198575  74.0785694   2.8784370
  -0.4059425  73.2231855   2.8215155   0.5513851  74.0291309   3.6729595
 112.2658062   5.3422862  85.1898193 111.7416191   4.5414266  85.1806641
 112.7740669   5.2866274  85.9990215  35.8103228  95.5419827  78.2426310
  35.5744720  94.6182251  78.3278751  35.0719929  95.9357834  77.7778482
  92.6567554  29.6270967  83.0646706  92.5375938  28.7323332  82.7461910
  93.1782627  30.0554776  82.3858833  58.0757427 103.1574345  65.9510136
  58.8074923 103.5854340  66.3955307  57.3288488 103.7349319  66.1087275
  85.5914688 109.6395206  73.4160280  85.8731556 109.2391014  72.5935078
  85.3175735 108.9013195  73.9603376  41.6192675 107.3448181  56.7127323
  41.2121773 107.2680855  55.8498144  40.8823776 107.3945904  57.3216200
  69.1217804  99.9773121  68.6523294  68.8681555  99.0928459  68.9162111
  69.5097256  99.8663044  67.7843380   7.5809062  14.0124130  30.0554943
   6.9412982  13.7270045  30.7079339   8.2897210  14.4003153  30.5686665
  69.5150852  15.3788161  24.5287991  70.3332472  15.3192592  25.0220466
  68.9366245  14.7407126  24.9464583 101.5625763  25.3804040  70.2763557
 100.6767941  25.3322530  70.6359434 101.6978359  24.5300984  69.8581314
  97.7964115  50.5462503  58.1752110  98.2890320  51.3305140  57.9333687
  97.4965572  50.7175684  59.0679407  78.1943750  25.8165359  31.3569498
  77.5464439  26.2647200  30.8133078  77.6876068  25.1727915  31.8519378
   5.6872648  27.0226049  78.4351969   6.5805167  27.2659469  78.6783361
   5.1315337  27.5256968  79.0304232 111.3609886  21.5547037  45.4386139
 111.0352039  22.3912644  45.1065493 111.4873314  21.0189986  44.6554852
  63.9974451  95.3752422  83.8706779  63.3211946  94.7211456  83.6944199
  63.7817764  95.7146454  84.7393036  48.5351658  91.1311722  70.5571032
  48.9969587  91.3577557  71.3643408  49.0005302  90.3647614  70.2220011
  12.2486356  23.7253775  95.0413362  11.7670348  24.3043341  95.6321843
  11.7484668  23.7459482  94.2254687  82.4962330  23.1718636   6.1398751
  82.0994473  24.0371752   6.0397458  83.2200336  23.1663370   5.5135167
 102.4872875  33.5319138  61.2361383 103.3781338  33.8820219  61.2295103
 101.9614983  34.2068410  60.8068991  94.4850159  14.8763621  57.6590395
  95.2118206  15.4264021  57.3667288  94.3411541  15.1336277  58.5697269
 104.9899483   7.1234930  65.8651209 104.8676014   7.6033449  66.6842699
 104.2041969   7.3176771  65.3541279   4.1632596  23.5165048  27.7110648
   4.9895838  23.1814957  28.0591869   3.5280329  22.8242612  27.8941441
  51.4178848  27.6526618  82.5918674  52.3401499  27.6166487  82.3381805
  50.9707689  28.0012202  81.8206215  85.9464741   4.8979801  83.3223724
  86.2256336   4.5893693  82.4603653  86.6434860   4.6163395  83.9148903
  19.4217527   0.3573416  51.1968231  19.7970533   1.2014174  50.9459925
  19.2876434  -0.1011385  50.3673410  75.2019882  45.3910685  47.8874969
  75.1027060  46.3114452  48.1309748  74.7902393  44.9080229  48.6039877
 116.4975071  34.8428702  74.4230604 115.6435776  35.1520109  74.7255039
 116.5344334  33.9285326  74.7038746  88.1660843  31.9055009  58.8695383
  89.0300369  31.7571688  59.2540169  87.6342583  31.1755610  59.1866875
 113.4727192  75.9185886   4.6425539 114.2725086  76.1531687   4.1718805
 113.1283379  75.1622915   4.1675252  85.5458927   8.5348451  85.3292942
  85.1792717   8.4159625  86.2054729  86.1039543   9.3087304  85.4061413
 113.8263893  31.2141132  75.0300932 113.8510323  30.2704763  74.8714304
 112.9920101  31.3603282  75.4758215  97.6915550  21.2971663  42.7567720
  97.4635029  21.5301323  43.6567402  96.9240475  21.5478420  42.2426462
  99.7833824  25.2597332  27.4942112 100.3999329  25.2121019  28.2248521
  99.2503166  24.4692111  27.5787234  83.2862473  35.1633310  36.4615726
  83.9835072  34.5431232  36.2484860  82.7039719  35.1392531  35.7022309
 103.9124775  15.6339324  42.5902987 103.5191536  15.7543802  41.7259979
 103.5356331  16.3331151  43.1244898  12.0360768  26.2485576  48.3415508
  12.4048769  27.0776772  48.6461496  11.6256320  26.4624262  47.5036812
 114.5810127  36.7453718  69.4286442 113.7778568  37.1353030  69.0834999
 115.1029491  37.4921823  69.7220469  76.2062931  22.0760775  80.9344673
  75.2513361  22.0365834  80.9866714  76.3843536  22.8269768  80.3681850
  84.1756344  18.5993171  39.2328501  83.3077240  18.1965435  39.2598534
  84.7834110  17.8642893  39.3139076  94.8240662 108.5675144  51.7290306
  94.4784069 107.6846218  51.5976763  95.7391930 108.5097694  51.4543533
  47.3863173 108.5353756  64.8405743  47.5445509 109.2800808  65.4207516
  46.6275454 108.0926228  65.2206755 102.7251244  45.8490801  39.7929549
 102.1374416  45.5301952  39.1079950 102.3968220  45.4463243  40.5968428
 106.5395355   9.0272975  38.4784079 106.0615444   8.9159083  37.6566124
 107.4541855   9.1220462  38.2125449  49.3575335  94.4565201   1.2688155
  49.9999094  93.9309692   1.7456618  48.8839293  93.8238621   0.7287528
  55.8952665 104.6904659  67.1403933  56.7084932 105.1944733  67.1698475
  55.6703854 104.5447350  68.0593204 109.3349838  40.4613972  25.6834674
 108.5501671  40.3170872  25.1548266 110.0505257  40.1174307  25.1487541
  59.7498894 102.2076702  54.6493530  59.5972157 102.4669647  55.5580235
  60.4800892 102.7564240  54.3631458 106.2106228  45.3419113  44.2123938
 106.2935734  44.4409370  43.8999796 107.0926571  45.5779600  44.4996786
 104.8575974  19.2156923  80.4084778 104.7088051  19.2197609  79.4629192
 105.5520725  19.8602486  80.5444241 111.4758968  33.9539170  81.4935875
 112.1105099  34.5912361  81.1660004 112.0078564  33.2108188  81.7782879
  16.3321805  35.7460713  72.5957680  16.4158475  35.9909344  73.5173273
  16.6828191  36.4963531  72.1158075  23.0792403  11.7417252  83.1649971
  23.4327149  12.6281679  83.2392025  23.8406777  11.1708629  83.2677650
  62.1309233 107.7362633  52.0377541  61.4416933 107.2893810  51.5463400
  61.9412565 107.5342941  52.9539776  59.1914940   5.6638026  66.8887091
  59.6545744   4.8500043  67.0875120  59.8605537   6.2335402  66.5092516
  20.4035044  81.1144161  88.2479191  19.8551118  80.4297733  87.8648281
  19.9209189  81.4022160  89.0228462  98.3623886 105.9986401  20.7031322
  98.7261200 106.4371395  19.9339449  99.0548897 106.0561562  21.3614416
  97.6248550  53.4667349  42.6669884  97.6483345  53.4647655  41.7100763
  96.7006683  53.5898972  42.8836441   5.5339533  82.4909210  10.6118512
   4.8593527  81.8240356  10.4837394   5.2191043  83.0111790  11.3510573
  18.5689867   7.7552754  93.2205486  18.5216761   7.4709839  94.1333294
  18.2197845   7.0169818  92.7213383  73.0983448   7.9875499  56.0401964
  73.0742693   7.8915870  55.0881243  73.5666847   8.8094628  56.1863136
  80.5198097  24.0787458  51.6684580  80.7513523  24.8697710  52.1551752
  79.8185539  23.6780739  52.1822071  90.4177856   7.3611236  48.9653397
  91.3629913   7.3998106  49.1113663  90.1531696   6.5173393  49.3317223
  74.7124195  33.7926745  53.7762117  74.3006420  34.3227053  54.4586611
  74.1549349  33.9161873  53.0079746 110.8310890  13.0363297  77.2800589
 110.7827091  12.7693427  78.1979990 110.4060078  12.3249698  76.8009949
   9.8387271  28.7958002  69.8587656   9.5379692  27.8955293  69.7351122
   9.8049819  28.9316702  70.8056736  93.1209660  11.3366950  54.9965239
  93.6660290  11.8733633  54.4210911  92.6276779  10.7722652  54.4012737
 115.0062943  10.5826771  51.0867548 114.6412754   9.7355580  50.8310604
 115.4074383  10.4226208  51.9409800 100.4263306  29.0530086  62.2535467
  99.6558189  28.9245844  62.8067684 101.0212803  28.3461142  62.5036716
  71.6830921 102.6152706  59.9266768  72.4351549 103.1805801  59.7504330
  71.3490963 102.9173946  60.7713079  17.2502708  41.7604256  63.4243345
  17.3642409  40.9946489  62.8614616  16.7187345  41.4438391  64.1547251
  19.0612376  33.7827206  59.7124386  18.1545103  34.0616655  59.8399734
  19.3991470  33.6540174  60.5987120  12.7911663  14.0733266  39.5095873
  12.5506461  13.6720479  38.6745095  12.4224138  14.9555886  39.4663835
  68.9807129 103.2771111  31.1429739  69.6990633 103.4941292  31.7371988
  68.1915569 103.5474014  31.6124535   6.3852632   3.4545738  71.2011814
   5.8084029   3.1981742  70.4816484   6.2574035   2.7760357  71.8641043
  95.3706074  27.4967909  40.6154394  95.6498623  28.2642174  40.1161385
  94.4306469  27.6238346  40.7441473  90.3143311  31.4764857  70.5030107
  90.5592442  31.7368007  69.6150446  89.6002960  30.8508182  70.3808355
 102.2384262  39.9123168  43.1977892 102.5191784  40.7755613  43.5014677
 103.0503654  39.4694328  42.9511499 113.0106068   1.2164692  88.9674950
 112.1887112   1.6057555  89.2661095 113.6574173   1.4962453  89.6152592
  95.2075577  29.1735959  43.3458042  94.8953629  29.7199464  42.6245117
  95.1089096  29.7236156  44.1229677  38.1182790  94.3467140  52.8972816
  38.9570284  94.7718716  52.7184772  38.1950474  94.0353203  53.7991571
  64.4365978  18.2737815  62.6910305  64.0287066  19.1393256  62.6648140
  64.7231913  18.1714535  63.5985661  99.9977016  36.8681788  55.6003475
 100.0343704  37.4447727  54.8371792  99.5956230  37.4025679  56.2851810
  16.7000580  10.5843091  53.1052256  16.6526449  11.1875880  53.8468742
  17.5578129  10.7517195  52.7147627  97.1819592  10.8711374  42.9207230
  97.9418468  10.3995514  43.2619095  97.1255493  10.6028783  42.0036173
  70.7140541   9.1630763  52.7167130  71.3807869   9.6829832  53.1654882
  69.8980522   9.3788713  53.1681633  65.9980011   5.3933042  37.0969439
  66.1974764   6.1195374  36.5061593  66.8541574   5.0777227  37.3861456
  88.5977459  10.6414115  69.1995096  87.7094078  10.7461667  68.8587475
  88.8335228  11.5102434  69.5247269  96.9485188  36.7269301  65.1138067
  96.7088890  36.8150973  64.1912889  96.7883205  37.5937986  65.4867792
  79.2872715  24.9605656  70.2140760  78.9796495  25.2006173  71.0881329
  78.6079597  25.2858639  69.6233559  97.4584389   5.5696660  44.0930653
  97.3385334   6.3074160  44.6910429  96.8051624   4.9275634  44.3708658
 113.6852455  37.0627880  77.4783278 114.2726517  37.1434116  78.2297850
 112.8329086  36.8559527  77.8616905 109.8296833  21.4253759  88.9758492
 109.3605995  22.2391820  88.7917042 109.8434258  20.9620786  88.1383514
 103.1817722  36.9577885  62.0495129 104.0956020  36.6744137  62.0203686
 103.0885792  37.3783898  62.9042864  95.9291077  42.7165365  54.5754862
  96.7244339  42.8421450  55.0930834  96.1542606  42.0235586  53.9547491
 105.7912731  38.3059216  73.3576393 105.4133224  39.1813922  73.4409142
 105.5916309  38.0433321  72.4590731   1.0574093  28.4000111  65.6161785
   1.5720592  29.1281033  65.2679729   0.8993196  27.8351307  64.8597765
  62.0459652  79.6085644  54.0759516  62.3197842  78.7879992  54.4857359
  62.6934338  79.7601843  53.3874559  95.7612514  45.8839226   5.5990237
  96.5154076  45.6611824   5.0532401  96.0123730  46.6990948   6.0333818
   1.6523051  18.2731104  59.9840927   1.6905059  18.2613409  60.9404564
   0.9743207  18.9170527  59.7793770 109.0232563  24.2990255  77.7517176
 108.3932686  24.7948527  77.2287464 109.5306778  24.9672556  78.2123947
  93.8917446  26.3696098  63.0966425  94.1291142  26.6482663  62.2122002
  94.4917774  25.6493187  63.2899570   9.5962662  46.0882711  46.1538267
   8.9005274  46.7103386  46.3664532   9.1366816  45.2698660  45.9661341
 101.0361481   9.7213924  73.1164074 100.7556438   8.9164120  73.5517836
 100.2359962  10.0747788  72.7276850  86.8664742  26.0893369  30.3623533
  87.4606895  25.3469396  30.2528691  86.3346386  26.0898423  29.5664954
  61.5591049  59.2880201  26.4464474  61.4484358  59.8233175  25.6606722
  60.6710196  59.1718435  26.7841434  66.3928652 105.9115028  65.9854650
  67.2381306 106.1638355  66.3570738  66.1999893 105.0626755  66.3836193
  71.4815235  47.1615648  57.0349121  70.5332518  47.0486355  57.1001625
  71.6822100  46.9764376  56.1174774 115.3316307   7.8812712  14.9482918
 115.8053493   8.4502852  14.3416214 114.6209908   8.4277427  15.2838492
  11.9248569  43.8015175  35.1552463  11.2141168  43.4233522  35.6730008
  11.5295279  44.5582676  34.7224951  90.0963783  15.5256057  60.2270412
  89.2359352  15.8237290  60.5219984  90.1583958  14.6238756  60.5421114
  90.4475498  48.4330034  28.6643171  91.0840130  47.8956556  28.1927156
  90.9697819  48.9162636  29.3046021 107.7825642  30.3278685  30.2779102
 107.2945404  30.8774209  30.8911467 107.1324444  29.7133827  29.9373507
  79.5652866  55.7886219  31.8948722  79.5837879  54.8335695  31.9561815
  80.1925755  56.0832119  32.5551414  23.6367822  23.1018806  45.1680136
  24.2327094  23.5988069  44.6075058  24.1638064  22.3698783  45.4884005
 109.2231560  60.2543831  52.6535988 109.1156673  60.2620125  51.7024851
 109.6024036  59.3965960  52.8449011 108.9976788  23.7025523  59.1951799
 109.3606281  23.7770963  58.3126020 108.2838631  23.0708075  59.1080379
  99.8605633  15.7639408  81.0753250  99.3667316  16.1323464  80.3427696
 100.7757854  15.9480739  80.8639145 101.3200378   2.6416299  73.6042404
 100.8641624   1.8243992  73.8055944 100.9352303   3.2837838  74.2007256
  30.6670022  29.0486574  56.8125534  31.5163851  29.2928672  57.1801662
  30.7583570  29.2066073  55.8729029  17.0649064  55.8430099  71.5539980
  17.5494373  55.0281954  71.4215612  17.4797392  56.2471914  72.3160934
 105.0065899  46.3404131  53.2992649 105.2252579  45.7190466  53.9937639
 105.8513737  46.6904306  53.0163288   8.6469036  49.6817350  76.5484476
   8.3896923  49.6834040  77.4704409   8.5525101  50.5932093  76.2718058
 104.3219471  40.4672003  74.0743160 104.3593311  40.8782530  74.9379539
 103.5975647  39.8446012  74.1365480  77.9048395  50.8967686  43.1617832
  76.9489479  50.9289312  43.2000780  78.1501532  50.2600813  43.8331079
 110.0812435  27.5229812  24.7115397 110.8756351  27.3330545  24.2124391
 110.3250980  28.2523012  25.2814984  91.4157391  70.9830093  53.3620787
  91.8002033  70.9162951  52.4880219  90.9984112  70.1336193  53.5056353
 113.3702278  28.7897515  63.8699007 113.0167007  27.9012465  63.8273811
 112.8994656  29.2677665  63.1871748   8.3150840  33.0103445  69.2280579
   9.1289175  32.5588036  69.0044069   8.2328361  33.6974120  68.5666895
  74.4389012 108.9493140  71.6846323  73.8247922 109.4091577  71.1122227
  74.0273145 108.9762997  72.5483990 116.2193281  53.1446934  58.6004496
 115.4549018  53.0234241  58.0372620 115.8598316  53.1858397  59.4866228
 116.3733673  28.3798265  68.9492559 116.0366821  29.2370510  69.2101002
 115.6642532  27.9892778  68.4385157  80.1581669  26.5269399  57.7854586
  79.8141003  27.4075294  57.9351759  79.4860268  26.0933709  57.2596455
  32.3841286  59.4233179   2.2993480  31.5911508  59.9540710   2.3749851
  32.1811938  58.7857151   1.6148722   4.6182311  24.4747829  56.4757252
   5.2175659  24.1367674  55.8103132   5.1401860  24.4997454  57.2777081
 104.6405315  27.3584533  76.0532236 103.7761879  27.4580956  75.6542015
 105.0954914  28.1747532  75.8461142  89.4039345   7.6598984  68.1875706
  89.4422531   8.5734403  67.9043674  88.4694290   7.4533826  68.2044840
  13.8397586  30.5959439  68.7972021  14.6054351  30.6819630  69.3651581
  13.5216236  29.7074127  68.9569998  23.8718128  28.3986640  50.5274868
  24.6322370  28.0359507  50.0731468  23.6136389  29.1529822  49.9977875
   2.3319469   4.7156131  68.3210897   2.2786261   5.6702197  68.3670712
   1.4717737   4.4427818  68.0018759   6.1411858  19.2588496  20.3234673
   5.3549463  19.7360861  20.5886173   5.9279144  18.3392143  20.4816437
  26.4704895  24.3187022  44.1009092  26.7535615  23.4058833  44.1544485
  26.7631245  24.7089148  44.9245167 110.4046822  40.9258652  75.7537651
 111.3133621  40.6591415  75.6145000 110.4391289  41.8815851  75.7943392
 105.0855446  42.9353714  72.6106310 105.7571125  43.5654116  72.8719187
 105.1385212  42.2421598  73.2685709  87.7572346  46.5921450  44.0706825
  88.5573578  47.1171618  44.0904427  88.0616283  45.6884527  44.1538334
  33.1045389  47.5157404  54.6491957  32.4356866  47.1550560  55.2312422
  32.6184726  47.8091049  53.8785410  79.7205639  24.3496895  54.6562624
  79.1099119  24.9843907  55.0310850  80.4791832  24.8721218  54.3958855
 103.0519199  10.7207942  85.3184891 103.7380028  10.2722633  84.8241711
 102.2674751  10.1917648  85.1735497  87.5374031  27.6209402  37.3144150
  87.2545815  27.1055722  38.0698228  87.9682350  26.9877458  36.7402363
 106.5225506  65.3502035  57.6137781 106.6482258  66.0706139  56.9961596
 106.9219780  65.6593561  58.4268665  80.3030968  12.9729569  68.1137848
  79.8020458  12.9213822  68.9277363  80.7600975  13.8123584  68.1666231
  77.4344730  50.9046841  26.4961481  78.2297564  50.9877157  27.0223260
  77.6444530  51.3464546  25.6733608 113.7265491   9.8446715  67.7599812
 113.2277679   9.9570543  68.5691929 114.5935535  10.1962936  67.9622316
  93.7444305  62.5879812  28.0086255  94.2384529  62.6479244  27.1909547
  92.9395866  62.1285677  27.7690578  27.4527144  77.9590559   8.3885926
  26.5554953  78.0880404   8.6961544  27.9911375  78.0532122   9.1743827
  98.2331085  27.7066398  50.4571629  97.9791069  27.8914642  49.5529747
  98.5225391  26.7943549  50.4429293  14.4098198  29.8882723  66.0357571
  15.1439250  29.3287635  66.2892723  14.1899157  30.3706264  66.8327570
  11.5604353  31.0263014  26.9173431  11.0214734  31.3765883  27.6266050
  12.4202645  31.4253235  27.0504141 108.2214546  59.5153284  55.8383942
 108.4557247  58.5928392  55.9402227 107.5919914  59.5244074  55.1173353
  93.6014938 109.6674061  70.1387787  92.7191830 109.2963028  70.1321697
  94.1742420 108.9270210  69.9387360 111.5750027  61.7318773  24.2170668
 110.9292412  61.0273647  24.2706847 112.4046803  61.2841940  24.0514207
 102.4263191  19.6922529  49.2524004 103.2646275  19.2707753  49.0631294
 101.7986870  19.2415345  48.6874580   0.8516030  52.5647593  53.4294128
   0.0363043  52.4379206  52.9442024   0.7670640  53.4362698  53.8161325
  70.7552576  37.2362590  56.4886904  69.9471331  36.9395328  56.0702229
  70.4817820  37.5265265  57.3588562 100.5582142  25.1994228  80.8185768
 100.6727791  24.8250461  81.6920471 101.4488602  25.3016758  80.4831219
 101.5382862  42.2451591  48.2290602 100.5937004  42.3744249  48.1437302
 101.6292191  41.5972662  48.9277697   3.7442484  12.7466607  63.9556074
   4.5410213  13.1922412  63.6677837   3.1757581  13.4505236  64.2680597
  91.6226864  31.9186711  86.9114685  92.2609329  31.2064958  86.9524002
  92.1150398  32.6968527  87.1727085  99.1309357  35.9782219  47.6105785
  99.4503593  36.4366102  48.3878088  98.9739799  35.0822258  47.9085493
  64.0766099 109.7084318  20.0583577  63.7831357 109.3855596  20.9103298
  63.8263562 109.0200166  19.4421685  67.6788568  97.8054619  62.2902346
  67.9334497  98.7156677  62.1387529  67.2097301  97.8236389  63.1243944
  45.5438805  48.0330944  76.5379572  46.4440346  48.0400610  76.8633890
  45.3835630  48.9341784  76.2576342  91.3246727  40.4734516  50.2288246
  90.4792976  40.8509779  50.4718113  91.3213539  39.6027827  50.6265116
  47.2968769  92.2566891  68.3583164  47.6742887  91.9087219  69.1662169
  46.8724442  93.0724239  68.6241627 107.2239685  20.4064369  80.9025478
 107.8681469  19.7813153  80.5701256 107.3184395  21.1719489  80.3357124
  29.5072913  28.4662294  67.7816153  30.0957322  28.3511114  68.5277462
  28.7643361  27.8934860  67.9719210  84.0124035  48.1098604  58.0204391
  84.8693466  48.1181479  58.4468269  83.5215950  47.4301910  58.4823799
  94.7834778  32.4569702  68.2538509  94.4763756  32.4915886  67.3479176
  94.1165924  32.9305387  68.7510824 110.5291271  23.7896633  50.0586319
 110.5678940  22.9407072  50.4990911 109.6362495  24.0985870  50.2121449
  71.5948582  49.4132376  49.8566484  71.7146540  48.4645653  49.9002934
  71.9544601  49.7382879  50.6820297  15.5845606  17.1587396  40.7610464
  14.7990775  17.6964879  40.8614302  16.1054277  17.6164126  40.1011515
 112.1816635  26.9711900  38.5368466 111.9106770  26.6436672  39.3944716
 111.7255402  27.8076816  38.4448481 114.0253258  17.1003723  18.1114697
 114.4293499  17.9606318  17.9976845 114.7542667  16.5207875  18.3327377
 101.9493389  33.2152796   0.1033529 101.0909748  33.3232212  -0.3062655
 101.8706322  32.4107552   0.6159712  87.8588772  21.0989571  58.0178404
  88.2147884  20.2261066  57.8514290  87.0605469  20.9400678  58.5214853
  99.8733521   8.4002614  66.1613989  99.4060898   7.7994514  66.7418480
 100.7982349   8.1957954  66.2993288   8.3891940  22.1980309  66.0073042
   7.9870141  22.3597097  66.8607378   8.2522613  21.2636328  65.8511591
 110.6961632  50.3061962  23.5284519 110.8145714  50.6280708  22.6348042
 110.1529980  50.9706640  23.9523554 107.9993439   5.0169843  58.5597277
 108.8806438   5.3872764  58.5105610 107.9148483   4.4931573  57.7630520
 114.4327068  12.9744685  36.4818835 114.2652893  13.2275009  35.5740404
 114.8609638  12.1208382  36.4175177 101.2937832  52.3318863  75.7013369
 100.9375858  52.9472017  75.0604439 101.8867397  52.8596640  76.2362194
  41.3619328  31.2458038  37.2648978  41.7123985  31.2100554  36.3748837
  41.5270042  32.1440768  37.5514126 114.3425083  60.4260588  52.1835661
 114.7272015  61.1831903  51.7419863 113.4251785  60.6658936  52.3148060
  93.5230350  34.0265441  76.1174917  92.7009773  33.8283467  75.6689692
  93.2588291  34.5155001  76.8968153  87.2239590  20.4069853  62.6973009
  88.1553936  20.3882051  62.9170942  86.8699169  21.1291647  63.2162809
  98.4102917  40.3164005  46.0167170  98.4835243  39.3621516  46.0000229
  98.8036823  40.5722475  46.8509912  11.0158014  22.7483821  81.4279652
  10.8862209  23.4386635  80.7776165  11.9654119  22.6367402  81.4727783
  89.3300629  24.5991635  64.9271774  90.1446056  24.7641635  64.4522810
  88.7628937  25.3335905  64.6923018  14.9800658  58.3856916  48.7753630
  14.1094577  58.6785078  48.5060453  15.0998187  58.7611103  49.6476889
  90.8897686  52.4993992  58.6727333  90.0215626  52.8545809  58.8632393
  90.9706688  52.5621319  57.7210236  94.7740936  29.9090338  54.2052841
  93.8994217  29.7690010  53.8425541  95.2151203  29.0661311  54.0992498
 104.6269608  35.8198190  85.1178074 104.6957684  36.7728472  85.1746845
 105.5021477  35.5315447  84.8585987  99.6268368  33.6632347  69.0958118
  99.0414333  32.9173255  69.2267847 100.0157166  33.5140562  68.2339859
   1.1603404  42.7569151  52.9380941   1.5176846  42.6150274  52.0615053
   0.3230540  43.1956005  52.7873039   4.9676412  51.5518475  82.2078419
   5.0872600  52.4495745  81.8979836   5.8116567  51.1291838  82.0490170
   1.6428953  34.3066621  68.5857248   1.2988099  33.8835955  67.7990532
   1.8924330  33.5812044  69.1581535  67.2361422 109.1238689  61.1430168
  67.7154875 108.5948753  60.5053329  67.0480061 108.5203457  61.8617630
 114.5173359  26.6779685  30.8975792 114.8869801  25.8078289  30.7477617
 114.2950439  26.9975734  30.0231242  16.1092997  60.2077532  28.2301807
  15.4113817  59.5726871  28.0694509  16.5244520  60.3286505  27.3762107
 112.7546692   6.8935585  70.7249546 112.4636555   6.0617936  71.0987282
 112.9705524   6.6851944  69.8159933   5.6525558   5.4206926  23.9290524
   6.4937425   5.2084011  23.5246158   5.7549113   5.1615828  24.8448133
  21.5334296  60.9600544   0.3820411  21.5555143  60.0734854   0.7422282
  20.7480264  60.9768963  -0.1648506  40.8228397  85.4730797  80.9539604
  41.1182833  85.6509399  80.0610447  39.8687720  85.5348110  80.9073353
  52.0605516  97.8570271  24.1981125  52.5698853  97.1184349  24.5317173
  52.1628380  97.8086567  23.2476234  84.0922356  10.6678271  44.4606924
  83.9499950  10.4858923  45.3896141  83.2184887  10.8527911  44.1163301
  44.8201466  69.6245480  64.7328711  44.7890234  70.4016018  65.2909470
  44.3005943  69.8606253  63.9643860 102.4260807  14.0352404  23.2632565
 102.3383045  14.2003572  22.3245001 102.9990387  13.2705140  23.3193922
  19.2429841  73.6574268  88.5822487  18.9817190  74.5715523  88.4711552
  19.7486556  73.4554815  87.7950096 103.4317398   3.9721003  75.6084871
 103.0104542   3.5346743  74.8686171 103.6049557   4.8597443  75.2949333
   4.0748411  33.7302518  47.3796654   4.6537885  34.2377019  47.9484749
   4.2074856  32.8221679  47.6517296  53.3598995  99.3017578  71.6842985
  54.1420031  98.9191246  71.2866402  52.6330137  98.8035393  71.3106060
 102.8408432   7.1398169  12.2435522 103.4364510   7.7990061  11.8872404
 102.1631622   7.6463270  12.6912403  61.1516666  58.6414909   2.7266601
  60.7397270  59.0504789   3.4877554  62.0015192  59.0755749   2.6521504
  99.6840191  24.9318194  19.9585032  99.5449734  24.2008495  19.3563557
 100.4633141  25.3743005  19.6221507   4.6142691  67.6780653  80.1631069
   4.6668991  66.7260695  80.2477455   4.5424131  67.9949665  81.0634708
  31.2064743  64.0357256  87.8705025  31.3211298  63.1754875  88.2743263
  31.4182353  64.6573639  88.5668945  67.9420567  99.4001198  13.5528064
  68.6895990  98.8075066  13.4739375  67.1778202  98.8238144  13.5463464
  80.5404949 101.3028908  13.8389015  80.0094318 100.5749989  14.1619766
  79.9024773 101.9476795  13.5332525  26.0327077  70.5986452  29.7800684
  25.9612203  71.2046623  30.5175400  26.1673236  69.7422791  30.1859617
  80.4796884 101.5604721   1.7715896  80.4580686 100.9463917   1.0376418
  79.7289416 101.3143574   2.3119987  93.5941696 105.6503963  51.3640594
  93.4466171 105.2592182  52.2251272  94.4789600 105.3749275  51.1242771
  43.6387920  56.7547846  86.0351849  43.5542059  56.6844368  86.9860458
  44.5790768  56.6803598  85.8722210  49.8595524  93.8836479  92.1012592
  49.8059177  93.0410862  92.5522995  49.8815489  93.6566925  91.1716080
  97.2479248  10.8084023  30.7511139  97.2103310  11.4507425  31.4597869
  96.7506218  11.2090385  30.0380874  98.7040424   4.1336370  32.5495696
  97.7552223   4.1601425  32.4259830  98.9643383   3.2728523  32.2216511
  10.4008532   8.5693294  39.8003054  11.1051154   9.0906614  40.1856089
  10.0668025   9.1098970  39.0844631  48.9437866  24.0586782  11.3187742
  49.8707485  24.0714049  11.0804272  48.9300346  23.7054515  12.2083092
  47.5802660  44.3793201  42.0227623  48.2772541  43.7259007  42.0818329
  46.7928219  43.8723469  41.8249273   1.6499041  25.6530714  28.8864708
   0.9763198  24.9780083  28.8039732   1.5423320  25.9913898  29.7754025
 109.7701931  14.2323911   8.5088414 109.0015507  13.7638843   8.8342941
 110.5027294  13.8618660   9.0011066 108.7496471  87.9360867  67.0903254
 108.4161949  88.7555122  67.4558115 109.3669415  87.6144409  67.7473783
  98.3078957  29.3468332  31.8359566  98.3534050  28.6276388  31.2059402
  97.3744583  29.5479679  31.9028187  38.6364627  21.1339736  32.6274872
  38.8194537  20.2729750  33.0035520  37.7804780  21.3734651  32.9826903
  76.4751101  87.7905846  32.4756598  76.4085817  88.4149647  33.1981206
  76.5248013  88.3365822  31.6910267   3.6927187  27.7994418  16.7786729
   3.3138466  28.2155538  16.0043740   4.3914056  27.2433114  16.4340186
   6.9479060 101.4811134   8.6709851   7.8727061 101.6932583   8.7973601
   6.9336933 100.5309677   8.5558754   1.0391916   7.5467408  33.0975485
   0.2396637   8.0507243  32.9459310   1.7009002   8.2052350  33.3091116
 114.8227024  25.9189034  23.0376816 115.6220436  25.9987831  23.5581684
 115.1172447  26.0075355  22.1312523 108.8369656  45.7296133  44.9253321
 109.5513630  45.1083136  44.7844219 109.2216206  46.5846491  44.7325039
  98.0979633   1.3051452  84.4567204  97.4434471   1.4727418  83.7786770
  98.7570763   1.9870667  84.3271542  89.5697308  12.1386766   9.7365737
  89.2149830  11.6001296  10.4439282  90.3655624  11.6820192   9.4639134
  61.4816284  97.1343422  41.3643503  61.7698812  97.9959869  41.6655302
  60.9587145  97.3161411  40.5834913 114.1000557  33.9964747  46.5020418
 114.7279072  33.4645677  46.9910192 113.4162426  33.3798599  46.2404680
  94.3113995  28.2040048   5.7544285  93.4067822  28.5060692   5.8360368
  94.6107292  28.5666871   4.9207026  31.4770222   6.9288939  15.9485996
  31.3488102   7.5529462  16.6629887  32.4268913   6.8288928  15.8855116
 110.3781509  29.5343423  26.1401868 111.1241627  29.9717546  26.5505052
 109.8835087  30.2418065  25.7266021  11.3161457  30.9703922  48.7036133
  12.0490551  31.5794086  48.6131907  10.6928790  31.2440944  48.0306673
  67.0921040  95.2748585  38.3883452  66.5205240  95.4824829  37.6491404
  67.8569412  95.8370304  38.2649851 115.7264920  53.6415815  69.7032881
 116.5375936  53.8154030  69.2256594 115.8073494  52.7317524  69.9894857
  73.4656715 103.8763523  33.6988688  73.2876301 104.7151947  34.1241527
  74.2507029 104.0353775  33.1747818 103.2157230  25.1492214  47.4675703
 103.2579422  24.6301389  46.6644478 103.8299274  25.8684874  47.3204327
  11.4799237   4.6248472  35.7540584  12.0727646   4.9729612  36.4200830
  10.6155455   4.6535054  36.1642551  82.7613544  56.3198519  50.6473398
  83.0589485  56.1448860  51.5401220  82.5623512  55.4554844  50.2874851
 110.6422043  20.4493976  58.8609934 109.7446251  20.4636955  58.5287523
 110.8902550  19.5251107  58.8411140 103.6272335  38.0643368  49.8873711
 103.7739277  37.5543976  49.0907049 104.4541168  38.5239267  50.0332212
  85.3070354 103.3177567  31.5776467  85.8407402 103.1318378  32.3501897
  85.9423542 103.5162544  30.8897495  98.1710243  33.7911868  34.0106177
  97.9859161  34.7302079  34.0249753  98.6511517  33.6292672  34.8227096
  33.9425635  44.9603081  19.3834138  34.1782856  44.5854950  18.5347795
  34.5201635  45.7175207  19.4795692   1.3678730  34.4514561  12.9333210
   0.8827636  35.0191212  13.5322022   1.5552846  33.6658120  13.4470069
  76.0827160 109.4244671  14.1822505  76.4096975 108.7071800  14.7252250
  75.5216742 109.9321365  14.7685337  19.0721977  21.3351440  16.3825595
  18.3112872  21.9150829  16.3522577  19.6457982  21.7268324  17.0411897
  81.9550778   9.5052446  94.6383612  82.8376828   9.3203176  94.9593640
  81.3956671   9.4139828  95.4097001   4.2950618  99.6015167  11.6407740
   3.9892474  98.7460232  11.3393724   5.0035948  99.4007874  12.2522640
 112.9358006   2.9281396  30.9305096 112.2306824   2.4296860  30.5174923
 112.8615570   2.7211806  31.8621159  16.0094666   1.6846369  31.1999655
  16.2280405   2.5813299  31.4537358  16.0853338   1.1810930  32.0104718
   7.3519874  52.3886871  19.5927763   7.4589962  52.2790384  20.5376339
   6.4076698  52.4832487  19.4680560  16.3243937   6.0996604  49.7872448
  16.3649786   5.9749424  50.7354164  16.2028885   5.2180839  49.4346952
 108.2585526  10.9301829   8.3389652 108.3433247  10.1589584   7.7783781
 109.0884495  10.9734023   8.8139749 112.5423431   6.6357821  15.8713448
 113.1681252   5.9122521  15.9049201 112.0019627   6.4496410  15.1035058
  37.9384255  82.6170635  90.1388836  38.7907743  82.6042938  90.5742836
  38.0863142  83.1192875  89.3375492  23.5902882  33.1460953  23.2385373
  23.0347872  33.5020232  23.9320540  23.4078860  32.2064519  23.2441044
  10.7413733  30.4412842   4.9678198   9.9747807  30.3528142   4.4014797
  10.4242516  30.9336066   5.7249749  93.3922005  18.3844650  15.8183384
  93.5115242  19.2101991  16.2875497  93.6458588  17.7113318  16.4498281
  33.4635353  31.1108112  25.5890512  33.5984707  31.0087872  24.6469188
  34.0917349  31.7844629  25.8494163  11.3705969  26.3402009  27.0796967
  11.5445578  25.8296847  26.2889099  11.7076337  27.2135472  26.8799400
 100.0930691  21.2639451  32.4988484 100.2968693  20.4632020  32.9820800
 100.9401131  21.5704775  32.1751308  21.5495276  26.9915199  37.6821351
  21.3374066  27.2691417  36.7909765  22.3318362  26.4487386  37.5840926
  91.3679886   3.9867204  40.0730562  91.0869980   3.0894944  39.8934484
  90.5534077   4.4689178  40.2151060 105.6470680  65.2676058  81.1407566
 105.5312252  66.0298157  80.5734348 106.4028358  64.8087311  80.7740402
  15.0779521   1.0113832  37.4273419  15.2601230   0.5430501  36.6126561
  15.6246042   0.5758664  38.0813503   1.8577264  30.2422786  16.9002211
   1.0034191  29.9984336  16.5439463   2.4890366  29.8721862  16.2832022
  84.9338722  20.2286172  37.0799708  84.4848061  19.7166848  37.7526498
  85.8332157  20.3060174  37.3984361  93.7387276   7.2157717  18.2141066
  93.4481907   6.5050590  17.6425231  94.1284561   7.8569853  17.6198101
  73.1591606 105.0974369  29.5442200  72.7312422 104.8415279  28.7271357
  73.1486607 104.3035889  30.0789356  10.4361081  28.8675332  66.4636660
   9.6240467  28.6874032  65.9900188  11.0643053  29.1032815  65.7810068
 106.0174656  80.9226418  76.1742687 106.0992241  80.0425148  76.5415716
 105.8396721  81.4821243  76.9303131  98.0224323  27.6559091  12.8034747
  97.5423717  28.4055471  13.1553483  98.9240170  27.9664898  12.7203095
   4.5968273   6.7364830  14.4651687   5.0812858   7.5269973  14.7031152
   5.1761448   6.2736392  13.8598597  95.9417534  43.3356428  10.4152310
  95.8675098  44.1920757   9.9942207  96.8092251  43.0191946  10.1630723
 116.3827419  70.5136585  36.9933271 115.8513737  69.9502230  37.5558376
 116.3014030  71.3848209  37.3815179 107.3084259  13.7460291  45.0418901
 106.6298580  14.3927765  44.8482656 107.9498100  13.8542390  44.3396425
  74.1627665  99.9003387  94.8036077  74.4002839 100.7964158  95.0420654
  74.3003316  99.8598743  93.8572092 109.7601032  32.2056937  25.1363826
 110.1796722  32.8242564  25.7343578 109.4838524  32.7413344  24.3927407
  28.4859014  49.7438097  31.6388416  28.1860495  48.9596844  32.0987034
  27.9817986  49.7517729  30.8251786  47.1483278  19.8405421  20.1859999
  47.3733091  19.0655756  20.7008219  46.3264561  19.6100223  19.7528446
  16.6832232  35.8482575  54.5841265  16.2145841  36.4609146  55.1509237
  15.9928977  35.3840446  54.1106415   4.1573930  35.3874087  12.2441137
   4.5395309  36.2460589  12.4255526   3.2586354  35.4521608  12.5670290
 103.0248451  56.3700628  18.3055127 102.9970551  55.4364157  18.0963087
 103.7480736  56.4548779  18.9267850   6.4903265  32.0154357  10.9260345
   6.2802339  32.7642894  11.4839876   6.1429530  31.2593150  11.3991594
 100.5495548  70.9327269  25.6774259 101.3541031  70.6945705  25.2167583
  99.8548794  70.4879999  25.1917624  95.3840733  95.4196930  38.7522793
  95.6299210  96.2677765  38.3827519  95.6585789  95.4687691  39.6679592
   6.3769704   8.1331295  46.4581537   7.1976489   8.6115950  46.5755844
   6.4603686   7.3704517  47.0305204 105.7414722  32.0237160  11.8198764
 105.5539513  32.3521900  10.9405744 105.5408764  32.7595568  12.3982668
   0.9132025  23.9865685  24.2142510   0.5794198  24.2085099  25.0834823
   1.7977381  24.3519807  24.1968584  15.5250704  46.6038465  46.0291576
  14.8211622  45.9554958  46.0095024  16.3186967  46.0911703  46.1826181
  28.0364084 106.1332512  88.6992550  27.8572702 105.1997280  88.5867310
  28.9454293 106.1685181  88.9970303 104.0033627  31.0589218   1.0550364
 104.3179417  30.9868646   1.9561893 103.0631351  30.8898830   1.1153341
  11.8053913  48.4296036  22.0839834  12.0643389  47.5203133  22.2335434
  11.7626166  48.5128689  21.1313725  72.4244261   6.7835307  46.8077469
  72.4557734   7.5102597  46.1855602  73.0950642   6.9951105  47.4571419
  46.6846323  28.9762878  82.4835396  45.7791138  29.2591763  82.3561096
  47.1547461  29.3306994  81.7288113  11.0195458  23.8984013  19.0663230
  10.0684106  23.8122463  19.1307664  11.3616264  23.1613851  19.5723069
  20.5088210  31.9483185   3.5713035  20.2629709  31.6799784   2.6859882
  20.0493240  31.3342214   4.1439974 103.9877319  21.0354710  50.7910824
 103.2804966  20.6393027  50.2820683 104.3303585  21.7281795  50.2262926
  79.9071789  27.6956606  25.4729867  79.5008373  27.2827458  24.7110033
  79.3748999  27.4067903  26.2142467 109.7569847  18.4601331  23.5268998
 110.4889202  19.0675294  23.4193015 110.0720882  17.8151464  24.1600943
  23.2184172  30.3823805  46.7594385  23.4130168  31.0590100  46.1109495
  23.5009813  30.7604051  47.5921965  95.4957008  98.1491375  27.1047115
  95.4249763  99.0895939  26.9411325  94.6713257  97.9177856  27.5326228
 112.3547173   0.5098737  51.0586691 111.9678974   1.3524127  51.2968493
 112.1710777   0.4177383  50.1237822  12.6876104  33.2160091   0.4771967
  12.2871757  33.0046153   1.3205217  12.2080600  32.6820827  -0.1561971
 110.8076572 108.8899136  20.5250621 111.3250160 108.1003666  20.6837964
 109.9073792 108.6295033  20.7197762  98.2753754  22.9814434  27.9847741
  98.5861588  22.4376893  28.7086368  97.7256584  22.3957968  27.4641395
 105.4589176  55.3160429  31.9449997 105.7525921  55.1572466  32.8420877
 104.7640705  54.6731615  31.8031096 116.0797119  13.0899179  26.7345285
 115.7344055  13.9026129  27.1040130 116.8509007  13.3617294  26.2369108
  20.4619479  55.8454990   3.8310871  21.0123777  55.4544449   3.1526062
  19.6248376  56.0079432   3.3962417  19.4840646  63.4502649  38.6934209
  18.5599351  63.5353518  38.4589505  19.9187338  63.2166243  37.8732371
  26.1425781  78.0225801   0.5312493  26.0433865  77.8389454   1.4654179
  25.6185532  77.3489857   0.0977771  16.1165714   7.4861330  17.3987877
  16.2897408   7.3448777  18.3295357  15.2610075   7.9147995  17.3767078
 107.0543671  37.8558540  26.7465711 106.6218185  37.7405357  25.9005022
 106.8583012  38.7593198  26.9946408 108.1639862  36.6024041  46.5841770
 108.8068867  37.2276974  46.2496376 107.3948002  37.1349359  46.7866468
 116.4864635   4.8207733  32.9725504 115.6962013   4.9851933  32.4580765
 116.6514206   5.6460547  33.4285474  94.1250134  19.0408754  46.4554977
  93.8447189  19.5977998  47.1817875  93.8064671  19.4899869  45.6725168
  34.4385695  55.9163809  15.4159451  34.8469925  56.7176819  15.0883102
  34.6495485  55.9044600  16.3495278  10.9761751  71.7869806  17.6503587
  11.6961861  71.3285828  18.0835891  10.6358075  71.1545038  17.0176244
  31.2064648  68.6047840  91.2831497  30.3987384  68.7948084  90.8059692
  31.4865232  69.4529390  91.6272926  98.0316257  98.2439327  15.3250074
  97.5120926  97.5564766  15.7418108  98.3338737  97.8522015  14.5056021
 109.9180794  15.3345883  15.5561185 109.1207886  15.5107296  15.0565886
 110.1286793  14.4222701  15.3572369  22.7841139   7.3883969  33.4219980
  23.4365463   8.0334365  33.1490731  21.9841313   7.6489925  32.9655433
  96.5557384   8.8709646  51.6521263  96.4276981   9.7183239  52.0785332
  96.8378353   8.2882410  52.3571682  43.1800699  39.4591403  11.3819790
  43.6452484  38.6242056  11.3297796  42.2714853  39.2163730  11.5602195
  13.6288071  16.4895785  29.1968417  12.7607262  16.8825698  29.1061568
  13.7272048  16.3405573  30.1372361  98.9451218  45.4857349   6.8364036
  98.0220127  45.2502775   6.9295388  99.1899872  45.1572371   5.9713268
  41.5989304  37.7372003  39.2049646  41.6764832  37.5857425  38.2630110
  41.0244417  37.0365763  39.5137048  46.8046665  98.3446789  25.7282805
  47.5161314  97.7546692  25.4794121  47.2166872  98.9857769  26.3074708
 112.9346371  45.2942848  42.5738573 113.6110497  45.4987574  41.9281864
 113.3751583  45.3841829  43.4188986  39.7628760  93.4588146  90.8255291
  39.6815896  92.5860119  90.4410267  39.8700571  93.2984638  91.7630959
  74.1667080  95.8050632  12.2464228  74.3741941  95.2314758  12.9841065
  74.9684381  96.3072681  12.1006215  40.9131002  61.8116665  91.4930916
  40.7417727  62.4965048  90.8466530  41.7061520  62.1011305  91.9442177
 107.5385094  48.9184523  26.6551352 107.0909977  48.0983353  26.4468765
 108.1838799  49.0233612  25.9560490 106.2831402  40.2268028  44.7767496
 105.6056213  39.7489643  44.2983437 107.0892048  39.7424173  44.5982361
   5.2115059  29.4386482  52.2349548   4.8043630  28.9035702  51.5536642
   5.4001141  30.2722883  51.8040180 114.5836449  41.8664885  63.9688826
 113.7599659  42.3533726  63.9417028 115.2093697  42.4760246  64.3602467
   8.9258754  34.7575760  29.0589237   8.9925969  35.5753040  29.5519757
   9.6565402  34.7899222  28.4414172  22.3040771  18.7393296  62.1095133
  21.7948341  18.2858038  62.7812433  21.8254614  18.5779619  61.2964249
  37.1697783  86.5844822  93.5736084  37.5954247  85.8209896  93.9636612
  37.3852015  86.5292263  92.6426029  23.8853002  29.3104601  12.9653823
  24.4950032  28.5823727  13.0853093  24.2137504  29.7734380  12.1946669
 112.2839355  33.1008220  37.0362902 112.8215122  32.6555371  36.3813376
 112.8970146  33.6679769  37.5039458 116.1295509  65.5457640  53.8690233
 115.8686829  64.6948433  53.5167265 115.5115509  66.1652756  53.4810543
  28.8621163  84.0948200  89.4948864  29.2882824  84.9468422  89.4018078
  28.4378099  84.1316223  90.3521156  19.6959233  86.1787224  91.8877697
  19.2038167  85.4066277  91.6085911  19.2866719  86.9060135  91.4189625
  15.5055320  41.4932537  19.5584166  15.6878924  40.6491327  19.1455722
  16.1828840  41.5833473  20.2287197  16.7566752  74.3371296  41.5787983
  17.0622981  73.4326363  41.5101385  17.5580478  74.8604822  41.5906096
  87.8259945  54.6732712  21.8171597  87.8211021  54.4432211  22.7462935
  87.7320862  53.8361168  21.3626432  14.3230009  19.4813764  30.9599519
  13.5411835  19.5043397  31.5117383  15.0430453  19.3258286  31.5711594
   2.3096056  13.9804018   9.1020811   2.5292629  14.8268318   8.7128031
   2.6743284  13.3359468   8.4955442  57.5890398  62.4377728  91.6557503
  58.3216572  62.8352880  92.1263695  57.7168417  61.4955187  91.7655277
   3.5002828  40.7686186  17.9881930   4.2837155  40.3511572  18.3462262
   3.6790100  40.8497095  17.0513296  19.6054327  13.1296051  14.5650864
  19.5569587  12.3489761  14.0132713  19.1456354  13.8046610  14.0659702
  45.5277872  32.7818751  23.2001448  46.4094591  32.5303388  22.9251695
  45.6099701  32.9564595  24.1376948 113.2161522   1.6605107  26.5705943
 112.5039005   1.5945597  25.9345269 112.8589821   2.2014795  27.2748804
  18.9943922  47.9750967  48.7706184  19.3462217  48.2402325  49.6204138
  18.6620927  47.0890903  48.9148474  90.0899887  36.4737105  35.6967402
  89.9975491  36.8518496  36.5712094  90.1484680  37.2304559  35.1135159
  19.7226477  41.2472010  37.9490209  20.3676677  41.3118696  38.6532927
  19.1798556  42.0292807  38.0488062  96.3482666 104.5658684  26.6791630
  95.8448124 104.5650482  25.8650565  97.0196152 103.8966465  26.5462732
 104.9611664   7.8125268  40.5563927 105.1472855   8.5553962  39.9821639
 104.0144253   7.6887625  40.4886723   8.0411530  30.2671766   4.4111130
   8.5404837  29.4676018   4.5771924   7.5711358  30.0910878   3.5960618
  25.8548927  44.4091463   6.3452858  25.7438421  43.7184048   5.6920034
  25.8853531  43.9449596   7.1818465  99.1537762  59.8842478  54.6332264
  99.9425220  60.3575230  54.3684435  99.2934227  59.6850300  55.5589914
  81.3274288  23.4671116  38.8615441  80.9941673  23.4598279  39.7588253
  82.2731781  23.3539414  38.9563847   7.8087962  38.7134671   5.8737671
   8.3764857  38.5769439   5.1152670   6.9223726  38.5872507   5.5353081
 112.6210690  31.8250060  12.2495043 112.8088093  32.5824976  11.6952562
 112.0004654  32.1525049  12.9005229  75.6814289  78.0206871  76.3732004
  74.7286844  78.1088591  76.3461113  75.9918070  78.5482121  75.6372595
  52.2454309  87.7555180  10.9899843  52.2621202  88.7073612  11.0896742
  52.4381828  87.4196053  11.8653357  13.9340615  30.5459571  93.4967136
  14.5056129  30.1485872  94.1537189  14.5186603  31.0882545  92.9671955
  86.0449696  83.9160824  31.5322351  85.6410408  83.1453609  31.9310617
  86.9851875  83.7408066  31.5709424  87.2521782  90.1994991  11.8627632
  87.0140362  89.4358444  12.3884583  87.9216671  89.8759747  11.2599766
  60.1079178 106.0830784  30.2133846  59.3719292 106.5194607  30.6424689
  59.7217321 105.3086567  29.8042727  62.9820633 108.2217598   3.9472917
  63.7960339 107.9288197   3.5375720  62.2943211 107.9312325   3.3482665
  66.1842108  21.6252732  13.8417017  66.4319134  22.0148849  13.0032051
  66.8253565  20.9282398  13.9806461  65.8857870  72.9071093  38.3851552
  66.6645956  73.0941296  37.8610253  65.7331705  73.7105989  38.8824987
  90.6037617  78.1953430   0.5451845  91.0633564  79.0318489   0.6177238
  91.2906647  77.5618792   0.3375404  44.9244785 106.0604095  13.7569118
  44.6218586 105.2644157  14.1939938  45.2828836 105.7546425  12.9236758
  75.6600332  56.6336584   2.8404665  76.1542320  55.8141041   2.8585193
  74.8115492  56.4101839   3.2230443  94.7765446  81.6862583  25.9821963
  94.5824146  81.2754631  26.8246865  94.3170166  82.5253582  26.0133290
  47.6386261  33.9938474  94.4904613  47.7360582  33.0424690  94.4502449
  48.1807089  34.3206954  93.7724495  79.0107489  12.0350635  17.0775855
  79.5049667  12.5086451  16.4084804  78.4196758  12.6907146  17.4476993
 101.2919521  87.8962708  20.6237984 101.9019032  87.8043175  19.8918545
 101.8220520  88.2597446  21.3331008 113.9600658  83.8608074  12.0544446
 114.5752239  83.6824131  11.3431096 113.1277275  83.5017681  11.7469823
  89.0338326  83.2216358  11.9230473  88.6943245  84.0216923  12.3241425
  89.9851990  83.3209705  11.9586194  43.4857225   2.1168749  94.5539951
  42.9865885   1.7434707  93.8275909  43.2533503   1.5748118  95.3079224
  96.2127304  69.3536854   1.8658479  96.4700413  69.7333431   2.7060157
  97.0396328  69.1097450   1.4499587  73.2391357   3.0649537  11.9543314
  72.2889423   3.0449894  11.8404925  73.3664465   3.0804113  12.9029024
  56.9670868 102.4441624   7.0814055  57.7976465 102.8764248   6.8825263
  57.1045351 101.5320492   6.8257070  85.0589561  91.7476177  25.8493805
  84.8649216  91.3096714  26.6781044  85.2536774  92.6517391  26.0961199
  55.0602341  87.6592064  16.2699163  55.1261473  87.1492386  15.4625630
  54.7089052  88.5048103  15.9910703  32.2699523  67.0376682  93.3480358
  32.2202945  67.4087620  94.2289734  31.7849851  67.6550245  92.8003883
  47.6763678  84.0001202   5.9840816  46.7814112  83.8853741   6.3036424
  47.6407146  84.7952271   5.4523265  75.0082493  75.1347208  24.1593432
  74.9243879  75.7325125  24.9022079  74.9310493  74.2618179  24.5444489
  48.1347799  51.1630058  65.7464457  48.8748360  50.8309269  66.2546444
  48.4390640  51.1429644  64.8391199  65.6079578  93.5877895   8.7810820
  64.9642229  94.2253399   9.0898889  66.3058949  94.1187382   8.3974046
  34.1003752  33.3533883  91.0045242  33.9642978  34.1813993  90.5439663
  33.2967973  32.8574014  90.8480358  16.4791214 107.4445057  21.7522025
  16.6217411 107.9073238  20.9265518  16.6739595 106.5293121  21.5505219
   1.1738873  20.2126741  25.2509713   1.0039359  19.2732847  25.3209376
   0.5380602  20.5237675  24.6066284  83.9380169  99.4933796   5.4576463
  84.7862339  99.0525723   5.5071509  83.3502960  98.9403725   5.9724420
  42.6034784   8.9697355   6.4567840  42.1805716   8.3469421   7.0479798
  42.8458786   8.4474164   5.6921560  67.2451544  94.9133015  19.4383359
  67.0645714  93.9752769  19.4995070  67.4036551  95.0664520  18.5068560
  78.5903358  16.0754180  29.0342116  79.0501976  15.5106413  29.6553278
  77.8985786  15.5210304  28.6731648 105.6005192  26.3960671  25.1731968
 106.4240265  26.4667606  24.6904182 105.8354568  25.9417844  25.9823084
  16.9500303  54.2775488  93.5458088  16.8024445  53.5424948  92.9507065
  16.6680038  55.0467825  93.0508709  58.4037304 104.8242950  13.0573738
  58.7866497 105.5703545  13.5188890  58.8577986 104.0619087  13.4163034
  56.7874718  23.5144567  87.1685219  57.6281214  23.2386875  87.5338936
  56.9906473  23.7748289  86.2701035  31.8432093  72.0548058  79.0786123
  31.3508320  72.6212025  79.6727467  32.7393794  72.0770788  79.4141912
  19.3606400  36.4563346  91.1916828  18.6820519  36.9676447  90.7508659
  20.1273346  37.0293880  91.1962128 106.1532402   3.9058614  26.3167596
 105.8873367   3.2759574  25.6468749 105.3641415   4.4194666  26.4892769
  59.9034309  75.7242203  94.6450710  60.1254988  76.6031933  94.3379402
  60.5994272  75.1662588  94.2979336  23.5242128  82.6632690  77.0550680
  23.1554580  83.1047249  76.2899733  23.6041856  83.3528709  77.7140665
  76.4330339 103.5493660  14.9081540  76.9798231 104.2529297  14.5585060
  76.8149137 103.3517170  15.7633352 107.3137093  15.1695085  27.3311830
 106.4176369  15.4042625  27.0900035 107.8632641  15.7527554  26.8076825
 102.5191018   0.3764428  10.4143202 102.8016660  -0.5218994  10.2429676
 102.0635554   0.3280438  11.2547767  39.8992065 109.4448006  38.0365634
  40.0040963 108.5384368  37.7471972  39.9822476 109.9629398  37.2360229
 107.7193069   6.2236255  65.4081678 106.8270302   6.5102190  65.6029224
 107.6202488   5.3209603  65.1054859  47.3037481  56.1829090  94.0294647
  46.9446373  55.8942938  93.1904316  47.3732567  57.1339083  93.9458275
  10.4075599  42.5838470  75.1339579  11.1402225  41.9821215  75.2657223
  10.1300228  42.4291992  74.2310238  53.8102293  10.8354640  74.1604042
  54.5482874  11.4362597  74.2631149  53.8605356  10.5479133  73.2488012
  76.9376659  83.4526539  90.6183529  76.5422344  84.2312908  91.0102558
  77.7719164  83.3512592  91.0765839  37.6642919 105.8433437   8.7600762
  38.6165261 105.8133411   8.8527143  37.3324609 105.6775856   9.6424842
 109.6875763   6.2287188  24.2226315 109.2837620   5.9969366  25.0589609
 110.6246662   6.2719589  24.4129467   2.3353176  34.6193385  24.3525672
   1.6090783  34.8779535  23.7851810   2.7843252  35.4398704  24.5559144
  49.8226023 103.5122776  12.3225343  49.5659018 102.6496887  12.6485407
  50.3496122 103.3274174  11.5451539  40.6190681  54.3683386  89.1178799
  40.6938553  55.3216314  89.1611862  41.3247776  54.0469885  89.6790695
 100.7169914  92.2565746   9.0355116 100.7514286  92.9982376   8.4313685
 101.2564373  91.5838814   8.6199218  37.9433894  46.4567327  74.4166660
  38.8197494  46.6440582  74.0803146  37.3567295  46.9537401  73.8465357
  74.7711420 104.8644066   1.0005513  74.5402670 104.4716549   1.8423778
  73.9610863 105.2744007   0.6973360   8.1545854  24.7711682   1.0469243
   7.6849580  24.4174314   0.2915753   8.8931590  25.2478027   0.6680305
  47.9872274  98.0596924  16.8534100  48.3700228  98.9261150  16.7155457
  47.9229975  97.6837635  15.9754658  37.4680734  73.1581402  12.0130384
  37.0033836  73.9423370  11.7209232  37.0289350  72.4373722  11.5615022
  88.2700539  91.1980438  28.6229324  88.1197071  90.4341412  28.0660796
  88.7862015  90.8623314  29.3558168 108.4945011   1.4984250  41.4128637
 107.8307724   2.1399176  41.6661978 109.0972137   1.4711782  42.1559811
  86.6749191  10.6512237   5.2786809  87.3230076  11.1235368   5.8012974
  87.1938515  10.0773716   4.7150928  34.6744204  53.4169865  90.5071926
  35.1105595  53.7828541  89.7376728  35.3686237  53.3392477  91.1616135
   9.4227391  35.0159979  13.0331993   9.7708684  34.2493749  12.5778663
  10.1638544  35.3523445  13.5370350  23.1988072  37.5486422  82.6638126
  22.7442741  37.3489714  81.8454170  23.8795972  38.1732059  82.4134541
  76.2661505  81.2502575  12.2458243  77.0575333  81.0447407  11.7481244
  75.6424713  80.5683327  11.9963527 109.4680786  12.8476143   1.6375285
 110.1745701  13.2956433   1.1723636 108.6735535  13.3076465   1.3667494
  65.3117657 108.6194229   7.8652728  64.8531294 107.8402424   7.5510180
  66.1772442 108.3008575   8.1215793   3.2452196  93.8655758  12.3052752
   3.7218678  93.1047153  12.6371288   3.6559534  94.0563965  11.4619982
  88.7745380  86.9756222  21.5351534  88.4369564  86.1074162  21.3149285
  88.1486130  87.3216915  22.1712995  63.7757921  94.8321724  17.3840201
  62.9906893  95.2417850  17.7474201  64.3709755  95.5626774  17.2156060
  87.7519894   8.0228031   2.5263792  87.3722744   7.1968031   2.2267607
  88.2054234   7.7972800   3.3386451  44.9918604  18.3301866  93.4881878
  45.6975651  18.2969165  94.1340256  45.3791761  17.9679477  92.6913166
  90.6095219  66.5961790  22.7225780  90.9855366  66.4320278  23.5873866
  89.7696781  66.1371231  22.7355051  56.5742111  44.6616077  88.6824131
  57.4683380  44.9594688  88.8498878  56.3601685  44.1109705  89.4355488
  74.3201065  99.8136997   0.9623466  74.7853518  99.4570732   1.7190462
  73.7076664  99.1226196   0.7102244  67.1955299  84.8332214   2.1375056
  67.6698589  85.6641102   2.1669284  66.2760687  85.0852203   2.0519330
  53.0373192  64.1117382  21.7772651  52.9406691  63.6623478  22.6168704
  53.8971710  64.5293951  21.8267345  10.6484115  10.8984613  15.9408438
  11.5202248  10.5155110  16.0384262  10.7862329  11.6713500  15.3932297
  82.0959568  94.2660618   6.8856001  82.8488541  93.7740326   6.5580457
  81.3422394  93.7099457   6.6884273  16.4697325  52.6331139  69.5566893
  16.9324207  53.3564949  69.1337633  15.7679534  52.4079609  68.9459133
  24.3617272  40.0066710  74.2720890  23.4269691  39.8463464  74.1426420
  24.7721434  39.1524673  74.1374350  71.0583496  79.5881891  33.5548663
  71.7593479  79.8065567  34.1689897  70.3729868  79.2029476  34.1008496
 105.2793407   2.2215371  24.4851685 105.0814056   2.5473988  23.6071777
 105.1970768   1.2706946  24.4119334  13.0583143  28.4180403  86.7454720
  13.9218462  28.7552118  86.5070248  12.7104974  28.0533552  85.9316826
  95.5918789   5.3084254  11.9703615  95.2954865   5.3403115  11.0607648
  95.4120255   4.4106814  12.2495413  46.3557148  30.8365512  89.9988842
  46.4742947  31.6725063  89.5479393  46.7124462  30.1856565  89.3944740
 105.8438587   9.5323241  27.0860219 106.2954426  10.3753507  27.1260667
 104.9173927   9.7603142  27.0090938  35.5735707  25.2179003  87.0872211
  35.9206319  24.9708581  86.2300396  36.3397527  25.5111194  87.5803947
  76.0582876  20.7144260   3.4761760  75.5447626  20.8519673   2.6801813
  76.2767744  19.7825992   3.4622252  92.3068905   3.5391393  30.2370501
  92.4525261   2.6641083  30.5966902  93.0588055   4.0497079  30.5373311
  73.5412598  91.3347149  36.6441250  72.8843451  91.6813278  37.2479105
  74.3089485  91.1729813  37.1925068  93.7032986  55.1201487  19.1199374
  93.1517696  54.5458984  19.6512353  93.1237030  55.8366156  18.8611400
   6.6532159  99.3951702  32.3043084   7.1796501  98.6790276  31.9490004
   6.2394565  99.7915649  31.5375614  90.3193665   4.4665280   2.3210423
  90.5485153   4.4587594   1.3917083  89.6380711   3.7994736   2.4053212
  58.6383629  93.0349636  59.1314697  58.0945683  92.6179028  58.4632015
  58.3064413  93.9311600  59.1853189   9.9967802  27.6034164  94.2271042
  10.5436790  27.8744364  93.4897614   9.4814944  28.3810282  94.4416618
   8.9921778  35.2271843  87.5175476   9.0568256  35.1089859  88.4652233
   9.0645003  36.1729026  87.3886490  42.1837234  93.5638714  27.0922828
  43.0016661  93.1423092  27.3558855  41.6620779  92.8574276  26.7114210
  45.3491974  44.5860529  93.7741470  44.8270702  43.7838793  93.7626076
  45.7048607  44.6530962  92.8880119 105.9871387  31.2982726   8.7120569
 105.7890892  31.4219022   7.7837646 105.9743404  30.3491330   8.8353527
   2.8366867  24.5737386  14.6499550   3.4615082  24.7168374  13.9390743
   3.3818781  24.3830824  15.4132700  23.4650898  31.9425368  44.3025255
  22.8843355  31.5240312  43.6670685  24.2577648  31.4060712  44.2921782
  89.3362522  20.5006671  16.8204439  89.9212456  21.2222624  16.5895450
  89.8919201  19.8856878  17.2992587 113.9707279  94.7704124  40.6946182
 114.0528679  95.3348160  39.9258924 113.0389214  94.5552254  40.7353020
  32.8045392  49.4379425  94.8213291  32.0326257  48.9690971  94.5042038
  33.4372306  48.7486410  95.0233078  64.0400076  32.6404142  76.8828154
  64.7443867  32.3008132  77.4348640  63.4708023  31.8862057  76.7298365
  92.8957653 103.3438778   6.7266560  92.3455715 103.9054871   7.2726512
  93.7579632 103.3774662   7.1410489  34.7366148  64.9681878  93.4958894
  35.5842787  64.5237863  93.4815540  34.1512972  64.3533475  93.9381584
  76.4323997  86.8051434  10.5363405  77.3489761  86.5321732  10.5765676
  76.1298132  86.5028000   9.6800333  19.8990953  23.3529305  12.3893011
  20.5576849  23.8774896  12.8446352  20.2447391  22.4606514  12.4137986
  82.1957016  89.8034668  25.0475764  82.7788258  89.0862942  25.2962923
  82.7620125  90.4249382  24.5900917   0.5512200  20.0257325   6.4609408
   0.1518307  19.6522629   7.2465867  -0.0652923  19.8203838   5.7581043
  44.1464138  35.2489448  73.6026192  43.2250547  35.4783893  73.4814596
  44.1262007  34.4301176  74.0979433 114.4622803  26.7095637  37.3078227
 113.6769104  26.8972349  37.8218269 114.2443085  27.0007706  36.4224291
  90.9441376 107.8196716  25.6846046  90.0400829 107.8880978  25.9915638
  90.8750820 107.8387642  24.7300911  24.3409109  15.2490044  14.7917819
  23.8614535  14.5886493  14.2914987  25.1302958  15.4137492  14.2760646
  58.1093550  24.3375278  40.2322769  58.9116144  24.8588681  40.2608061
  57.7387905  24.4199204  41.1109829  81.5981770  80.3823853  34.4408178
  81.4042854  79.5349789  34.0401411  82.3883152  80.2274036  34.9584055
  84.4340515 108.7368965  19.8950136  83.7279892 109.3344307  20.1413083
  83.9883995 107.9956055  19.4850123  63.1363106  16.9621170  92.5660419
  63.3885479  17.2424364  91.6862488  63.0832148  17.7741003  93.0701160
  51.0030937  83.1645203  12.6780725  51.5449572  83.9486217  12.7663743
  50.1495934  83.4227753  13.0260253  57.6403999  50.3156328  87.4748135
  56.7253971  50.5825949  87.5627422  58.1412172  51.1022663  87.6907349
  49.3259478   9.8984230  48.1423616  48.4008741  10.1436532  48.1606007
  49.6724510  10.3287899  47.3607254  91.8697166  21.1373448  35.0798750
  92.2321606  21.9861937  35.3334951  91.3143253  20.8841062  35.8171940
  21.0209012  13.1301427   4.8104236  21.1416125  13.9831078   4.3931568
  20.0955057  12.9261887   4.6752295 101.6461372 103.4816074  20.2311802
 102.3781109 102.9089832  20.0019455 101.1594200 103.5870552  19.4137323
  98.2261848  93.2847500  29.7392464  97.9738045  93.7178326  28.9237881
  98.5922146  92.4451447  29.4611931 108.0707264  96.4446831   4.9115521
 108.6381149  97.0680141   4.4579455 107.9435349  95.7347202   4.2822614
  91.3898849 103.3427620  11.5685904  90.9505939 103.7265301  12.3275208
  90.6992722 102.8666306  11.1075199  16.3321936  97.2809887  36.7308569
  17.1909022  97.6062202  36.4605212  15.8684480  98.0586338  37.0413995
  53.6449623  91.9798660  34.5433378  53.7187004  92.9234695  34.6861768
  52.7249479  91.7822552  34.7186971 114.6140385   1.1014795  55.1531839
 113.9159966   0.5312140  54.8310423 114.3266296   1.3607664  56.0286283
 109.6323490  93.8178444  31.3131356 109.0021420  94.3822670  30.8653498
 109.9170876  94.3300343  32.0699835  11.8012500  20.9648323  19.5807171
  11.5099788  20.8281636  18.6792111  11.8345559  20.0855637  19.9575603
  98.3141422  10.1734889  35.0356746  98.2439041   9.6866024  34.2145538
  98.3263397   9.4983834  35.7141423 114.3489075  17.0033896   3.0152804
 114.3483734  16.2008488   2.4935906 115.0049877  17.5607061   2.5967205
  58.7060499 108.8173199   1.2604482  58.3379269 109.6035957   1.6635479
  59.6221972 109.0396500   1.0946824 115.1237106  10.7630754  13.7377560
 114.4571114  10.5254042  14.3822575 114.6498585  11.2711263  13.0792880
   8.8695467  21.3901687   0.3860451   8.3222443  20.6689882   0.0752560
   8.8253146  21.3303804   1.3403514  21.8416429  20.3803205  24.5066094
  22.6100540  20.7085228  24.0396404  21.3441110  21.1665416  24.7314477
   8.9836413  12.9935873  33.3105326   9.1380513  13.9150691  33.5185266
   9.5134324  12.8322375  32.5298142 108.9668751  47.1813536  85.2696419
 108.3928871  47.7133656  84.7185230 108.6566925  46.2846851  85.1431084
  28.4041023  23.2359862  20.2191091  29.2463899  23.6711359  20.3511310
  27.7624416  23.8356590  20.5997610  21.2583423  63.2126093  59.4405699
  20.5665755  62.7197933  59.8819542  22.0429850  62.6756907  59.5514107
   6.4985597  28.5620666  13.8182843   5.7792044  29.0282655  13.3923519
   7.0543307  28.2683539  13.0964231  23.2003617  85.1007080  87.9000759
  22.4750543  84.4839668  87.8011131  22.8081727  85.8662891  88.3199596
  56.7650700  66.5307188  90.2918243  57.5106478  66.0589600  89.9206257
  56.7218208  66.2332630  91.2006092  17.1599352  12.1012366  42.9022789
  17.6965117  12.1987188  42.1156311  17.3829412  11.2331235  43.2382584
  94.8925209 108.2526398  13.3852637  95.6266499 108.4368420  13.9712393
  94.1143608 108.4445953  13.9085686  24.9095392  21.6017032  23.8185191
  24.8764205  21.0961246  23.0064082  25.5652499  22.2789741  23.6524463
  16.7601883   4.4922498  32.2910070  17.2641802   5.2574217  32.5680184
  16.9358194   3.8336524  32.9630446  19.6280205   0.6179059  53.9641047
  19.5155120   0.3013668  53.0677891  18.9395618   1.2736654  54.0747166
   5.2159017  16.7945790  30.7411337   5.9558570  17.0055151  30.1717472
   5.5635154  16.8836617  31.6285253  20.4426193  53.8777208  92.8132534
  20.8716249  53.0735254  92.5209332  19.6679688  53.5768843  93.2882786
  91.5311337   3.4915212  34.0918279  91.0751724   2.8057104  33.6039758
  90.9974670   3.6231694  34.8754740  91.8643951   3.9591032   6.1588115
  92.4634457   3.6563554   5.4763788  91.2823296   3.2151932   6.3138354
  83.2782173  66.0621977  12.1091497  83.3802509  66.9993353  12.2752702
  83.3896542  65.6532860  12.9674053  84.2379402 109.7009988   2.7868551
  84.7486948 110.4131282   2.4018446  84.8937528 109.0972792   3.1356594
 114.6596336  33.0175447  31.7284894 115.0083637  33.8985443  31.8643260
 113.8067245  33.1583118  31.3174367  14.5066381  10.9166980  16.8602455
  15.3728211  10.5301046  16.7317808  14.5758963  11.3892484  17.6897824
  96.5297127  94.2914009  27.6765060  96.0775280  94.4919777  26.8570352
  95.8315372  94.0335369  28.2784128  25.4314852  21.6337538   7.4581259
  26.2856984  21.6601324   7.0270133  25.6237268  21.7998958   8.3809870
  43.7477779  62.6145983  92.4305725  43.4501171  63.2209110  93.1088161
  44.6605778  62.4337006  92.6548576  51.1839724 104.5884323  25.3409934
  51.8468428 105.2180862  25.0574875  50.3503323 104.9969482  25.1077628
  55.4809999 106.5352154  48.3378506  56.1490870 106.6716576  47.6660824
  54.8001909 107.1758652  48.1321716  78.8045025 107.9298973  14.9157453
  79.5374012 108.0743694  15.5142605  78.0388594 107.8632259  15.4863393
 114.9582958   5.2802867  15.4418206 115.6094456   4.7959986  14.9341798
 115.1722336   6.2007880  15.2897060  74.0791988 107.6896381   6.9403911
  74.6918106 108.2685947   6.4868087  73.6298847 108.2586765   7.5653219
  76.2288570  69.8979568  16.5008605  75.5639315  69.2129898  16.4307058
  76.7512703  69.8071575  15.7039464 115.5640888  19.6357167  20.6335974
 114.6119022  19.7323215  20.6493688 115.7645035  19.3851829  19.7317672
   3.7927815  96.2615013  51.9672585   3.4374568  96.5914726  52.7925444
   3.0357018  95.8958435  51.5097046  94.2956257  84.7891808  41.5663910
  94.4469166  84.1591072  42.2709084  94.1583347  84.2495346  40.7878256
  27.2856998  58.0596828  84.4576740  27.9513621  57.7074385  83.8668633
  27.1663785  58.9652348  84.1713715  18.4466481  13.6247516  32.9284954
  17.8575528  12.8864920  32.7730227  18.3249938  14.1926110  32.1675968
  91.2483597  15.3013706   3.4321275  91.5782261  15.1578283   2.5451010
  90.6348896  16.0308790   3.3443969  81.4964008  98.4635353   1.9852865
  80.7373810  98.1660748   1.4836544  81.3542652  98.1136799   2.8648487
  69.1529131  91.7331028  10.6359088  69.6690178  90.9955692  10.9613562
  68.3821678  91.3288021  10.2375019  96.1746883  85.8765888  13.3415806
  96.0711575  86.6958618  13.8256323  97.0859241  85.8849716  13.0486500
 113.4118462  30.3726554  29.8421884 112.8160000  30.1357579  30.5528760
 113.9214802  31.1041188  30.1907086   3.1591120  12.3223710  11.1380434
   2.5407484  11.5980029  11.0423994   2.7846429  13.0281425  10.6108880
 113.5310745  50.9259224  24.5020223 113.3104420  50.9966278  25.4307604
 112.6948357  50.7526207  24.0697026  35.3455138  51.6086721  78.2135344
  35.3510284  52.3498726  77.6078749  35.4643059  50.8412218  77.6539421
  67.5870848  82.0136642  55.8698511  67.8649473  81.1723900  56.2321854
  68.1031799  82.6626205  56.3481092  69.8842859  81.4958668  92.3808956
  69.8646688  82.4074364  92.6722622  69.3648005  81.0249138  93.0324841
  79.7902250 101.7860508  35.3201222  79.7704268 101.7394352  36.2759829
  80.1943779 100.9619808  35.0484610  21.3821936   6.2213033   0.7376093
  21.6009712   6.6479355  -0.0908553  21.0747695   6.9326568   1.2994798
  60.0750494  83.8820076  13.3004749  60.2872181  83.2197952  13.9582682
  59.5273161  83.4213448  12.6648557  55.3430557  74.6116638  92.0788097
  55.7837009  73.9777899  91.5128899  55.9691191  74.7797728  92.7830982
  20.6460857   8.3728111  31.9348359  19.9626827   8.9955711  32.1825480
  20.7390141   8.4830475  30.9885573  93.8331032 102.1012974   2.7597475
  93.4846306 102.9786491   2.9180497  94.5813847 102.2418690   2.1796261
  71.9554663  97.2229958  13.4827042  71.0082340  97.0881844  13.5111213
  72.2704315  96.5772343  12.8502381 105.2027893  97.2889900  18.0626094
 104.7172832  98.0742931  18.3152282 104.7727299  96.5782166  18.5380864
   1.7819741  27.2523952   9.8026013   0.9904943  27.4649715   9.3080270
   1.5987866  26.3972831  10.1917732   3.5336760   3.4100899   1.9125181
   4.2742223   3.9892468   2.0925182   3.6647138   2.6645863   2.4984238
  39.5455146  80.5988026  81.4348984  38.6864924  80.2476311  81.6694069
  39.3551731  81.4399815  81.0196686   6.0307372   9.0179008   4.2305142
   5.8972812   8.2628179   4.8034632   6.9807988   9.1305602   4.2001408
  18.8574100   2.0992219  14.6091974  18.4220767   2.0859677  13.7568235
  18.4329224   1.3996601  15.1058412  86.1013794  92.5963211  61.0018539
  86.6071892  93.3354282  61.3396406  85.5806065  92.3011589  61.7487907
  90.7698441  26.0892177  92.9253674  90.9644222  26.8153787  93.5178757
  90.1456642  26.4530659  92.2974873 107.3670101  13.0064249  17.4092531
 106.8727589  12.1898651  17.3373199 108.0698872  12.9184604  16.7654645
 106.8678093  44.2279816  10.8967733 107.4253082  44.0864992  10.1316535
 105.9757996  44.2081118  10.5501318  30.4722404  36.4598083  86.4843941
  29.6348596  36.9226766  86.5122604  30.2656078  35.6147146  86.0852051
  47.8343201  77.3557568  78.1637383  47.6423168  77.2670126  77.2302008
  47.3269749  76.6588879  78.5799170 101.2145233   8.2333666  36.3279366
 101.4313984   8.0152345  35.4215074 100.5115795   7.6260793  36.5588140
  73.7992001  81.4767933  32.7404785  74.4916773  82.0271397  32.3746443
  74.2643642  80.7482719  33.1516957  59.4140816  98.3933926  48.2783127
  58.8063669  98.0287266  47.6349306  58.8746309  98.5557079  49.0521860
  47.2971535  14.0613246  59.8934460  47.9165173  13.7039864  59.2571068
  46.6105223  13.3975613  59.9581528 111.6108990  53.5805559  84.5395470
 111.2619972  53.8439322  85.3910923 110.8356953  53.4444952  83.9947701
  91.3627911  98.8464069  11.1169124  92.2028446  98.6071396  11.5084267
  91.5923691  99.4379139  10.4002249  99.5053673   1.5400140  29.3586230
  99.5445824   0.5944189  29.2152905  99.9423218   1.9163874  28.5946584
  96.4363861  76.9520760  16.3116443  96.3926792  77.8376198  15.9509027
  96.5857220  77.0820522  17.2481465 104.4388199  96.0208130  15.6958807
 104.9756145  96.2609673  16.4511335 104.6932602  96.6423512  15.0138390
  74.3602324  87.6867771  29.4015193  75.0154877  88.2749462  29.7769213
  73.8931942  88.2251263  28.7625456  20.3088188  22.0388007  19.9632537
  20.3101063  22.8292274  19.4233847  21.2272906  21.7716599  19.9989760
   3.4683084 105.7906342   0.8113392   4.0458679 106.3029194   0.2454599
   3.8685143 104.9215221   0.8381487  38.5912943  37.7741480  76.6701984
  37.7244711  38.1800628  76.6794205  38.4316897  36.8629289  76.9160366
 113.8661861  76.6159296   9.5380735 113.2043457  77.1588469   9.9663723
 113.5434246  76.5057564   8.6436915  29.1945076  76.0334492  93.8517570
  29.4779181  75.7987642  94.7354031  28.9619040  75.1986742  93.4452057
  66.6261721  98.3538914   4.1942394  67.2038889  97.8547859   3.6168629
  66.9128323  99.2615795   4.0934983  16.6193426   8.4894943  31.1773992
  15.7934844   8.5581970  30.6983685  17.1801317   9.1587466  30.7851624
  99.8347092   8.5703212  24.2362523  99.1797924   9.2468834  24.4082236
  99.4464684   8.0306900  23.5475612  25.4578424   1.7245482   8.1989098
  25.2944946   1.0059024   8.8097262  26.2358999   2.1612877   8.5454869
  70.1141787  92.2104645  40.7410383  69.1753531  92.0331097  40.7992506
  70.4539394  91.9891834  41.6081190  24.6991277  41.9635582  40.6777763
  24.8830175  42.6981115  41.2633085  25.5624509  41.6511154  40.4070663
  34.9233770  12.6093483  91.0106754  34.5984364  13.3670640  91.4970016
  35.6771302  12.3054469  91.5163803  12.1793373   1.7784680  15.7835674
  11.7164428   2.6056756  15.6505883  11.5371521   1.1056222  15.5575037
  90.8716965  34.8281026  26.8999767  91.3062572  35.2967954  27.6125169
  91.5549564  34.2699814  26.5286422  31.4985681   7.1729898  20.9050846
  32.3181272   7.6348644  21.0818005  31.6724825   6.6731972  20.1074672
  32.3039579  58.5176134  80.4025269  32.6657057  58.7470627  79.5465374
  33.0078506  58.0380106  80.8392715  98.6445332   9.0040821  39.9205828
  98.5061836   9.9501443  39.9659491  99.4269276   8.9021540  39.3786454
  94.8107147 105.4869652   5.3029251  94.2880535 105.4311085   6.1028838
  95.2599621 104.6433449   5.2509445 115.8644867  65.5715990  38.8664198
 115.6235981  64.7719669  38.3986664 115.0842857  65.7969427  39.3731165
   7.7966624  61.9960070   5.3491718   6.9384855  61.7519331   5.0024855
   7.6012212  62.5650644   6.0936254  43.5444212  56.5503740  88.9210033
  44.2308378  57.1488857  89.2156887  42.7841330  56.7752028  89.4573307
  70.7797718 105.8851242   5.5636072  71.6510916 105.4927444   5.5082345
  70.9304476 106.8218708   5.4369575  60.8419847 100.5013943  10.2876759
  60.5591345 101.0273266   9.5395958  60.8818579 101.1219788  11.0153580
  57.0308065  73.4378481  94.5252228  56.9764709  73.1670237  95.4417038
  57.9499388  73.6735296  94.3992138  51.5682459  75.1838398  68.2741737
  52.4116611  74.7965050  68.5083771  51.0424852  74.4452381  67.9671288
  52.2611427  67.5749540  89.4257259  52.6921558  67.1497869  90.1671314
  52.3834515  66.9668579  88.6966801   0.3143273   3.4180167  26.2964034
   0.5502854   3.1517375  27.1850252   0.8130608   2.8295690  25.7296419
 103.0921841  99.3250465  18.3009827 102.1429157  99.2543507  18.4016347
 103.4397793  99.1438103  19.1742301  65.3665876 103.6389256  18.7660956
  64.8821878 103.5531044  19.5872092  66.1513758 104.1337776  19.0015757
  86.4673996  16.7352045   4.3813738  86.2217903  16.2131810   5.1451820
  85.9951591  16.3312840   3.6533135 111.3411236  38.7269521   4.2530283
 110.4462528  38.3951354   4.1800460 111.8921757  37.9892635   3.9915171
  29.8907733   6.0942280  11.0746717  30.2345228   6.4314610  10.2474225
  29.3960929   6.8255544  11.4443803  98.9570904  94.9546242  34.3166637
  98.9626503  94.0235519  34.5387006  99.2038727  94.9818707  33.3922243
  30.1049948   1.4279810  32.9052472  30.1329684   1.6487640  33.8362145
  29.2287898   1.0667785  32.7709746 102.3960686  20.1167893  56.4818430
 102.3459721  19.1643107  56.4011860 102.6717091  20.4163527  55.6155157
   5.1630241   2.6716697  18.0011678   6.0304779   2.3658547  18.2661843
   4.8413804   3.1636634  18.7566268 114.1277409  36.9143486   8.6441040
 114.0497398  36.0238338   8.3018595 113.4830952  37.4189091   8.1480336
  25.0847220  15.3957522  56.4505386  25.2032018  15.4197741  57.4000740
  25.6443620  14.6766281  56.1574602  68.2995510  71.4823961  72.1934414
  68.2757568  70.8954906  71.4376593  68.5750723  72.3254395  71.8334484
  71.7842436 109.3977356  39.0702415  71.9142199 109.1726112  39.9914646
  72.1820211 110.2633381  38.9767909  18.4555459   5.1760221  12.0276141
  18.3201718   4.2330235  12.1206713  17.6252341   5.5042893  11.6825736
  96.3186741   7.1033645  13.8542628  96.1430168   8.0404401  13.7690115
  95.9432125   6.7163801  13.0633712  84.9719429 104.5319366  11.9139373
  84.7618961 104.2572689  12.8065026  84.4593906 103.9466000  11.3563442
  22.5603056 101.5093708  14.8500025  22.4704790 100.9234238  14.0984488
  22.6455855 100.9231663  15.6018853  72.0737171  92.9005241  14.1885173
  71.2394285  93.3662510  14.1311741  71.8731737  92.1108913  14.6910155
 104.3338776 105.9160233  15.0547290 103.9919472 106.7031288  14.6307254
 105.1762390 106.1872196  15.4195809  52.7595043  70.4606771  89.3887997
  52.6817083  69.5286942  89.1848755  52.2500038  70.8984137  88.7068748
  21.6239977  30.8095670  50.8221292  21.2844944  30.2065730  50.1607943
  20.8940959  30.9358239  51.4283752  -0.2143986  14.8120165   6.2983280
   0.0534323  15.5494201   6.8467212   0.2965222  14.9128222   5.4951900
  17.9507720  19.2434990  10.7278621  17.9837215  19.5065725   9.8081130
  18.8580966  19.0343821  10.9498179  24.4711995  16.3277674  21.2773538
  25.4121971  16.1526346  21.2866449  24.4036222  17.2637105  21.0884762
  28.4604549  13.1274652  34.2583799  29.3867087  13.1589222  34.0190125
  28.4481668  13.3259749  35.1946878  50.4638243  36.8952417  75.2679777
  51.0884762  36.2095308  75.0316525  49.7372055  36.7786217  74.6558857
 110.2296162  87.1962452   3.0020428 111.1150074  87.4767017   2.7703953
 110.1179314  86.3591766   2.5514075 106.6478729  37.1416974  30.4120207
 106.3683987  36.8348193  29.5494938 105.8585358  37.0921230  30.9512138
 111.3922501 101.3684082  10.8940995 110.7229805 101.0565662  11.5032578
 111.1121655 101.0375881  10.0406694  15.0623040  13.8806510   0.8425868
  15.9670357  14.1382622   1.0195983  15.0893740  13.4982943  -0.0345074
  15.3449583  43.1386948   5.9553772  14.8759890  43.9542866   6.1317533
  15.5586076  43.1820059   5.0233310  23.3608913  11.4141476   2.4359848
  22.5134897  11.5796709   2.0227756  23.8456678  10.8996999   1.7905647
  49.1068220  79.4344234  92.0054150  49.5602655  80.1437092  91.5498543
  49.7668791  79.0666437  92.5930405  10.7944119  28.4698772   9.5170742
  10.4728639  28.6705279  10.3960383  10.0091350  28.4664369   8.9697540
  48.5406351  44.9307299  21.4809871  48.6498117  45.1152515  20.5481076
  47.9787588  45.6366730  21.8006229   4.5834094  74.6030092   9.1155744
   4.0164906  74.4041061   8.3704090   4.0891916  75.2424002   9.6285671
  97.6261616  98.5711098  18.5368502  97.8620434  99.4658566  18.2918668
  96.6690636  98.5710144  18.5507727 107.2879219  71.8511200  44.3106031
 107.1288586  72.7778482  44.1314268 107.8827572  71.8508196  45.0605345
  43.5906410  99.5609188  19.4227684  42.7265501  99.8877525  19.6732783
  43.4195471  98.9678955  18.6911356 106.4016438  88.7288952  13.8589978
 105.4447937  88.7226677  13.8843119 106.6662312  88.5781193  14.7664630
  64.3055630  90.9766102  17.2787559  63.5862112  91.4145470  17.7337027
  64.4004202  91.4609337  16.4585960 106.7228413  14.2220557   6.2372351
 106.6325474  13.8039529   7.0935458 107.4727726  13.7840736   5.8347338
  49.4714975  38.6878490  86.2700462  49.6977711  38.0925131  86.9846153
  48.6052752  39.0224552  86.5022755  17.2695994 103.5468864  17.3635328
  18.1144524 103.7077808  16.9433308  17.2537148 102.6019478  17.5153863
  81.6631413  82.4637699  27.7073407  81.1361122  82.8487396  28.4075403
  82.4468040  83.0120277  27.6683378  59.0033054  22.5318956  88.7465954
  59.7898531  22.5681543  89.2908955  58.4880257  21.8156624  89.1177082
  85.0029373  86.4686584  21.4921355  85.2099037  87.3735332  21.7258048
  84.4749928  86.5413761  20.6970143  40.2031994  76.6742897  82.4427891
  40.0930548  76.7891836  81.4989185  41.0707617  76.2808752  82.5365543
 110.2789593 108.2180023  41.8542004 110.0228405 108.1374931  42.7729750
 109.4570160 108.1448460  41.3691330  92.8158569 102.4110603  15.8028245
  92.7989960 102.3239422  14.8497450  92.2090530 101.7400169  16.1154389
  59.4679546  92.1645737  28.1193495  59.8707104  91.4085102  28.5464215
  59.8750973  92.9220963  28.5396361  97.9586124  10.6529248  25.0424170
  98.7151909  11.1722338  25.3147030  97.4120712  11.2656784  24.5504332
  16.8279850  13.8483644  22.2663736  16.0207796  13.8901448  21.7536306
  16.5398443  13.6110067  23.1477737  86.1239529  91.2036800  14.3759382
  85.2995300  91.5562439  14.0408957  86.6199780  90.9682178  13.5918808
   7.1473593   8.8930625   9.3850845   7.5362635   9.7562456   9.5261520
   6.2237114   9.0070230   9.6089572  34.5003986  64.8247719  84.2940521
  35.2360773  65.2710915  84.7133541  33.9282680  64.5730972  85.0190067
   5.9435344  28.0763412  25.3367853   5.1928037  27.5030828  25.4917312
   6.7043978  27.5006890  25.4138660  41.0692835  38.2607889  89.9840546
  40.7754087  38.8646221  90.6661510  41.1720467  38.8094711  89.2064857
   1.7775244  95.6494331  13.6221921   1.3515478  95.1687241  14.3319058
   2.2324714  94.9761963  13.1162202  31.4953208  18.0546260  35.1007462
  31.1767411  17.6237357  35.8938885  30.7102799  18.4257257  34.6979737
   3.1356078  18.4000278  18.4211969   3.9032844  17.8971577  18.6932755
   2.9698256  18.1164134  17.5221360 104.7590923  35.1681972  22.8083253
 105.1405525  34.7739053  22.0239496 105.4710960  35.1658320  23.4480691
  94.1124916 102.0713329  30.8303070  94.5771790 101.2352848  30.7940245
  94.0782261 102.3659992  29.9202347 108.8876724  94.8240852  42.8529024
 108.0035877  94.4932079  42.6943302 109.1468620  95.2225971  42.0220995
   8.8786286   8.2956010   4.9538347   8.4710085   7.5831085   5.4462081
   8.9305687   7.9673314   4.0561861  95.5637932   5.5483896  16.4457297
  95.6589413   5.6956404  15.5047202  94.6464348   5.7516050  16.6284108
  40.5888653  68.4542084  77.2237825  41.3531351  68.0183125  77.6007652
  40.9523678  69.1848421  76.7235088 105.5607414  65.0248623   5.3467894
 106.4227009  64.7881460   5.0044149 105.7468224  65.6169224   6.0755348
 103.8476181  45.0106621  17.0112717 102.9874992  45.4305744  17.0010579
 103.6760426  44.1068220  16.7469347  18.2800055  47.3692369  43.1565428
  18.8674676  47.3087406  43.9098454  18.8591182  47.5433779  42.4145651
  22.4687171  39.0137148   7.0840532  23.1085587  39.6862030   6.8503946
  22.8572536  38.5637975   7.8342825   3.6188987   1.1427590  33.2150459
   2.8047502   1.6461241  33.2192874   4.3091705   1.8041606  33.1670427
  38.6309648  82.8974628  78.9724064  38.4113622  82.0996475  78.4912586
  37.8128839  83.3936882  78.9994574  50.0107861  58.0211449  85.3728104
  50.8920908  58.1166267  85.0116825  50.1472187  57.6379871  86.2393093
 106.9686222  29.7881937  12.9901326 106.4454460  30.4472995  12.5339508
 106.3305759  29.1393161  13.2869244  29.9948883  76.4096403  90.5447483
  30.2383685  75.9580183  91.3528252  29.5787144  77.2197771  90.8392048
 107.3760605  20.1147389   6.3476813 107.4682426  20.8328176   6.9738585
 107.6854134  19.3426549   6.8214124  57.0286846  49.4628859  93.8022041
  57.2223091  49.8867989  92.9661274  56.9941759  48.5290337  93.5949421
  35.5232310  19.7289014  22.6166821  34.7786307  19.9151862  22.0447540
  35.5687022  18.7732649  22.6470757  37.8174026   0.0882424  36.4376903
  38.1588943   0.8580292  35.9826803  38.4292896  -0.0541603  37.1598721
  89.3143082 107.7121735   4.2109889  89.7862530 108.4455967   3.8165408
  89.1798115 107.9757214   5.1213098  65.2846384  78.8832521  88.0951977
  64.6454239  79.3118525  88.6643505  64.9068594  78.9495325  87.2181988
   6.4000624 103.5864353   0.9190930   5.4685175 103.4816360   1.1126758
   6.4761019 103.3781242  -0.0120668  63.6705589  88.9856720  29.6678805
  63.0378675  88.3790684  29.2832184  64.2797232  89.1799545  28.9555573
   5.7401550   3.7104982   5.0416803   6.4156711   4.3878248   5.0079370
   4.9346596   4.1628808   4.7911638 108.0670547  42.9846668   5.3473812
 107.7909565  42.0795202   5.4912955 108.3715916  43.0008030   4.4400615
 105.4674149  18.5414755   3.1087768 105.3362942  17.7510583   2.5850597
 106.3092995  18.4041131   3.5430688  93.3447933  37.1167111   3.7305221
  92.7547646  37.7815270   4.0856466  93.3806801  37.3046970   2.7926493
   9.3770158  21.9100904  17.2495663   8.9894158  21.4320660  17.9827034
   8.8455027  22.7024174  17.1724689 106.0910702  24.2799950  42.5215483
 106.5062618  24.7026610  43.2733488 106.8214893  23.9439034  42.0021677
 111.6985512  61.4181042  52.2596884 111.3116169  62.2920036  52.2066545
 110.9656715  60.8449078  52.4845505  15.4945946   5.3602999  25.8467674
  16.2170529   5.9744138  25.7158089  14.7098148   5.8643210  25.6315589
  15.8960950  39.9708152  38.1699157  15.1110005  40.4831886  38.3631349
  15.8463943  39.8020315  37.2290254   2.3344259  37.3294044  13.4562576
   1.5461197  37.0381403  13.9144814   2.0089304  37.7268076  12.6485717
  81.0866165   2.5159803  56.5900087  80.8881092   1.7109638  57.0683146
  81.9902802   2.7206805  56.8302441  73.4107780 108.8925648  33.7930799
  73.4033489 107.9358482  33.8225555  72.7511787 109.1171074  33.1367683
  10.1940894   5.1701605  51.8978930   9.2724955   4.9668077  52.0577192
  10.5897093   4.3280071  51.6731882  23.4111118  28.4675574   4.8454863
  23.3464360  29.0070605   4.0574601  23.3368039  29.0901351   5.5687481
  26.9306803  10.0459909  12.3941350  27.7899861   9.6979094  12.1560955
  26.3074803   9.4577789  11.9676828  19.8249125  41.1186838  33.1293273
  19.3612933  41.5105391  33.8694215  19.1307402  40.7789564  32.5645781
 108.4368134  17.3818958  30.2023864 108.2190990  18.2128870  30.6246257
 107.9985428  17.4230707  29.3524122   7.0361227  75.6487751  80.9680748
   6.8599564  75.4690266  81.8915939   7.2081232  74.7885132  80.5851936
  29.9320960  25.5877924  32.5555873  30.5287313  26.1056256  33.0960560
  30.5022216  25.1420999  31.9290519  11.8225420  53.9114380  16.4283514
  12.4324083  54.3730783  17.0038342  11.9865549  54.2801571  15.5603778
  40.1596880  32.2926569  91.7229080  40.3683043  31.3888383  91.9591713
  39.3577743  32.2257209  91.2045574 104.4903278  27.6932406  37.0709395
 103.8768864  28.4069157  36.8960404 104.4125557  27.1185303  36.3094330
  50.0795650 101.4390373  93.8651752  49.5657253 100.7076645  93.5227108
  50.4578114 101.8506050  93.0881500   2.9326114   9.8908520  25.9442019
   3.3324564  10.5189264  26.5457654   3.3845353  10.0345099  25.1127219
 102.0365143  19.3928421   0.9430660 102.1056652  19.2329311   1.8842772
 101.4192581  18.7305272   0.6323094  20.9836006   6.2911373   3.9884910
  20.4450965   6.0716492   4.7487995  20.8649445   7.2341681   3.8751519
  21.3595629  70.5122375  87.3518467  22.1674252  70.1121140  87.0301533
  21.5387535  71.4524937  87.3450279  24.5034146   2.4356353  26.1621475
  24.6753311   2.9398191  25.3668666  24.6053720   3.0680579  26.8734002
  72.3826408  92.3603725  21.3753629  73.2420397  92.7417374  21.5548968
  72.3861837  92.1950722  20.4325509  59.2119026  98.8622475  11.8959045
  59.7929573  98.2325363  12.3225927  59.7351789  99.2248154  11.1810899
  72.2778940  70.7408810  92.7833939  72.0154238  71.5836382  93.1536674
  72.5579405  70.9478045  91.8917751  26.2149644  30.3381634  16.8762910
  26.0924077  30.4177427  17.8222716  25.3896379  30.6453395  16.5011740
  35.7727814   6.9865638  41.3385153  36.5839028   7.0772779  40.8384275
  35.3429937   6.2192643  40.9606695  14.0984452  25.7964683   2.8309420
  14.6337008  25.3875375   3.5110211  14.4623816  26.6767550   2.7367124
  32.2806001   8.4737092  37.9914856  32.9801154   9.0942293  37.7868772
  31.9331074   8.2145685  37.1380639  51.1946058  40.7568884  43.6067247
  51.7943764  41.1928129  44.2121029  51.4700365  39.8402095  43.6152267
   1.7786105  22.6991773  49.5230770   0.8411147  22.6149201  49.6969557
   1.9725454  23.6203313  49.6965551   7.6386219  33.4904075  43.4215546
   8.4549385  33.2636142  43.8670015   7.1761167  32.6573443  43.3303118
  98.0954266 104.6440411  41.6565943  98.6879349 104.1234303  41.1142635
  98.6724854 105.2260113  42.1511078 112.6515770  19.5081711  53.5235310
 112.2729683  18.8561165  52.9338551 111.9547462  19.6956229  54.1524410
 111.6311550  24.2329240  29.7306514 111.6843605  23.3224201  29.4401622
 112.4232483  24.6421432  29.3822885 110.6198788  34.7388029   3.9075133
 111.2783241  35.2653646   3.4542829 109.8555851  34.7635651   3.3317733
  99.3721581   2.9173389  17.5726449  98.9141750   3.7567613  17.6157069
  99.2186546   2.6062417  16.6805184 109.5289135  29.2314839  51.6817904
 109.7876453  28.4355426  52.1463013 108.6045265  29.3473125  51.9015884
  34.7395086   3.2892624  29.3478942  34.1134453   3.8159952  28.8510728
  34.2091346   2.5988400  29.7457027  54.6623548  85.0003410  94.5310028
  54.1920360  85.3008700  95.3086367  54.3432470  84.1093803  94.3875118
  59.5288467  66.0679340  87.1601295  59.1259480  65.5001736  87.8170490
  58.8689184  66.1424494  86.4707947  50.5142784  78.7534475  82.6562500
  50.9462690  78.2777977  81.9467640  49.6283436  78.9148569  82.3317432
  51.0872030  71.3191509  87.1201706  51.5539169  70.9758425  86.3582325
  50.2556992  71.6371536  86.7684555  10.8991230 101.6391373  29.5764041
   9.9907964 101.3397312  29.5372605  11.3304436 101.1914825  28.8485289
  16.7154706  15.8797336   9.0184969  16.2913549  15.9636557   9.8724967
  17.5355554  15.4215908   9.2023355 115.1075077  29.5048022  12.0221472
 115.3050995  28.6943483  12.4915648 114.1567993  29.4918466  11.9115758
  52.6554918  66.5313339  86.9836521  52.2173834  65.7815218  86.5810680
  53.5132122  66.5634251  86.5599632  37.0711851  37.1880031  14.8431790
  37.2729087  37.4480653  15.7420146  36.2790346  36.6561532  14.9197769
 110.7844830  36.4488959  10.0244570 110.0623894  35.9441710  10.3987086
 110.5907822  36.4857030   9.0877831   1.8247646  26.7262483  13.4071445
   2.2408396  26.0787845  13.9762700   1.6356961  26.2487912  12.5993586
 110.6242752  67.5416613  83.9524078 109.7037888  67.5745296  84.2128849
 110.6422520  67.9455137  83.0847645  40.1178646  19.5094407   8.7573516
  39.4765925  18.8077605   8.6448801  40.1574802  19.9370861   7.9019088
  30.1833606  25.4624867  20.0078130  29.6240759  26.2365866  19.9429810
  30.9128404  25.7397890  20.5620623  35.9933496  11.0807645   6.1957300
  35.8199525  10.3111005   5.6537127  35.2883267  11.0815275   6.8431669
 113.6241341  20.3568101   8.4769773 114.1265011  19.5718598   8.6953968
 113.7918186  20.4968834   7.5450480  38.4350204  71.0028553  64.7795820
  37.9834628  71.4990759  64.0968752  37.7408457  70.7415915  65.3846407
  22.9297495  43.4033871  34.6809435  22.9825664  42.9286289  33.8514590
  23.3495617  42.8232527  35.3161073  18.6132348  14.2829967  11.5056562
  18.0797863  14.2897749  12.3004007  18.2653356  13.5555601  10.9898710
  37.5874472  17.0612037  32.5491595  37.4184012  16.4838541  31.8046308
  36.7501211  17.4962986  32.7098060  32.7613497  44.4951963  35.7310867
  32.2633958  44.1192293  35.0051928  32.8533602  43.7761736  36.3562059
 112.7317810  14.7557402  17.0148742 113.1698513  15.4712975  17.4756455
 111.9223309  15.1444125  16.6832793  41.2465906  11.4610147   6.3296413
  40.5316782  11.0939622   6.8496448  41.8660784  10.7381225   6.2301809
   6.2351489  36.8232918  10.5545783   5.5709648  36.1459994  10.4266429
   6.4316779  36.7922044  11.4908695 116.5814462  30.4027605   9.8118764
 116.0822786  30.2534294  10.6148481 116.2317337  29.7643995   9.1902435
  53.1671190  34.0355444  31.5598059  53.1113625  33.6689043  30.6773686
  54.0811253  34.3052053  31.6498232   8.5385787   8.1498796  21.1493874
   8.1224972   8.9612973  20.8583379   9.4187957   8.4145439  21.4165998
  58.8971138 109.8080158  90.7950306  59.5871735 110.3716469  91.1448383
  59.0243626 108.9697552  91.2392807  69.6333504  90.1059914  92.8101635
  69.0726423  90.4022884  92.0931911  69.8008156  89.1834164  92.6177025
 106.1558056  52.8876162  45.4635048 105.5600071  52.7375078  44.7295237
 106.1475658  53.8365889  45.5884600  17.1403730   6.8587923  35.6999063
  17.1921909   6.8337923  34.7444391  16.2292552   7.0868993  35.8844709
  38.8065886   9.6315134  26.2872028  38.9707828   9.3963379  25.3739858
  38.9884520   8.8297409  26.7774248 102.8503990  33.4224939  25.7440233
 103.4090900  32.6534510  25.6314898 102.1326923  33.1179476  26.2993455
  38.2600760  12.2153783   7.1931762  38.6672568  11.6429687   7.8433931
  37.4606538  11.7557096   6.9365406  49.7302389  13.7200975   6.9494122
  48.9767265  14.2774677   6.7550111  49.4119596  12.8287148   6.8066943
 106.9160652 106.6375065  15.2665651 107.3632908 106.4566422  14.4398189
 107.6235104 106.7828178  15.8947706  69.3149900  96.5136242   6.0648167
  69.1943121  97.0135498   6.8721205  69.9808550  95.8618450   6.2839901
  81.4381027  18.6177540  88.7539577  80.9513855  17.7988064  88.6608315
  81.6569996  18.8696170  87.8568077  35.6758690  19.5389736   1.4223030
  34.9157190  20.1166105   1.4911461  35.3127742  18.6969936   1.1475985
  99.3610191  16.9439185  10.3342402  99.5049667  16.0661352  10.6878042
 100.1922035  17.1741939   9.9191123   3.2302967  51.6345596  16.3665152
   3.9997625  51.0652351  16.3714755   2.4865958  51.0322762  16.3865149
  13.3305609  29.0446043   8.9567465  12.4592650  28.8280272   9.2886645
  13.3374417  30.0005293   8.9078426  42.6270723  34.0560126   9.8992306
  42.5161648  35.0042510   9.9683166  42.0658112  33.6984634  10.5872560
  29.0845013   9.3808931  10.7257450  29.2273378   8.6139214  10.1711428
  29.7010326  10.0339961  10.3947198  73.1959724 106.3927174  34.8509288
  72.5133276 106.3201046  35.5179787  74.0017700 106.5356064  35.3474236
  38.1885719  62.0653915  92.3503494  39.1187668  62.1449375  92.1390629
  38.1713605  61.8767643  93.2886219 101.6352463  42.4180794  28.9857817
 101.5098572  42.7209663  28.0864644 101.6455078  41.4633608  28.9177346
  92.1243668  43.1961012  34.4211936  92.4469280  43.4099483  35.2966690
  91.7401123  44.0124178  34.1015005  48.0120754  13.3624637  17.0230627
  48.4973431  13.8413119  16.3511610  48.0512285  12.4485362  16.7412186
  49.5278931  60.6214571  75.4842663  49.4454288  59.6825981  75.6515265
  50.4606533  60.7535028  75.3146744  48.0985260  37.4962091   1.7860828
  48.3244705  38.1408119   2.4566561  47.1695137  37.6473475   1.6119346
 106.4966679  25.4404569  27.4874663 106.4955139  24.4941735  27.6316118
 106.9039631  25.8021307  28.2745695  48.2964277  27.0665097   7.5446051
  47.9965878  26.8493509   8.4273118  48.4479523  26.2183070   7.1276814
   5.6726354   1.6014323  45.4803562   6.5982771   1.3929355  45.6066418
   5.3448415   0.9027693  44.9140930 114.8607922  97.6090717   9.2928386
 114.7612381  97.7434444  10.2353168 115.2425003  96.7347717   9.2145598
 110.5603218  97.6611710   9.8801404 109.9965763  98.4134960  10.0602007
 110.6497288  97.6515007   8.9271736  18.5698700   9.8451316   9.2804033
  18.8805342   9.3099862  10.0107038  18.8286722   9.3570411   8.4987247
  85.0571537  55.1744938  34.0926409  84.1554451  54.8631239  34.0138149
  85.1000881  55.5655241  34.9652743   0.8656897  32.2220159  25.2755284
   0.0500159  32.6670694  25.5053902   1.4276867  32.9154539  24.9297929
  98.2234955  25.7078600   6.1743170  98.2194901  25.7802939   7.1287644
  97.3028374  25.7860208   5.9243155  75.7372189  98.8898468  15.2451372
  76.0580492  98.6853027  14.3668067  75.0188541  98.2734299  15.3873038
  86.6621971 103.4227467  23.8022709  86.7150593 104.1553497  23.1884861
  85.8636093 103.5874557  24.3036199  19.7715783   8.4217137   7.2490609
  20.4737425   7.9311734   7.6763386  20.1842451   9.2405683   6.9744402
 105.0028515   1.0021966  31.8289804 104.8481750   0.1326215  32.1979594
 105.9316921   1.0024911  31.5977120  74.8705673  20.2148914   0.9032945
  75.1175547  19.9326468   0.0226314  74.2130089  19.5781398   1.1832808
  66.3988638  96.2916470  21.8735385  66.9261789  97.0859814  21.9583964
  66.6953325  95.8936596  21.0550404  21.2245154  15.2328300  12.2507358
  21.7675567  14.6113086  12.7355552  20.4539943  14.7270274  11.9924855
  38.2831836  17.0350480  17.8117776  37.5606823  16.4280176  17.6513386
  38.5799241  17.2904003  16.9382954   4.0457857   6.6920149   9.4318086
   3.6343569   6.1421853   8.7649918   3.3857876   6.7669922  10.1210201
 102.0968819  93.5920906  37.1557450 101.3014889  93.8357925  37.6292324
 101.9538307  92.6807594  36.9003129  61.5390158 103.9021969   1.7873701
  61.8499660 103.6374950   0.9216487  61.6781902 103.1315613   2.3378086
   1.7317875  20.7351303  17.8665411   2.3300549  19.9933493  17.9563570
   1.7248717  21.1434436  18.7322581  70.7078600  74.9601507  84.4327831
  71.4883375  74.4733381  84.1680145  70.1561069  74.3099928  84.8676395
  88.7033081  11.1370230  20.5582738  88.8903427  11.0378492  21.4917684
  89.3555450  11.7655206  20.2487612 116.5253760  36.1630583  14.7224462
 115.5823048  36.0054660  14.6775734 116.7009285  36.3023019  15.6530499
  21.4896607  49.9212885  27.4718833  21.0133195  50.3827953  28.1620598
  20.8712077  49.8767328  26.7426634  54.4174537   0.8370293  34.8505759
  55.1843295   1.3564290  34.6089911  53.6744163   1.3325108  34.5061541
  71.5351248 102.1976089  38.0589485  72.0265627 102.1122360  37.2419834
  72.0474148 102.8129959  38.5834336  62.8164339  84.5212364  84.7458744
  63.3709574  84.2024040  84.0337753  62.0348835  83.9700413  84.7060108
  19.2708802  29.3599701  37.2575665  18.7529349  28.6974931  37.7148271
  19.3354046  29.0355945  36.3593197  37.9192519  11.5976727  47.6564121
  37.6473117  11.1643779  48.4654474  37.1343756  11.5963423  47.1085024
  37.1095419  80.1869869  88.9666557  37.7789021  79.5353889  89.1754913
  37.4419713  81.0013294  89.3442249 102.6130772 106.3480949  18.1408846
 102.1295643 106.0056496  17.3890948 101.9426060 106.7474842  18.6951256
   3.7802574  48.3684492  17.6940823   3.3692452  47.9938030  16.9150198
   4.5496958  48.8298941  17.3605180  95.1723289  94.8493004  48.9720345
  95.7863808  94.1774845  49.2684126  95.6516838  95.3314304  48.2982302
  17.5285149  22.2814941   4.5886964  17.4322116  22.9056120   3.8693666
  17.9727876  21.5300798   4.1959763  49.1663933  88.3370972  75.0804281
  49.4067621  87.4482441  75.3419399  49.6691418  88.9032650  75.6660271
 100.6872749  40.4053164  23.8260984 101.0222721  40.8006573  23.0212927
 101.2236500  40.7862759  24.5213675 112.4882030  19.4466519   4.5808807
 111.8645191  20.1177430   4.8581734 112.7567863  19.7174037   3.7029368
  14.1216707  40.5431557   5.4967493  13.9673400  40.9338903   4.6366671
  14.5467842  41.2362289   6.0018849  29.0899920  11.9522834  25.9544086
  29.7455478  11.9430244  26.6518259  29.5440650  12.3355114  25.2039504
  -0.0675782  94.5897198  73.2878494  -0.6140485  93.8541317  73.0112553
   0.8150047  94.2238140  73.3460999  12.5568783  18.7403393  32.9692030
  11.6214049  18.9408875  32.9992414  12.8795457  18.9718270  33.8401389
  33.2431626  62.8764153  94.5129871  33.3389807  61.9240475  94.5193863
  32.5765276  63.0455971  93.8472462 111.2805080  18.4153116  27.7261567
 112.1208191  18.7911797  27.4638081 111.5053177  17.5626183  28.0984545
  49.6500683   2.1617723  11.7322099  49.6072912   2.8269568  11.0452378
  48.7351274   1.9796075  11.9465208  13.2091689   7.9629546  17.3297036
  12.2901118   7.6974761  17.3626959  13.3110285   8.3668000  16.4678657
   6.8228644  15.5082655   7.6890028   7.5233775  14.9327326   7.3819602
   6.3993937  15.0159967   8.3922631   9.7447795   1.1763935  25.5944920
   8.9190471   0.7684375  25.8552051   9.6740556   2.0793754  25.9040952
  29.9856806  21.9019938  31.3308096  29.7381926  22.4168301  30.5627441
  29.2128491  21.9269156  31.8950272  58.0144548  74.9794054  70.3032494
  58.1979275  75.3357887  69.4340181  58.0860281  74.0312290  70.1933575
   6.3462090  19.9084783   0.7036713   5.6769502  19.9601460   1.3860604
   5.9775066  19.3130410   0.0511799  40.2690125  65.3983402  81.2908077
  40.0147343  64.6994877  81.8934536  39.8031926  65.1961803  80.4794121
 101.7936325  92.0217133   4.3737319 102.0647907  91.5430450   3.5904199
 101.0882473  92.5942707   4.0723464 105.7533646   9.5284331  22.7678370
 106.1387444   8.6866438  22.5247216 106.5011024  10.0703847  23.0196381
  24.7756386  16.3757372  36.2213182  25.0659132  15.4641962  36.1886549
  25.5652523  16.8852198  36.0391927  50.2143288  65.5317545  91.5699005
  49.5839977  66.2440538  91.6773510  50.6775379  65.7421112  90.7590866
  97.3088646  68.1846762  18.4584451  96.6445637  67.5279188  18.2496309
  97.6844311  67.8900766  19.2881429  67.1230841  92.3863697  18.6212349
  66.3742399  91.8886471  18.2929909  67.8058672  92.2533512  17.9637074
 112.9840469   8.4889221   6.7537814 113.5821629   9.0709382   7.2225612
 112.3776627   9.0788412   6.3059849  69.7281265  87.8870487  68.6729431
  69.7929573  88.5388565  67.9749537  68.8069630  87.9048824  68.9324903
   1.1048259  25.5837321  18.2243860   1.7413738  25.6104589  18.9387560
   1.6376761  25.5528474  17.4298108   2.2364020  25.2701592   5.6754345
   2.4085787  24.3587732   5.4388720   1.2867644  25.3132105   5.7875377
  37.6912189   9.5621562  49.6352816  36.8283200   9.8804843  49.9004316
  37.9014707   8.8803750  50.2734041  59.3470621  11.0259855  42.0348358
  58.9588404  10.6009722  42.7996111  60.1055765  10.4836118  41.8186855
  48.8574028  32.1242642  25.9983110  48.7214231  32.6301217  26.7994666
  49.5403719  31.4935493  26.2263107 109.6192265  95.5083656  33.8810229
 110.0925159  95.0790977  34.5937276 108.7491417  95.6806183  34.2409015
  11.3947427  12.1940076   8.3580786  11.8549001  12.2517920   7.5207329
  11.8742836  12.7872109   8.9363372  36.7207623  10.1880920  10.3640759
  36.4881015   9.2596221  10.3706861  37.5683045  10.2194750   9.9203205
  25.3999352  29.4725466   2.8383327  25.6055808  30.1781726   3.4515488
  25.9735250  29.6318746   2.0887715  37.9075861   3.4444416  17.6607454
  38.0240607   4.2680478  18.1343889  37.2922730   2.9445949  18.1971908
  75.3440285  82.3147106  78.4834623  75.6859493  81.4260006  78.5810566
  74.7386360  82.2585678  77.7441502  46.4867973  70.2239752  86.7452526
  46.7241907  70.9974957  87.2566700  46.4770937  70.5301332  85.8383942
  54.6450329 107.6000404  22.5377131  54.2531681 108.2172871  21.9199133
  55.5882215 107.6936054  22.4040270  78.9318037  82.8424168  11.4122796
  79.3834686  83.4386444  10.8150065  78.7686110  82.0575523  10.8892214
   6.2819248  18.5875344  37.6601148   5.8683050  17.7998269  38.0131960
   5.5557007  19.1019380  37.3076677  44.1770363  81.8860245  91.8435192
  44.6919918  81.3180923  92.4166775  43.3107281  81.9140816  92.2496605
 108.7337399  33.4849668  22.6874280 108.3429623  32.8314400  22.1074057
 109.2167854  34.0673065  22.1011019  17.3676097   2.5469920  34.1240549
  17.1550524   1.6243911  33.9831352  18.0323172   2.5371513  34.8127484
  22.6041389   8.0096531  11.1877644  22.9689646   7.4572188  11.8791044
  22.6018810   8.8908720  11.5615010  48.6731052  74.1933060  74.4752502
  48.3088779  73.3142328  74.5791769  48.4043646  74.4615793  73.5965919
  65.6784678 108.4164619  35.5847049  66.2719107 109.0898705  35.9172583
  66.1686945 107.5993156  35.6751776  55.5835724   4.2239970  14.5168781
  55.9915686   4.5388895  13.7102711  54.7753286   4.7315073  14.5904124
  76.7483664  25.9342670  12.2933245  77.7029896  25.8747029  12.3304451
  76.4591026  25.0386190  12.1190405  16.7918336  60.3955221  22.9550481
  17.1560693  61.2257481  22.6479793  16.5412712  59.9334335  22.1550965
 106.5977287  19.6463525  36.5635872 107.3122025  19.4516253  37.1700859
 105.8849144  19.9533296  37.1238518  39.3962526  57.9994440  86.3300610
  39.8171210  57.7532339  85.5063629  38.8961649  57.2239971  86.5846634
  35.9190059  28.9003944  32.7151632  36.8161607  28.5694814  32.6722503
  36.0063887  29.7836304  33.0736208  66.0321426  92.7689838  94.2110157
  66.7454958  92.3397923  94.6833992  66.2476206  93.7009239  94.2470360
  48.3167887  21.2880301  27.7264643  48.8457870  22.0543814  27.9480505
  48.5455561  21.0937738  26.8175292  63.6873913 103.6837673  50.5544853
  63.5383081 104.5128059  50.0998449  64.6387911 103.6268425  50.6429720
  66.0627317  99.7351837  82.9926682  65.2326536  99.2585278  82.9908276
  66.0752106 100.1911831  83.8341808  12.9009068  25.7532024  21.9924188
  13.1011832  24.9885654  21.4525557  11.9469929  25.7473755  22.0714569
  40.1622057   3.8782522  11.4192462  39.7600079   3.0200404  11.5531957
  40.3145218   3.9267042  10.4754865  95.9072685  90.5577183  14.2305791
  96.0158634  90.1748943  13.3600163  96.5615368  91.2553596  14.2687559
  27.8909659  38.9528012   3.3036762  28.8010478  39.0174913   3.5931581
  27.8272986  38.0844903   2.9059154   1.7898801 109.6786818  18.3307517
   1.0565451 109.4183433  17.7733719   2.4566606 109.9908011  17.7190149
 114.6607304  14.0116882  49.1832256 115.3838348  14.5575154  48.8743305
 114.4815636  13.4168851  48.4549809   7.6587570  19.7394311  25.1668811
   7.0997334  19.0771163  24.7606015   8.2448751  20.0216126  24.4646907
  24.5827818  31.7897248  48.6117744  24.6981478  32.4138927  49.3282461
  25.4738688  31.5534759  48.3541203  11.9438028  51.9291639  20.6585550
  11.2103653  51.5430307  20.1798058  11.7283618  51.7889214  21.5805912
  36.4468431   1.5096167  11.1126685  35.9889960   2.2422616  10.7005537
  36.5794754   0.8806305  10.4034317  57.5506353  74.8376226  75.5243111
  57.6072454  74.8639202  76.4794731  57.2877741  75.7237434  75.2754688
  19.0179050  24.2804217  38.8111258  19.0744460  23.4254313  38.3844829
  18.3013427  24.1878772  39.4389844  58.5022783   6.6134495  89.5993328
  57.8289652   7.2142082  89.2800140  58.0123377   5.9005904  90.0092316
  76.7691898  75.8864546  69.3397379  76.3355589  75.0615835  69.5583248
  76.5257168  76.4805174  70.0496960  34.3243241   8.7087780  65.5614805
  33.5623193   9.1678751  65.2081919  34.2510819   8.8174909  66.5096617
 102.3005390  50.8411121   8.6926758 102.7176666  51.4024591   9.3462217
 101.6690063  50.3221273   9.1907281  36.7036438   9.7186625  20.5260515
  36.7276645   9.6404058  21.4797449  36.8390155   8.8257062  20.2089763
  59.2189503  12.8491676  82.2547436  59.1904688  13.3697939  81.4520168
  58.3321953  12.5003910  82.3456001  37.0075679  29.6027970  11.0235155
  36.4540720  29.7127223  10.2503467  37.0131159  30.4652572  11.4386845
  94.1952019 109.6519500  33.4627700  94.3901937 108.8577641  32.9652977
  93.7251108 109.3406703  34.2363000  17.8777909  35.8952451  27.3021746
  17.9260266  34.9424577  27.2240448  18.7889433  36.1746812  27.3913360
  32.6988196  13.7535834  27.3415637  32.1088314  14.3933296  26.9429755
  33.5754967  14.0559685  27.1044350  59.5764399  89.9166107  91.7219448
  58.9226389  89.3566036  92.1404648  60.3426218  89.8580551  92.2926998
   4.9531123  10.4876637  28.6591101   5.8339435  10.8605039  28.6222553
   5.0808442   9.5542568  28.4897995  38.5927320  26.6356373  20.1589561
  39.4958234  26.8044519  20.4275799  38.5104442  25.6822443  20.1812863
  71.5686178  74.7289038  77.0956659  70.6247091  74.7431135  76.9373417
  71.6992569  73.9975405  77.6992178 109.2666435  68.4400463   2.0116611
 109.8837662  68.9229918   2.5613478 108.6355782  68.0694818   2.6286438
  36.8372703  47.3497438  31.8920684  36.2813616  47.1660423  32.6493359
  37.7077103  47.0515490  32.1559739  24.4989300  27.7395487  37.5381613
  24.2242789  28.3062935  36.8173289  24.3295598  26.8518138  37.2227764
  88.1842422 106.0793686  36.4057398  88.9148140 106.4323711  35.8979082
  88.5719681 105.3753376  36.9255853  28.3125353  24.3791008   7.0226395
  28.3756828  23.4432077   7.2132838  27.4156070  24.6123314   7.2621304
  15.9332049  24.5589423  32.8499222  15.2763629  23.8798404  32.6962709
  16.1884010  24.8479366  31.9738007  38.8455319  29.2873096   8.5428005
  39.0568352  28.4784889   9.0090555  37.8894567  29.3305826   8.5594469
  57.3690605  42.6363850  29.4613957  57.0005846  43.5188770  29.5022035
  58.0101490  42.6114273  30.1717591 112.4203777   4.6742368  55.1823187
 112.5151157   4.4341949  54.2605591 111.6565132   5.2507257  55.2023983
  31.0728645  47.3496819  38.5789180  30.2900457  47.5133467  38.0529499
  31.0176730  47.9834270  39.2941475  19.9248755 104.3847084  75.5731726
  20.1053500 104.4713879  76.5092039  19.5613384 103.5041618  75.4798746
  93.7159252  10.6777537  87.0322037  93.2430458  10.0152552  87.5359058
  93.1108475  10.9236705  86.3324547   4.9264923   2.1927445  26.3414335
   4.3362674   2.4185285  25.6224847   5.5267495   2.9359686  26.4009404
  65.3493977  98.7528419  77.7933121  65.9730577  98.6517334  78.5123777
  65.2229309  99.6985912  77.7171564   2.6342770   8.4475541  39.8172617
   3.2189909   8.1629306  40.5196381   3.1364289   8.3047658  39.0149593
  15.3622174  10.5540872  22.0731807  16.1021757  10.0157762  22.3540998
  14.7402191  10.5037534  22.7990007  33.5682964  19.4452000  79.0676403
  33.7448955  18.6060607  78.6423302  32.6373935  19.6024895  78.9098167
  39.7263551  26.4503002  42.7453804  39.2355204  27.2629404  42.8675699
  40.3678226  26.6577983  42.0658970  19.2582107 106.6642761  23.7171602
  18.8570714 107.1970940  23.0305576  19.2489755 105.7740211  23.3656025
  61.3555288  15.1038063  16.6002131  62.0569134  15.3388405  17.2077084
  60.9066725  15.9301078  16.4213657 103.7598038  53.0561829  32.1239376
 104.3129253  52.6303387  32.7788758 104.0304279  52.6670551  31.2923265
  99.4214916 107.1930790   9.1130471  99.8214722 106.7109776   9.8368067
  99.7234726 106.7385578   8.3266342  40.5525637  26.7211461  14.5575631
  39.7389555  26.4962864  14.1062188  40.4964113  26.2619090  15.3955245
  12.6175773   7.7450210  21.1233377  12.7787232   8.5442269  20.6218052
  12.4652314   7.0723581  20.4595995  46.3643742  56.5461445  18.7716651
  45.7577515  56.1906290  18.1221616  47.1216631  55.9617138  18.7372482
  19.0260935  10.3290248  37.2244668  19.0709352  11.0219705  37.8832889
  19.0021634  10.7945728  36.3884497  25.2959943  37.7769399  13.5810721
  25.4273677  37.8155541  14.5284271  25.9740472  37.1774507  13.2694793
  71.4162302  30.2598238   2.1101107  71.0147810  30.9897900   1.6387099
  72.2479582  30.1123977   1.6598517  30.7301116  67.9467869  87.2668839
  30.6645679  68.1448269  86.3326931  29.8630977  67.6171684  87.5032520
 109.7733593  14.1007602   4.1577706 109.2990685  13.5741818   4.8011956
 109.6773148  13.6188972   3.3362997  25.7487011  31.7750096   4.3602273
  24.9149609  32.1535993   4.0813369  26.3975835  32.4487162   4.1569924
  29.1048694  16.1783373   7.2557372  30.0236440  15.9576201   7.1028638
  28.6155176  15.5361342   6.7415941  16.1480594  42.4531603  33.3707738
  16.4582300  43.2168341  32.8841186  15.1945829  42.4927568  33.2963014
  83.7803268  67.0994377  52.2174931  84.1392040  66.2284231  52.3871183
  82.8711224  67.0453691  52.5118923  62.8788424  77.5785494  85.6747627
  63.5154915  76.9223452  85.3913879  62.3715639  77.1406174  86.3582230
   9.0806663  91.9562912  48.4837103   8.3661652  92.4871063  48.1316328
   8.6689210  91.4190960  49.1605520 106.4440823  29.3872261  19.7586143
 106.2920475  29.5794249  20.6839132 107.2220516  29.8971033  19.5327580
  34.8462272  19.8618615  12.9156351  34.0057349  19.5665395  12.5655115
  35.0099850  19.2863464  13.6627626  54.9514914 102.0919704  94.1794682
  54.7220230 101.2188625  93.8612747  54.7468901 102.6748085  93.4482574
   8.6209041 108.4778976  22.3218226   9.1228294 107.9065895  21.7405224
   7.9069310 108.8073254  21.7759728  17.6585436  65.7819366   6.3644636
  17.8702986  66.7154074   6.3601500  17.8848195  65.4890871   7.2472262
  32.1964049  32.4065566  47.6974201  31.5521216  33.1034780  47.8216505
  33.0103374  32.7673960  48.0489016  36.8473792  11.9350767  29.6666455
  36.0639191  11.4961576  29.9979639  37.5249457  11.2591207  29.6814227
  25.6542301  12.0421207   6.2667304  25.0733280  12.7020144   6.6453141
  25.2230597  11.7821980   5.4526258  63.1103659 109.2000771  91.1143684
  63.7749386 108.9549923  90.4705429  63.1059551 108.4767437  91.7412663
  48.0685377   5.0405264  43.9450359  47.9601622   5.2878237  44.8633671
  48.9737463   5.2740151  43.7393379  14.8126221  28.3075237   1.6248232
  14.1033947  28.0677438   1.0283878  15.6111372  28.1680751   1.1157477
  22.8976369  42.1009445  11.4567924  23.1125832  41.5245724  12.1901584
  22.3126078  41.5802813  10.9064436  65.2986383  40.3210497  41.3415861
  65.8397341  41.0687399  41.5953636  65.9249544  39.6143723  41.1848354
  48.8353968  29.0657544  24.0198135  48.9320040  28.1243587  24.1636038
  49.6274185  29.4482493  24.3974829  47.6923084  72.3668718  88.1860733
  48.2194519  72.4349451  87.3900127  47.3766279  73.2571125  88.3411503
  63.7579775  90.0109005  87.4643803  63.1979895  89.8062706  88.2132149
  63.8688850  90.9609604  87.5007820  45.5586529  12.2804165  10.2804720
  46.4115810  12.6699018  10.0879991  44.9262381  12.8842509   9.8910236
  11.7228901  43.4246016  19.5003784  12.0950019  42.7461243  20.0637889
  11.7238951  44.2133713  20.0426626  75.7589674  89.3025208  50.3418064
  76.0947752  89.2764378  49.4458246  75.9259367  90.1985550  50.6341791
  15.9953654  31.9108319  13.5151517  16.4559305  32.6284170  13.0802011
  15.8433890  31.2686324  12.8218150  42.7912712  26.6989827  43.5867119
  41.9644880  26.4191222  43.9795732  43.4453630  26.1068344  43.9578724
  47.0715666  63.1774473  29.7634649  46.5904951  63.9411497  30.0821519
  47.1788931  62.6224995  30.5359578  57.2689056  84.9809647  88.9415550
  57.5883245  85.8577347  89.1548061  57.3328781  84.9281025  87.9879570
  12.5194144  38.2346344  44.7288275  13.1567848  38.0636644  45.4221964
  11.7074919  37.8401518  45.0472546  31.8659186  83.8049221  91.8830776
  32.5128579  83.2101250  91.5037346  32.0072913  84.6347523  91.4274025
  55.1142073   8.9134777  32.2256660  55.2283192   8.8466567  33.1736875
  54.1750145   9.0550035  32.1068597   7.3150718  48.9404154  21.2072062
   6.5454239  49.0062666  20.6419301   7.3768884  49.7976971  21.6284847
  84.5497322 107.3650551  13.0663598  84.0280437 106.7480564  13.5795879
  84.6072674 106.9658756  12.1982682  27.2894835  45.4527473  11.9105101
  26.7459321  44.7421932  11.5700769  26.7996311  45.7909870  12.6600897
  82.5235653  89.2487431  81.4264870  82.7952385  88.8399315  82.2482491
  83.3351231  89.3484879  80.9288311   5.8803636  19.9922347  28.9692855
   6.4796400  19.2461061  28.9891124   5.4139960  19.9028409  28.1381774
  32.4637794  53.1196976   9.1248590  32.8918052  52.3012590   9.3762225
  33.1776285  53.6791420   8.8188028  39.5427132  37.0936489  23.5177183
  40.2687263  37.1114898  22.8941631  39.9607635  36.9594884  24.3682861
  68.8868669 108.7144268  92.7101994  68.2132199 108.6725195  93.3889389
  69.0767911 109.6481096  92.6185799 113.1032085  27.0614219  34.7869921
 112.3036289  26.8386149  35.2637053 113.4317112  26.2220812  34.4647622
  96.2869072  92.3349571  23.3938813  96.8097496  92.2939110  24.1946149
  96.0926914  93.2655621  23.2820821  56.6169119  76.1503458  88.3162403
  57.3368168  75.6363249  88.6819553  56.0951376  75.5159473  87.8248024
  42.0919371  20.8711052  26.9198704  42.3663712  21.2683964  26.0933876
  42.8093672  20.2815270  27.1520782  51.4552641   4.6999446  33.6761451
  51.0283709   4.7275728  32.8198552  51.1589432   3.8770390  34.0650558
  28.2069182  32.4443650   7.9549003  27.9499292  32.0738792   8.7992507
  27.7985930  33.3099556   7.9389036  13.0604112  46.0590744   0.8830988
  12.6465762  46.3129807   0.0581732  12.4875641  46.4202738   1.5595686
  48.9177942 106.1005878  86.3052654  48.9017010 106.1379719  85.3489304
  48.7918425 105.1742554  86.5109062  45.2395201  34.3940592  28.8187313
  45.2146339  35.3508091  28.8343120  44.6019268  34.1270685  29.4808626
  45.6268263  51.2999344  14.7695506  46.0227680  50.5856609  14.2702782
  45.0336361  50.8642864  15.3815699  14.6757627  25.3319907  84.2869568
  13.7919140  24.9770546  84.1917515  14.8462534  25.3008389  85.2283382
  45.7251883  42.3900270  41.2027884  45.0629330  42.7747345  40.6286383
  45.2909994  41.6327190  41.5954733  68.8341427 104.0481758  64.9984169
  69.0625572 104.7562027  64.3961239  68.6483192 104.4894123  65.8272839
  47.3976851  40.5182266  40.0527096  48.3241987  40.4803753  40.2901411
  47.0433998  41.2317371  40.5833864  44.2301178  34.1130304  18.7000823
  45.0103521  33.9136720  18.1826639  44.5491982  34.6710825  19.4093060
  57.9236889  16.2007952  18.9710665  57.4270153  15.7844317  19.6754730
  57.4531126  17.0156205  18.7954283  17.2843146  23.3124495  15.7993174
  17.8562677  23.6677361  15.1189685  16.7832184  24.0669155  16.1090231
  70.4369116  99.5972919  93.6653709  70.8430243  99.1372776  94.4000053
  70.7628345 100.4945946  93.7349987  27.4991369  23.3978486  26.2399244
  27.6199698  23.1155229  25.3333259  27.4528003  24.3525863  26.1893129
  40.9352970  48.9002466  21.7099643  40.1316309  49.2468691  21.3223958
  41.6398048  49.3344641  21.2289715   3.0846810  44.5894909  75.8833647
   3.4331834  44.6928883  76.7688513   3.1227928  45.4686785  75.5067968
  26.5129566   3.6822504  81.1982822  27.0380473   3.4503576  81.9642735
  25.6764102   3.9738899  81.5607262  21.7198157  53.3177280  82.4188614
  21.6271734  53.2413340  81.4692307  22.4331260  53.9443636  82.5402832
 114.0358639 100.2285767  93.3846188 114.5184612 100.6323814  92.6633167
 113.4280014 100.9080887  93.6761665  21.5929079   8.9345133  79.0104008
  22.2069216   8.9799714  78.2774925  21.9818234   8.2972991  79.6095133
  33.1889105  18.7058198  52.0426083  32.3674369  18.3878136  52.4171543
  33.1436658  19.6570849  52.1389389  12.1671617  37.4006367  88.6435032
  11.2918687  37.4258256  89.0301037  12.5860953  36.6412067  89.0484619
  53.1049585  78.9181757  14.2296660  52.6335716  79.6434689  14.6395087
  53.2740402  78.3068705  14.9465692  19.0408361   1.9682871  84.4431019
  19.6379924   1.2400578  84.6143341  19.0261924   2.4636506  85.2620220
  95.9900761 103.2793713  78.9475584  96.0846996 104.1687679  79.2885303
  95.5114841 103.3876038  78.1256962  90.9219646 108.3898449  70.4321575
  90.5920506 107.4928856  70.4856730  90.8271599 108.7333107  71.3205671
  68.9776325  83.7517929   6.0473162  68.9787865  83.4471798   5.1398796
  68.7742186  84.6851444   5.9863919  24.6094966  21.6076422  79.6330976
  24.9060035  21.9420838  80.4795361  24.8801208  20.6894994  79.6302176
  99.9065876  74.6680307   0.6908701  99.6453762  74.0655756   1.3873260
 100.7495117  75.0174284   0.9800737  59.4218540  33.4723020   5.1305771
  59.2171955  34.3096900   5.5466640  59.7116137  32.9117131   5.8503079
 111.5208244  97.0844746  93.0877018 111.4251232  97.8328514  92.4986267
 110.6560040  96.9797707  93.4843731  52.0030260  69.0738106   0.8269954
  52.4669933  68.8159275   1.6235262  52.6405334  68.9421940   0.1252193
  81.1715031  85.9515858  30.5219817  80.7723141  85.1970196  30.0889540
  82.0780277  85.6865501  30.6775594  96.2399292  64.7781944   7.0092452
  96.1906242  63.8270092   6.9141078  95.8199692  64.9568319   7.8506464
  45.2221251 102.0069885   7.4237353  44.4833469 102.5880051   7.6050162
  45.7585192 102.0474052   8.2154930  72.8992558  87.3082829  16.7604566
  71.9811630  87.4137497  17.0098913  73.1760502  86.5043163  17.2000718
 101.2408447 105.9723949  77.1201181 102.0213985 106.0076427  77.6730490
 101.0336399 105.0399876  77.0574427 105.2739334  51.0719442  71.1018705
 105.9994316  50.4757357  70.9163427 105.6969452  51.8924427  71.3550091
  60.7008600  92.3333645   0.7848167  61.0641718  92.4527359  -0.0926710
  60.3878403  91.4288330   0.7934252   1.4860681  21.4545321  72.9010487
   1.8716195  22.3277426  72.8297329   0.9657732  21.4872718  73.7038231
  35.6390691   2.9179990  82.7907467  34.7122979   2.7192664  82.9242802
  35.6810331   3.2816374  81.9063091  81.3019562  81.3224697   7.8076005
  82.2452831  81.4825535   7.7803159  81.1850452  80.7018566   8.5269088
  30.7419920   4.0649265  90.0632954  30.4688478   4.6430540  89.3509865
  29.9433684   3.6011535  90.3149796  33.1237388  37.4304390  92.5287628
  32.6242399  37.3672843  93.3428574  33.5510445  38.2856846  92.5756741
  96.9246674 108.9234638  80.7914352  96.9434834 109.2329502  79.8858452
  96.7457294 109.7084332  81.3091469  81.9207382  90.4581547  32.8747153
  81.2998199  90.5954933  32.1593022  81.7325211  89.5737362  33.1887507
  43.8080215  77.1536636  16.2591314  43.8306618  77.5762987  15.4005861
  44.5977926  77.4659252  16.7007077  63.4065056  23.6687112  45.2767658
  63.2562160  22.8604388  45.7670116  62.7220249  24.2644310  45.5814552
  34.3622851  21.5217257  71.2699556  34.8537898  22.3277593  71.4279509
  34.8236346  21.0978246  70.5462837  19.4088748  10.2721609  94.6943614
  18.9574674  10.7262720  93.9828517  19.8835519  10.9631123  95.1564154
  80.6986904  89.4853973   5.9936523  81.1492729  90.2892303   5.7346886
  80.9389591  88.8486576   5.3205514  99.3350029  31.1480880  24.0844464
  99.1761208  30.4082084  24.6705914 100.2845383  31.1586642  23.9640427
  30.2908039  42.6336718  74.3758631  29.3340158  42.6233768  74.4019604
  30.5081224  43.4143400  73.8663864  40.6280565 106.1635876   8.5313129
  40.1480913 106.9216824   8.8646996  40.4893684 106.1897087   7.5845736
  76.3097477  87.2799683   2.8559566  76.3953257  88.0247498   3.4511045
  76.1387491  87.6749802   2.0009968  70.1771259  15.2566361  94.9290562
  70.2635574  14.5319152  95.5483627  70.5711555  14.9290717  94.1205502
  10.8208930  23.6806178  92.3834229  11.1510110  24.3892431  91.8310547
  10.7210267  22.9386735  91.7869473  60.3377295  82.5209522   7.9836243
  59.6297026  82.8499222   7.4298131  60.0575161  81.6402149   8.2326663
  93.6984348  50.3302097  11.2065434  92.9238319  49.9036789  11.5730000
  94.2969799  50.4180384  11.9483387  86.1368084  81.9841766   4.9157211
  85.1869011  81.9657993   4.7992229  86.2603188  82.1453285   5.8511394
  17.1295130  38.1764627  71.8652916  16.7427564  38.6137295  72.6238728
  16.9560730  38.7684727  71.1333942  95.4318714  67.6247931  25.9765124
  95.6888199  68.0023623  25.1352930  95.9410477  66.8169022  26.0419631
  65.3871727 107.2512341  54.8119831  65.5640793 106.6801071  54.0644836
  65.1441765 106.6527939  55.5184174   0.1504860  82.8990078   4.5166335
   0.8268518  82.2315598   4.4014087   0.2081947  83.4372616   3.7272114
  34.7652769  52.1577740  80.9533405  34.9720597  51.8460751  80.0722504
  34.4682670  53.0586481  80.8251381 111.7377377  84.3244362   3.7059790
 111.1205292  84.5965385   3.0268291 112.2615814  85.1062870   3.8807312
  50.7924080  32.1198058  60.9191322  51.3829565  31.7325163  61.5652704
  51.3006592  32.8284955  60.5245781  86.6697884  93.5050201  32.7273893
  87.1891689  92.7146626  32.5796986  86.4560986  93.4803772  33.6601067
   4.6336091  40.0204897  83.5081291   4.4708070  39.7464943  84.4107151
   5.5875885  40.0459242  83.4339237  83.9755058  76.8833733   4.7157142
  83.7280846  76.3382912   3.9687908  84.6557903  77.4635553   4.3739027
  22.3068404  41.6028976  71.6864395  22.6931024  41.8749142  70.8539486
  22.6186323  42.2508717  72.3182201  57.0277500  14.5405436  92.9289055
  57.7332354  13.9294469  92.7165604  56.3955879  14.4328237  92.2182655
  16.5031075  11.8534923  62.2356224  15.7773542  12.2593343  62.7097607
  16.4111352  10.9173107  62.4126434  21.3581133   9.6057856  84.1393948
  21.8433666  10.4288745  84.1967106  20.8177781   9.7004294  83.3549786
  48.3479309  36.8125105  84.0420055  49.0372992  36.6980982  83.3878613
  48.0118608  37.6947379  83.8840199  31.0683274  85.9563828  21.8168116
  31.2825441  86.6263676  22.4660087  31.6466331  86.1453342  21.0778332
  85.7478523  56.1396885   2.2004081  86.6743088  56.2975264   2.0187926
  85.4055691  56.9950533   2.4600835  50.4448318  32.0195365  89.8964214
  50.6163549  32.3267531  90.7866001  49.6681595  32.5062680  89.6205425
  69.2317009  99.4801426  17.4039972  69.3120766  98.5283279  17.3421085
  68.9225674  99.6368885  18.2962406  74.9370623  82.8273487  19.7717583
  73.9859056  82.9239941  19.8186052  75.2790356  83.6261654  20.1732302
  34.3299222  33.3476877  85.1094723  34.7657609  32.9116988  85.8417225
  33.9431262  34.1339350  85.4947472 101.8976779 105.7995630  94.3540330
 101.6911359 106.0483098  95.2549750 102.8347679 105.9738994  94.2662627
 105.0382614  69.8974228   6.9561774 104.3853664  69.2002344   7.0185500
 104.8970699  70.4286003   7.7398521  20.1715279  12.5114894  89.7849178
  19.2938066  12.2383010  90.0517654  20.3158116  12.0697510  88.9480877
  35.8644207  64.1992371   0.1659167  35.4966838  64.2097812   1.0496009
  35.9112556  65.1217650  -0.0850331 107.3461056 100.1576710  68.4186268
 106.7294312  99.4674301  68.1746960 108.2091904  99.7655869  68.2860374
  41.4276028  30.0001955  86.9707489  42.1602869  29.4936395  86.6203117
  40.7233667  29.3606687  87.0769978  74.1298723  40.7666779   6.7437601
  74.8495436  40.7686329   6.1126530  74.5419025  40.5352545   7.5761676
  35.3557873  47.9844904  80.1378155  34.7275400  48.6304665  80.4606915
  34.8141527  47.2656584  79.8120117  72.5257444  68.7149858   8.2214230
  71.9078445  68.0317259   8.4813809  72.1676874  69.5181704   8.5994804
  95.1118565  80.6681156  23.5665798  94.6959209  79.8081589  23.6275077
  94.9902344  81.0549641  24.4336367  76.4052343  89.2678165   0.1918556
  76.0595703  89.9006176  -0.4376734  76.7788744  89.8047829   0.8906356
  73.0625629  48.7923050   4.5125726  72.4337816  49.3377018   4.9852386
  73.4176064  48.2038593   5.1788342  80.8098221 108.6465836   1.4635044
  80.4264641 109.4524384   1.1173173  81.1488914 108.1921005   0.6923254
  46.3198233  59.6112204  17.6085448  46.2970638  58.7573385  18.0405152
  46.4481926  59.4076109  16.6821015   1.2107814  58.1925631  16.1413848
   1.2753059  57.7180338  16.9701743   1.9232897  58.8308811  16.1747646
  23.4457040  82.6395893  29.5351362  23.5994315  82.9048634  28.6283684
  24.0046024  83.2195282  30.0523829  24.3345714  20.9997249  42.3698282
  23.5205102  21.0052729  42.8733206  24.5674229  20.0738215  42.3011684
  91.2213421  85.3159809   9.9576044  90.9319973  86.0531235   9.4198918
  91.7662430  85.7140541  10.6364703  33.5226774  43.8900805  83.5689354
  34.2052841  44.5262051  83.7825298  32.9089594  43.9422131  84.3016434
  60.3080654  24.6478319  53.2717562  60.0525951  23.9987993  53.9272928
  60.3933001  24.1476965  52.4600744  27.1848631  29.8288608  93.1398582
  28.1051207  29.6060038  93.2801819  27.1705866  30.2609396  92.2858524
  34.5477867  54.0180111  84.7535229  34.2909074  53.1867313  84.3544960
  35.4933643  53.9406443  84.8805237  82.2398663  78.5436773   2.8954554
  81.7042732  79.1291189   2.3600781  82.3932648  77.7816248   2.3369065
  59.0086269  75.1739407  15.8230424  58.2372379  75.3614998  15.2882397
  59.5021725  74.5306873  15.3142476 115.5448246 107.8931141  70.4932022
 115.1959801 107.2593689  69.8663712 116.1146545 107.3771000  71.0635138
  40.4544592  29.7573400  78.9389563  40.9966612  28.9685583  78.9473772
  41.0010242  30.4191709  78.5153055  75.9382296  27.7658772  88.1093884
  75.8416224  27.8710842  89.0558720  76.7828655  27.3285103  88.0019855
  29.3155527  24.7519088  88.6458969  29.2621469  25.2172399  87.8111267
  28.4335041  24.8152137  89.0122509  85.4911900  94.8275757   8.7137467
  85.2185249  94.0730286   8.1916928  84.6792889  95.1598549   9.0966773
  62.9291677  36.7706442  55.1234961  63.0086279  36.6022205  56.0624027
  63.7518024  37.1988249  54.8865032  27.6980472  21.1696434  90.7799530
  28.1970072  20.4712868  91.2037182  27.8004456  21.9235444  91.3607979
  91.2723923  72.5205660  11.2503791  91.0729122  71.5850830  11.2866127
  92.0891953  72.5722361  10.7540035  93.7585545  79.2405319  13.5377109
  94.5222855  79.8132467  13.4674823  93.0101776  79.8214436  13.4009337
  79.8707151  96.1810684   4.7283858  79.0956163  96.2756920   5.2820051
  79.7922087  95.3034782   4.3543559   8.2412070  69.3562746  89.5316505
   8.5923529  69.9412394  90.2030182   8.3088624  68.4823465  89.9162292
  97.3396301  19.2851460  76.5635395  96.7114162  18.9723444  77.2144842
  97.1695328  20.2248812  76.4987612  53.5171223   8.5980707  79.9909782
  52.8049040   8.2623029  80.5352497  54.2025900   8.8377672  80.6146049
  98.2122898  17.4399638  21.4801311  97.8012371  17.5400376  20.6215000
  98.7692356  16.6666639  21.3903832 106.6882801 106.2634754  81.2910461
 106.5502834 105.7149792  82.0632744 106.4537621 107.1457291  81.5789032
  52.0790768  43.0636883  91.7622089  52.4223423  43.9467239  91.6256618
  52.3986006  42.5637054  91.0111046  35.7653666  49.1105556  84.5509720
  36.6859031  48.9484930  84.7573185  35.5461597  49.9033642  85.0405025
  38.9778185  49.0532303  88.2422352  38.0768681  48.7303066  88.2267666
  39.5041752  48.2841969  88.4607887  62.5507307  86.6787148   8.0279696
  61.6517735  86.3673019   7.9224920  63.0930138  85.9113884   7.8452808
  30.3931212  96.6111755  13.2186151  30.3962159  96.9068813  12.3082399
  30.5079341  95.6625366  13.1627083  97.0281029   7.8042030  86.9973373
  96.2485027   7.2808790  86.8113613  96.8874264   8.6216354  86.5195847
 108.0932140  59.9335194   3.5760465 108.1510925  60.1316786   4.5107195
 107.3795986  60.4863977   3.2577401 102.1072292  81.6249180  15.2358091
 101.6969776  82.3720455  15.6713855 101.3738251  81.0697651  14.9709451
  35.1734495  49.7013855  76.1569452  35.3667736  49.5971632  75.2252817
  35.1605678  48.8079786  76.5002918  52.0202684  43.4023952  81.9174099
  52.0939684  44.3166542  81.6436768  52.2850180  43.4057045  82.8372669
  56.6013145  23.5510635  29.0564299  55.8896446  24.0518713  28.6577463
  56.5034151  23.7025261  29.9964857  28.5271621  39.9584746  85.4527664
  28.0100083  40.7300997  85.6838036  28.0089211  39.2189693  85.7702351
  76.9479942  82.2029114  14.7388470  76.1089706  82.2248745  15.1990533
  76.7185402  81.9996643  13.8320541  81.3189983 103.0688572   5.5508685
  81.0653400 103.9373970   5.2385831  81.8355083 102.6984119   4.8351759
  50.0796461   1.1424541  24.4060469  50.9286499   1.5839943  24.3843961
  50.2250147   0.3705369  24.9530792  54.4631672  22.8547359  83.0306244
  54.4030952  22.7004004  83.9733887  53.5541105  22.8638363  82.7310085
 108.2480431  39.1495728  68.6481667 108.3976650  38.2524824  68.9466190
 109.1253471  39.5222259  68.5603333  90.9712315 100.0674820  19.5535696
  90.0264549 100.2187252  19.5811307  91.2147045 100.2383518  18.6437583
  84.1835499  26.1465478  51.6697454  84.7072887  26.4285302  52.4196911
  84.8281097  25.8828282  51.0130692  89.2121696  57.7362108  42.0943403
  88.3116531  57.5590181  41.8225050  89.3951607  57.0754337  42.7622604
  73.2071733  81.1914444   5.2105212  72.4986553  81.7650127   5.5024904
  74.0069103  81.6783047   5.4095662 112.8861618  98.9744282  88.6704826
 111.9463253  98.8844776  88.5128403 113.2969952  98.5239124  87.9325867
  49.6271324  44.2326450  91.4669323  49.7430038  45.1826715  91.4509487
  50.4590321  43.8954496  91.7993069 102.8460979  83.6662865  38.5912776
 102.3260403  84.2605114  38.0502820 102.7826405  84.0292454  39.4747210
  96.8013573  72.9762983   6.3703221  97.1026516  73.6650658   5.7778221
  96.9430256  72.1637058   5.8846796  53.0442858  19.2973197  72.0792007
  52.6621819  18.8350070  71.3332129  52.3459482  19.3144357  72.7336168
  65.8856010  19.4578159  75.9594774  66.5457678  20.0047541  75.5337191
  65.4575682  20.0422955  76.5850973  83.7226486  91.0864544  17.7179182
  83.1731033  91.4386845  18.4180307  84.0847588  91.8598843  17.2855759
  43.4003019  27.4906540  62.5324726  43.8520575  26.7851257  62.0694637
  42.6055908  27.6424265  62.0209694  85.1273251 105.9661102  17.5996518
  85.2135181 105.0684452  17.2787392  84.1922569 106.0683441  17.7769315
 111.4430046  78.9050961   3.3584943 112.2993088  78.5010099   3.4987989
 111.5036774  79.2988157   2.4881285  73.6945963  51.3468695  34.4029093
  74.4941187  51.0397530  33.9755034  73.1539249  51.6815281  33.6874318
  83.2498074  86.9403648   5.6040490  84.0452862  86.5252399   5.2707016
  82.7244759  86.2148952   5.9416276  88.3153629  11.5190673  16.5548408
  89.1776466  11.6671884  16.9431090  87.9960537  12.3953009  16.3392246
  15.5575895  63.6615324  78.1876564  14.8528540  63.3368587  77.6271486
  16.2282562  62.9796982  78.1483889   9.8204803   0.6828225  20.0957918
   9.7618258  -0.0940723  20.6518722   9.1313481   0.5623303  19.4424844
  46.8159628  73.5518169  17.5358272  46.0514975  73.9465904  17.1163332
  47.4382687  74.2733479  17.6272917  59.7352457  71.1659622  10.3685081
  60.0571108  71.4386082  11.2277496  59.9263239  71.9078827   9.7946900
  18.3364594  25.1851082  87.9424763  17.7485859  24.7328305  88.5475254
  18.8852167  24.4907999  87.5777435  73.4265423 102.3005676  25.6946182
  73.8782883 101.5831089  26.1389184  74.1284752 102.8858185  25.4099917
  76.8325710  65.3638077  16.2497616  76.9524670  66.0074997  15.5515373
  75.9350348  65.5027056  16.5520334 109.0738869  70.2748156  42.2408867
 108.6047459  70.8004856  42.8888130 108.3834743  69.8596048  41.7240095
 101.0841751  79.3974400  13.6243427 100.9657001  78.5265779  14.0035439
 100.2406311  79.5991135  13.2193756  41.4140320  22.1739554  86.9185734
  40.7586050  21.5332079  87.1944141  41.3184166  22.2200394  85.9672737
  81.1352062  94.7061634   9.2115337  81.5155411  94.7777557   8.3360589
  81.0432434  93.7644768   9.3564463  48.9015770  46.3698292  93.8577557
  49.2777109  45.8958960  94.5994663  47.9553604  46.2802219  93.9712334
  21.0794261  49.8252548  94.4239971  21.5324405  49.3830551  95.1419559
  20.3793290  50.3192581  94.8506834  40.6355572  22.3021483  51.1007977
  40.6540728  23.2568979  51.0348940  41.3867426  22.0855784  51.6531086
  79.1968012  49.0967989  11.9744241  79.0891075  48.8740778  11.0497451
  78.4950304  49.7226906  12.1533382  65.5224609  98.0052948   6.7007530
  65.8302116  97.1260643   6.9209278  65.8132362  98.1420326   5.7990956
  64.1422653  91.3315392  39.5244122  63.2008171  91.1870670  39.4293356
  64.2134619  92.2122955  39.8924232   5.7342929   5.8548951   2.2677717
   6.0044223   5.8005846   1.3510862   6.4755374   5.4984742   2.7574164
  43.7328053  42.1963263  23.4322762  43.9165831  41.4358425  22.8807998
  43.7934399  41.8631935  24.3275857 114.9034882  53.4797192  94.3266487
 114.8159790  53.6969519  95.2547646 114.2338371  52.8133631  94.1724586
  69.2595959  42.3600435  87.5348663  69.5359659  42.2316647  86.6274643
  69.7603607  43.1195354  87.8325939  43.9965057  33.9711285  87.7753925
  43.4007645  33.4654546  88.3282280  43.8185215  34.8835564  88.0034924
  19.1746247  39.2849588   7.1965396  19.0139604  40.1396322   7.5964826
  20.1283956  39.2152882   7.1553373 101.7957973 101.2468815  44.0914917
 102.4133492 100.5226612  44.1932821 101.6381073 101.2964630  43.1486750
  25.1099801  30.4569197  88.0316925  25.2342272  30.0934029  88.9084148
  24.4118166  29.9256611  87.6488590  84.0999985  83.5611629  28.3227062
  84.3027401  83.1033325  29.1385007  84.7387218  83.2247639  27.6941490
  34.1966462  10.3220534  73.8350582  34.7437286  11.0012257  73.4405231
  33.8885093   9.8016912  73.0930996 108.7180519   4.0059915  17.0880425
 108.8550949   4.3649563  16.2113464 109.4036102   4.4082108  17.6214004
  15.0533521  10.7470381  81.5765953  15.7613289  11.3601029  81.7744637
  14.9918354  10.7524180  80.6213856  88.0741215 101.2537766  55.1379061
  88.1415939 102.1461487  55.4775476  88.2486916 100.6953335  55.8954668
   8.3281147  44.0246344  76.6246462   8.0418378  44.5704079  75.8922482
   8.9830154  43.4387398  76.2450886  75.5738592  85.4985332  20.8196592
  76.5090322  85.6947041  20.7630897  75.1499319  86.3565159  20.8395076
  87.1456909  65.5504847   4.4455335  86.4272118  66.1203671   4.7198528
  87.6376057  65.3815603   5.2491009  52.7169180  58.4648085  93.4068203
  52.6888037  58.2110023  94.3293285  53.6264133  58.7229061  93.2570267
  28.7074065  25.5610585  85.9701633  28.6264825  26.4812350  86.2210846
  27.8100681  25.2830887  85.7864571  45.5978346   3.6391371   9.3983585
  46.0174370   3.2720977  10.1764631  44.6599674   3.5695499   9.5766521
  57.3189783  57.5144625  92.1404743  57.9715919  57.4438381  91.4438057
  57.4607515  58.3842182  92.5141811  42.0467520  43.0624485  83.9673233
  41.2868071  43.3037758  83.4377193  42.7268600  42.8508139  83.3278751
 105.4085636  67.9974031   9.2867494 105.9163666  68.3740425  10.0054419
 104.5585728  68.4344149   9.3393010  56.3986015  43.0092525  84.0780449
  55.7967377  43.6498499  83.6990547  56.2051916  43.0241966  85.0153828
  99.5584393  94.6096134  38.5626531  98.9603806  94.9907589  37.9197884
  99.1818810  93.7523079  38.7613010  38.9599919  24.9218559  85.8909130
  39.8446822  24.5604444  85.9451199  38.5584688  24.4626808  85.1532364
  79.1872454  73.8254452  35.9721684  79.2084646  73.1848001  35.2612853
  78.9702225  73.3123779  36.7505622  52.2826862   3.0164531  80.3209019
  51.6740751   3.6925292  80.6188011  52.3337221   3.1408882  79.3731928
  72.6696348  70.3209257  23.0724311  73.0413246  69.4691372  23.3016372
  71.8277073  70.3450584  23.5271907  58.9757013  42.4187231  89.1619682
  59.5713568  42.9094505  88.5957432  59.5380640  41.7884398  89.6122074
 116.7160847  76.4849854  73.0217505 116.6281169  76.6996574  72.0930910
 115.8403261  76.6215992  73.3831596 115.5356714  94.1983795   0.6321038
 116.3395576  93.6895752   0.5266941 115.8294988  95.0419331   0.9760867
 112.0146942  76.1383820  29.1031694 111.9947529  77.0074177  29.5039320
 112.7147198  75.6774378  29.5654750  69.6251059  41.8893194  85.0316048
  70.0196552  42.5679111  84.4838142  69.8376226  41.0688305  84.5867825
  36.2084794  47.4136162  62.3301268  35.3111100  47.5739670  62.0381546
  36.2118816  46.4954329  62.6006126  11.5106952   5.0824994   5.7886320
  11.7454803   4.2806995   5.3214866  11.3410544   5.7218534   5.0967646
  19.8882580  33.2477617  73.8260365  20.1362681  32.8367376  72.9979181
  19.4698632  32.5466013  74.3255854  96.0217476   5.8518142   6.5561575
  96.6874695   6.1833638   5.9535623  96.4293957   5.9120685   7.4201167
  68.4653234  80.7628632   4.2962861  68.7127876  81.6400528   4.0038213
  69.2134237  80.2128983   4.0636560 108.6887550  93.1458282   3.6911812
 109.3383694  92.4724865   3.4890401 107.8702831  92.8049850   3.3304080
  53.9756346  78.7510109   8.2262248  53.0768442  78.5664606   8.4988981
  54.4335508  77.9169178   8.3303028  76.7760420  91.4165783  26.4739203
  77.5775385  91.3093376  26.9861031  76.3204765  90.5795670  26.5639400
  20.8067298  29.2649126  93.8902569  20.4478836  30.1083922  94.1659451
  20.1458669  28.9053869  93.2984447  67.3826933  83.9910889  18.5289550
  66.5297699  84.1650200  18.1308317  67.3744822  83.0515766  18.7119389
  31.3595819  72.4098778  90.1046848  31.6005182  71.8548012  89.3630219
  30.5131865  72.7834988  89.8592186  49.7181129  37.1816325  88.6897564
  49.4489622  36.5989757  87.9796124  48.9478302  37.2423148  89.2547512
  68.0571175 108.4129715  55.1616526  67.1228266 108.2909298  54.9930143
  68.4486151 107.5610733  54.9686718  56.0105181  57.3698378  94.5870876
  56.3288164  56.9355822  93.7956619  56.3236666  58.2709265  94.5082855
  40.0197697  63.0293179   9.6522897  39.8271823  62.5936890  10.4825723
  39.1621399  63.1705904   9.2513561  -0.0146003  92.4941158  18.7108672
   0.9095692  92.7071381  18.5813916  -0.3644227  93.2357121  19.2047191
  78.1395531 103.0580616  17.0121539  77.8536177 102.1660614  16.8151677
  79.0274191 102.9548454  17.3545992  74.6471405  37.6216412  94.1570759
  75.0196028  38.4275842  94.5147896  73.7035990  37.7149105  94.2884636
   8.2266778   5.3548247   3.7471575   8.6376953   4.5602036   4.0875590
   8.8547379   5.6952971   3.1100926  64.8825312  64.4294453   5.9776181
  65.6018925  63.8422394   5.7453698  65.0219202  65.2053595   5.4347032
  53.2048130  53.4867239  24.0045094  53.3524656  53.3828115  24.9445248
  52.6071453  54.2313337  23.9368105  50.3719664  71.1823559   1.2071114
  49.8425245  71.1868286   0.4096771  50.9970570  70.4694748   1.0755974
  89.7696018  28.5318422  53.1359386  90.5200672  28.2710242  53.6698008
  89.3011189  29.1683125  53.6759996  80.8344746 105.4477978  19.9455261
  80.2927780 105.7128334  20.6888676  80.4678631 104.6077824  19.6694541
  46.0225344   0.6958831  84.0187263  45.4652023   0.5850196  83.2484531
  46.3707256   1.5837212  83.9366341  68.3234835  22.8492665  92.1365070
  67.4475336  23.2327199  92.1801567  68.4461689  22.4344373  92.9903698
  87.0810890  63.7827349   9.8266590  86.3495159  64.3363714   9.5536751
  86.8322849  63.4684753  10.6958961  79.3617436  97.4275433   0.2621043
  78.4384248  97.4956261   0.5051769  79.3891761  96.7160021  -0.3775727
  36.7125535  47.2291565  58.6164713  36.4712501  47.9826546  59.1552162
  35.8935142  46.7485952  58.4962034  36.1988068   6.8000340  14.5082593
  36.5968537   6.1475378  15.0844872  36.9331431   7.1603024  14.0110803
  68.1679440  73.9378357   8.0963171  68.3267260  73.8717461   7.1546954
  67.7480507  73.1092024   8.3271468  72.0878983  63.0479097  15.3262532
  71.2681961  63.2012224  14.8563373  72.7404737  62.9272890  14.6364522
 113.0591583 105.1638126   2.6453739 112.7025890 104.6137238   1.9478774
 112.6751804 104.8114300   3.4482592   3.8867620 100.0949669  16.1239195
   3.3575222 100.8849335  16.2338662   3.5503739  99.6906948  15.3241432
  42.9149818  69.0116167  86.8737411  41.9591236  68.9830732  86.9156361
  43.2008743  68.2880354  87.4313545  16.0472679  42.2197390  69.1406107
  16.5312910  42.3931026  68.3332062  15.9635448  43.0768681  69.5584059
   2.9298306  98.2064247   3.1242257   2.8409663  98.4056282   4.0562421
   2.7436277  99.0353775   2.6833165  79.9057770  68.0556345   2.5246102
  80.3082943  67.2043610   2.3527442  80.6452465  68.6432028   2.6801342
  82.9246140  75.5702353  13.0769479  82.6467419  75.1963902  13.9131618
  83.1540680  76.4761591  13.2840419  74.4056892  68.6918736  14.0628457
  74.7306395  68.0132961  13.4710920  74.6708822  69.5148373  13.6521912
  51.5577221  11.2451482  17.6873958  52.1819305  10.7499611  18.2178533
  51.2791252  10.6301188  17.0089006  76.5607071 106.4126110  30.4232478
  77.2877407 105.9685516  29.9868250  76.0191631 106.7455578  29.7076321
  81.9817066 106.7295170  15.3620303  81.9296932 105.8649921  15.7696092
  82.4217319 107.2754288  16.0136425  93.9392948   4.0154529  21.5807056
  93.9880753   4.0859061  22.5340629  93.3590603   3.2702535  21.4249897
  89.8458385  61.9084883   5.3561509  89.6829796  61.6528559   4.4482100
  89.6519756  61.1213112   5.8650678  84.7942352 104.5917797   4.0827861
  85.6719875 104.2381763   4.2268595  84.2537022 103.8234806   3.8990077
  44.2637539  97.1130180  80.0919533  43.7915182  97.9085922  80.3374672
  45.1815414  97.3819160  80.0521374 101.1141777  91.6671181  85.1698494
 101.8468189  91.1902428  85.5598068 101.3591099  91.7724133  84.2505264
  33.4475541  22.3496127  91.2988663  33.9367604  22.3756838  92.1211910
  34.1113019  22.1789956  90.6306076  24.3759871  42.8180027  85.2435493
  23.4297323  42.7469349  85.1179028  24.4869184  42.8909111  86.1915016
  77.2128487  74.6416473  64.3099737  76.3296604  74.8565388  64.0099287
  77.3886919  73.7775612  63.9375973  41.0621503  17.6759113  94.5992437
  41.5049508  17.6593412  95.4477028  41.6929582  17.2887672  93.9922603
  49.3692493  59.1372490  30.9243178  48.4686708  59.4581842  30.9710717
  49.9005365  59.9276924  30.8285832  90.3410912  76.4236403  28.6108828
  89.6188259  76.6041470  28.0092311  90.1396275  76.9426775  29.3895006
  46.1819124   1.1079697  32.4470377  46.4004517   0.1830575  32.5611019
  45.7849169   1.1547812  31.5773058  35.3300476  99.1757107   0.9215870
  36.0622764  98.6482239   1.2407046  35.7234883  99.7698784   0.2825289
 103.5759640 100.8779430  32.8073764 102.7312851 101.2475586  32.5502205
 103.7739658 101.2939262  33.6464143  58.3805323  67.7951002  17.9943252
  58.3884144  67.0320940  18.5722470  57.9667568  67.4820423  17.1899521
  33.8351369  32.2964597  88.4620476  34.7829986  32.4226618  88.5052204
  33.7267208  31.4220738  88.0879784  46.2027550  47.5213623  91.6420174
  45.2822638  47.7117443  91.4612389  46.3054180  47.7009630  92.5765991
  75.6557226  99.3978310   3.2679129  75.4988146  98.4545326   3.3104807
  76.5939379  99.4922256   3.4324509  49.0558481  15.0924253  72.9053545
  49.6609735  15.4913199  72.2801065  48.6567497  15.8346486  73.3592939
  64.4741535  81.0923481   5.5092508  65.3519630  80.9829140   5.8749110
  64.2625809  80.2374172   5.1343232  64.6667719  63.1400537  20.6781149
  65.6155062  63.1005096  20.5573797  64.5190001  63.9614916  21.1467648
  98.6735916 109.2838764  31.1363363  98.5912514 108.3866882  30.8130622
  97.8617287 109.7118855  30.8644557  98.7839985   5.4354489  12.1136773
  98.9525795   4.5017707  11.9869637  97.8344917   5.4952615  12.2189665
  81.6036415 104.7405910  24.9459863  81.6623592 105.6669044  25.1799107
  82.3775291 104.5804214  24.4059229  17.3498821  35.8255219   4.1280553
  17.4418807  36.4214301   4.8714674  16.5558016  35.3260493   4.3183047
  11.7350972  20.9002447   0.7195270  11.8005252  20.9829378   1.6709012
  10.8330059  21.1496782   0.5189069  67.0261955  69.5127058  32.2283149
  66.9727564  69.8053026  31.3185000  66.6735888  68.6229181  32.2148585
  82.3616791  90.6265545   8.0307370  81.7151928  90.0622940   7.6065701
  81.9415379  90.9016323   8.8456279  51.6759157  90.5258846  10.8835173
  52.1781445  91.3328934  10.9963727  50.8396196  90.8134747  10.5172825
  88.6906910  96.0969353  22.2102261  87.9747009  95.4691601  22.3076320
  88.4174538  96.8541241  22.7281380  93.5915852  71.8304110  13.3913398
  94.0183163  71.7315435  12.5402474  93.7364578  72.7467918  13.6268997
  14.7603881  98.9230633  83.5628033  14.7966516  98.1163311  84.0767193
  15.3475046  99.5250034  84.0201759  36.9378591  17.3378432  78.6681509
  37.2126198  18.2393825  78.8353825  37.7558613  16.8429852  78.6210346
   7.5557601   7.1838570  36.8994570   7.4181837   6.6818017  36.0961843
   8.1453127   7.8923136  36.6410971 112.3170853  82.4792671  41.6904640
 111.8939304  83.3216095  41.8566942 112.2414684  82.0056343  42.5188303
  98.7581635  83.8667488   2.3394808  99.0023613  84.6828079   1.9028392
  98.2362366  83.3947849   1.6905768 103.8029289  98.3575726  20.6387854
 103.2182026  98.1097317  21.3549542 104.6797657  98.3170319  21.0205436
  11.1206534  13.2299007  94.2235842  11.7524293  13.6714472  94.7911483
  10.6959632  13.9389528  93.7407648  82.3348999  97.1502304   5.9240931
  81.4974594  96.9399929   5.5108976  82.4484253  96.4746189   6.5926027
  18.5542214  22.5567389   1.1096504  19.2890346  22.1852541   1.5977888
  18.9346588  22.8291488   0.2746100  72.8932476  69.0259266  49.9055624
  73.4786081  69.6897650  50.2701187  72.1396923  69.0209103  50.4957819
  35.4196024  57.5008821  61.5127993  34.5658207  57.7070189  61.8933201
  35.9821653  58.2283258  61.7784691  66.3530588  35.4745221  86.5636730
  67.0327616  35.1886249  85.9533501  65.7843065  36.0398889  86.0410690
 102.3878479  95.1217651  83.6760044 101.4851570  94.8694801  83.4817505
 102.9046345  94.7184181  82.9785252  48.3427525  33.6673737  89.4786835
  47.8691721  33.9961457  88.7145710  47.8067398  33.9338946  90.2256012
  10.5119073   6.0626793  32.9806900  10.8901310   5.6080210  33.7333298
  11.2156200   6.6294771  32.6648402   4.8291114  16.4982712  68.6509180
   3.9759427  16.7626977  68.9950323   4.7887707  16.7136753  67.7191401
  60.7313016  39.7989048  94.9669708  61.0510877  39.6870483  94.0717311
  61.4345887  39.4543518  95.5173331  74.9818420 104.1368103  18.4745526
  75.1430082 103.2247448  18.2329190  74.2391062 104.0973091  19.0770602
  77.0849085  18.8488483  11.1174774  76.6888571  18.1944788  10.5419981
  77.0641661  18.4476757  11.9863057  87.6676559  69.1696644   2.1223544
  87.9207993  69.0985870   3.0427349  88.2678127  68.5823822   1.6628441
  71.8180180  72.7291107  25.4367805  72.6250792  72.5408936  24.9577618
  71.1304951  72.3041105  24.9240255  18.5874426  51.3222218  93.3247662
  18.8007748  50.4363441  93.0316067  18.2238543  51.7500162  92.5495148
  44.2634153   9.0748000  77.1462965  44.2469406  10.0208926  77.2907591
  43.4176445   8.7678730  77.4729538 115.7729912  38.3917832  83.5757351
 116.2927151  38.4887385  82.7777863 116.4014530  38.5142541  84.2872620
  32.6382685  25.4296327  94.6189117  32.0665193  25.6610894  93.8869572
  32.6541877  24.4725657  94.6170521  43.7267590  28.1200695  67.5444555
  43.2262230  27.7728176  66.8061352  43.1843328  27.9331064  68.3106422
  44.0690708  29.9489474  70.2686787  43.9979982  30.6065536  69.5767736
  43.3522654  29.3390942  70.0940371 115.7302513  67.2576761  94.1860008
 115.3101403  66.5203524  93.7431812 116.5985943  67.3134089  93.7871265
 106.8954372  95.0777626  38.9567065 107.1910763  95.0487518  38.0467701
 105.9605885  94.8771572  38.9113116   7.4169302   6.1296183  70.4119492
   6.5691596   6.3448405  70.0231123   7.2306281   5.4015219  71.0047388
  34.8651600  28.1309605  84.8438931  34.2120028  27.4758172  84.5981216
  35.5747366  28.0101848  84.2129040  22.2255731  18.8033140  77.7221441
  22.5244761  19.6588278  77.4139500  21.9231629  18.3562183  76.9316483
  97.8042603  90.9734535   1.1230391  97.5520039  91.6263103   0.4700613
  97.2079945  91.1252785   1.8562819  27.8413677  41.8395853  75.7769299
  27.2602177  41.1820364  76.1591959  28.6214089  41.8211746  76.3313961
 102.6351357  82.7700043   3.9426842 102.7878475  81.8286037   3.8609728
 101.6821003  82.8573990   3.9604342  68.1579971  34.5937681  84.3728733
  68.1147480  33.7756538  83.8778496  68.9907408  34.9874830  84.1125679
  87.1360588 106.9306946  14.6622503  87.6632404 106.1355019  14.7396219
  86.4349079 106.6950607  14.0547180  59.2782879  57.0136070  16.2862825
  59.7018337  56.2147903  15.9720576  59.1224861  57.5292444  15.4950356
  43.4870195  30.8186984  83.9528275  43.3464766  30.0206637  84.4623566
  44.1086006  31.3283515  84.4725609  95.9325123 101.9656563   1.2298516
  96.4391613 102.6879978   1.6010313  96.5672779 101.4677906   0.7146530
  94.0636158  96.1201859   6.6472590  94.0921593  97.0035839   6.2798095
  93.4599113  96.1878586   7.3869812  94.1048717  12.8315198  -0.1738211
  93.5436058  13.5655606  -0.4236010  94.4509125  13.0758667   0.6845419
  96.0628223  74.6032381   1.3308993  95.6342602  73.8012886   1.0318418
  96.3688850  75.0249815   0.5279705  88.0745888  99.3729115   0.8199397
  87.6105690  98.5416031   0.7206528  88.8650322  99.1488171   1.3110831
  64.0027142  78.8478279  36.0417199  64.2143488  77.9145098  36.0606670
  64.0898371  79.0945292  35.1209712  13.6812222 108.0548000  76.6844654
  13.0794978 107.6091194  77.2807264  13.1133413 108.4548378  76.0258961
  32.4969363  54.4539690  89.2622662  32.7545166  55.3699684  89.3663502
  33.1506944  53.9632559  89.7602940  63.6748123  49.0509844  89.7531986
  63.1146383  49.8144627  89.6133995  64.1146469  48.9196110  88.9132500
  12.7147222  46.6172934  81.2607479  12.4723566  46.6820621  80.3370094
  12.8364193  47.5245428  81.5406132 111.9094276  30.2423382  51.4511395
 111.0133457  29.9058056  51.4534712 111.9021797  30.9473610  52.0985365
  41.8465471  92.8754139  14.2487419  41.0524464  93.3583832  14.4775963
  41.5963650  92.3492336  13.4892845  43.7083244  74.4615412  89.2206192
  43.0789328  73.7569046  89.3741989  43.4015417  74.8863363  88.4195805
  14.6755195   6.3040638  46.8868494  14.3145800   7.1095091  47.2572708
  15.5962896   6.3118070  47.1482944  32.1394658  40.4094744  88.0803490
  31.3882494  40.9848785  88.2246208  32.7352071  40.6076431  88.8028812
  82.0332813  92.6077461  15.0171006  81.9509983  93.5088444  14.7048724
  82.6651669  92.2047043  14.4216955  64.4398260  45.9921646  90.4403400
  63.6970186  46.1489248  89.8573303  64.4548893  46.7542648  91.0193062
  37.1252966   0.3544769   8.6910558  36.6308069  -0.4197389   8.4221679
  36.6757941   1.0851582   8.2664585  33.8295150 107.0459270  65.7473755
  34.6075392 107.5482655  65.5053806  34.1264534 106.4684296  66.4506245
  41.7633867  36.3410282  11.3654995  42.6797009  36.2913156  11.6377652
  41.2706661  36.3636756  12.1858346  65.9649277  20.4065061  89.2049694
  65.2210045  20.5969524  88.6335373  66.6958666  20.8852959  88.8141632
  23.4319043  69.7145796  82.6787281  22.9794717  69.7521448  81.8360424
  24.3299389  69.4678259  82.4576378  44.6957350  75.2977228  92.5193405
  44.2925549  74.9898767  91.7076015  45.6148005  75.0415325  92.4424362
  55.9274101  35.6661129  74.8531723  55.8060026  35.4182744  75.7697248
  55.5494833  34.9402213  74.3566942  15.5008078   3.8637149   3.0226529
  16.1525977   3.2556307   3.3714166  14.6590710   3.4625685   3.2389688
  55.8060884  36.7852879  92.6068783  56.2318659  36.0083103  92.9691696
  56.4370108  37.1319246  91.9759941  84.5687008  47.9931164  93.3352757
  85.2530861  48.6297274  93.1289291  84.9823570  47.1418762  93.1920719
  18.1283116  13.0683208   3.5800341  18.4154046  12.2276545   3.9365318
  17.4132419  12.8442705   2.9844603  50.4952240  68.6452627  87.7646351
  51.1630869  68.2491875  88.3243752  50.9138203  69.4300556  87.4109173
  11.7965317   0.4445246  27.3053169  10.9715998   0.7925697  26.9668126
  11.5357673  -0.1401281  28.0169439 115.5064201  11.1769474   4.8424539
 114.6382141  10.9948730   5.2020180 116.0067177  11.5161932   5.5846488
 114.3318748   5.7735610  12.3062050 114.5464897   4.9039873  12.6438594
 113.8192463   5.6038004  11.5158701  73.0316305 100.3953838  28.9286852
  72.6305056  99.5292091  28.9999533  73.5716295 100.3450966  28.1399488
  45.5644274  21.7082834  79.4741678  46.3066769  22.2024369  79.8221779
  45.6891870  20.8205771  79.8097944  75.2002239  79.3568325  27.7390027
  75.3204250  79.7639990  26.8810987  75.7452679  78.5705280  27.7094221
  72.6020765  77.8203583  20.5969214  73.2674408  77.2153234  20.9247160
  72.9540062  78.1352139  19.7643077  65.4028606  75.5840063   4.5036831
  65.3859997  74.9904728   5.2544588  64.8730135  75.1442575   3.8387674
  20.2952266  74.7892094  79.6841764  20.7582402  75.5248737  79.2833710
  20.9627938  74.3397856  80.2024460 109.8659515  93.3134174  17.2549391
 110.5871391  93.2515240  16.6286194 109.2320824  92.6616669  16.9554996
  99.8206615  94.4256306   3.9438280  99.1609955  94.3241596   3.2576990
  99.3166924  94.6229839   4.7333175 101.9968414  98.5865688   5.9724677
 101.2138271  98.1537914   5.6321573 102.6994801  98.3061981   5.3860188
 104.9631214 104.6519661  18.4690154 105.3079891 104.7255993  17.5791395
 104.3187237 105.3566647  18.5352302  81.8931198  77.0555878  74.2063808
  82.5591373  77.2513390  74.8654222  81.9918537  77.7481318  73.5530329
  15.1429915  20.8002281   6.6959310  14.8644781  21.3071346   5.9332335
  14.8744631  21.3299227   7.4466294  30.9522057  72.1262598  85.7452106
  31.4056349  71.2850094  85.6910133  30.3343272  72.0191622  86.4683914
  39.5422173  46.6480780  56.5868235  40.2877283  47.2381496  56.6975498
  38.7745619  47.2136402  56.6709375  71.1607170  87.5541973   0.9075486
  71.9266558  87.0856190   1.2392235  71.4970779  88.0792141   0.1812869
  93.6933613 108.1998634   2.2483253  93.5409546 107.8631973   1.3653417
  94.6421909 108.1486511   2.3637310 101.3662529  64.8437452   4.7100255
 101.0967636  65.6580257   4.2851114 100.5511856  64.4631815   5.0372291
  53.9619780 103.1831837  73.1869221  54.7604990 103.7057590  73.2611132
  54.2715883 102.2997284  72.9872131   8.9811802 108.3039951   2.0115238
   8.4998661 107.7230167   1.4224294   8.7550336 109.1858292   1.7157859
 109.2456436   4.8256305  14.5230925 108.3930588   4.9434680  14.1042173
 109.8216534   4.5346600  13.8161445  39.3934846  20.8341837   6.3315850
  38.5807228  20.7756376   5.8293664  39.5446110  21.7738152   6.4339703
  46.9794559  63.4702587  82.8968334  47.7489471  63.9302015  83.2323456
  46.5853739  64.0835905  82.2765446   9.1013771  16.7037237  27.0988989
   9.8059100  16.0954618  27.3222446   9.0516382  16.6722190  26.1435103
  76.4410591 100.1090908  35.5035806  76.5276814 100.5287361  34.6476436
  75.9904194 100.7580376  36.0439801  63.1856203  72.9196835  32.2245169
  63.3992910  72.1466923  31.7019629  62.6999235  73.4868622  31.6256499
 110.1455784  85.9025288   6.6391850 109.7441387  85.1346016   6.2325335
 110.5917549  85.5581379   7.4128461 113.9587593   3.8602239   1.2214686
 114.1099262   3.7156168   0.2874094 114.2945671   3.0695260   1.6436765
  35.8413792  25.6357908  91.9540882  35.8080459  25.8402681  92.8885937
  34.9238801  25.6025100  91.6833115   1.1107774 101.8309498   0.6516577
   0.3945092 101.5642166   0.0754258   0.7273280 102.5031471   1.2149981
 100.5655193  77.5126648   4.1495991 100.6169701  76.5803337   4.3601945
 100.4921913  77.9465342   4.9996650  93.6848164  87.3085308  19.0125179
  93.9441872  88.1532383  19.3805325  94.4467258  86.7448139  19.1464639
 112.0114136   0.7651860   8.4436148 111.1575699   0.9839910   8.0703861
 111.8832397  -0.0928310   8.8481009  54.2700148  61.1111927  86.3380146
  54.1892719  60.9276247  85.4020596  54.8722553  60.4415989  86.6623402
  97.8808308  99.0979767  21.5015554  98.0861855  98.8589954  20.5977011
  98.7102604  99.0007782  21.9693470  27.5273044   0.4139603  44.3500900
  27.9982956  -0.2887927  43.9022779  27.5681217   0.1771439  45.2766323
  75.5166721   9.8274678  73.9623260  75.1979017  10.7243204  73.8609743
  74.7637892   9.3424159  74.3001509  63.3351660  35.1612425  91.1498547
  63.1592560  35.8176088  90.4757118  63.9130688  34.5286155  90.7231903
  83.7437820  86.3629913  27.8084373  83.5554695  86.8514347  28.6098027
  83.7064075  85.4440308  28.0736828 110.7166100  16.4065015  32.9015613
 110.3307819  15.6858289  32.4035668 110.5396938  17.1846294  32.3729324
  91.6265392  87.6258278  39.9540162  92.1419239  86.8306637  39.8186564
  90.8768559  87.5281715  39.3669248  37.1890616  61.1859417  81.2317371
  36.9282293  62.0916891  81.0649300  36.6105556  60.8961344  81.9371223
   9.7799098  83.2479572  21.2998462  10.6424797  83.6480522  21.1896873
   9.9047059  82.5956821  21.9891882  31.7793202  24.2082071  18.1144154
  31.3220000  24.8143840  18.6972010  32.2430301  23.6132836  18.7037122
  62.4651101 109.8749038  17.1622860  61.5480950 110.0109329  16.9239223
  62.4832871 109.0028407  17.5565028  49.2720032  76.0363436  87.1118450
  48.9347076  76.5810204  87.8230381  48.4918499  75.7606792  86.6306019
 109.1755772  22.8084302  31.2529612 110.1090431  23.0146146  31.2043691
 108.7441254  23.5496593  30.8279228  24.6033835  43.2982874  54.0737486
  24.5719504  42.4657297  53.6024809  23.7002158  43.6150742  54.0608215
  26.5505219  51.0850334  80.7637882  25.9010077  51.1310148  81.4653873
  26.6053557  51.9801426  80.4291153 106.1934471  61.3921118  12.5798762
 107.1339226  61.2160540  12.5526798 105.8808613  61.1595583  11.7055547
  91.0931301 105.2958584  40.6823444  91.1460495 104.8878384  39.8180819
  92.0050907 105.4341125  40.9381819  64.6219540  48.1797934  87.4670792
  64.6770954  48.4445333  86.5488720  65.5308628  48.0333042  87.7291107
  38.8320708  21.7758489  87.7964497  39.0071940  22.7157235  87.7495384
  38.0504775  21.6506910  87.2582245  41.2845278  22.2483754  46.4337921
  41.5783930  21.6389108  45.7567215  41.9169855  22.1403718  47.1441174
  52.7270889  80.4424953  76.2156105  52.9195118  80.0929070  75.3455591
  51.7733145  80.5206299  76.2367773  87.4676895  85.0050735  17.4079406
  87.0667648  85.8512974  17.2094429  86.7531013  84.3745518  17.3182261
  91.8044758 107.5028992  19.7989380  92.7409267 107.3207664  19.7208118
  91.6856480 108.3417797  19.3535256  40.8486128  57.0721006  89.6485138
  40.7154560  57.6667023  90.3867245  40.4772854  57.5354576  88.8977528
   6.2260848  35.9639907  29.8647571   5.4810405  35.7188272  29.3160915
   6.9869626  35.8691311  29.2917848  19.0912616   2.3494962  19.1859329
  19.2030942   2.3924404  20.1356077  18.7354696   3.2055873  18.9477086
  65.1918936  86.1316776  75.5431557  65.2832842  85.2795124  75.1169014
  66.0388136  86.5576744  75.4109240  35.3868365   5.2179897  32.4691820
  35.5633497   4.3760571  32.8889728  34.6057940   5.0618500  31.9383121
  26.6351104  36.0949683  80.3912163  26.6038489  37.0471263  80.4842186
  27.5678897  35.8820319  80.4197025  20.5369759   3.3489335  22.2309923
  20.0863743   4.1339597  21.9196630  19.9303031   2.9580313  22.8597808
   4.4391927  14.7897387  15.1434433   5.3703141  14.6112955  15.0115216
   3.9913768  14.1014111  14.6516120  83.1371307 101.3838577  19.4150901
  82.5204849 101.6001034  18.7156463  83.0131340 100.4462147  19.5622933
  48.4122276  83.4630966  79.6413374  48.6664581  84.3636036  79.8430347
  49.1898632  83.0798435  79.2355919   2.8999762  18.5522675   0.8123553
   2.4806361  18.2769656  -0.0028741   3.8232998  18.3293843   0.6938995
  27.2702122  48.7968731  41.4094400  27.0247459  49.5963240  41.8751192
  26.6745806  48.1291580  41.7494535  67.2282267  47.9430437  87.9650021
  67.8034163  47.3893118  87.4370193  67.8248692  48.4992599  88.4658718
  95.7348537 107.9762936   6.0834807  95.4070759 107.1577644   5.7109296
  95.9928989 107.7467346   6.9762003  41.8324327  63.1039429  77.5630283
  42.3050404  63.5755014  78.2489586  40.9568739  62.9683161  77.9253006
  36.3167214  84.6719074  78.7404108  35.4201794  84.7781086  78.4223461
  36.7102456  85.5388451  78.6414385  73.5585117  94.9279594  17.4548757
  74.3893147  94.4603252  17.3693538  73.5591936  95.5521393  16.7291844
  11.9775558   8.2004035  14.2865491  11.6443598   8.6212134  13.4940016
  11.1927485   7.9132330  14.7532856  82.6559734  57.4759340  92.5735378
  82.9750538  57.9900360  91.8318462  82.3737144  56.6471195  92.1867275
  61.0040760 100.5408573  28.7735271  60.7430744 100.4872513  29.6928954
  60.4069471  99.9459362  28.3199501  42.0578051  11.8980551  23.3632064
  41.5846109  11.6006720  24.1403079  42.9563618  11.5981317  23.5005641
  11.7290258 102.0894909   3.8229811  12.5610232 101.6165352   3.8410112
  11.2517738 101.7637634   4.5861125  47.7742529  29.6717215  70.0470400
  47.5422859  30.5967236  70.1294661  47.6486063  29.4750834  69.1187191
  34.2216516  22.0189548   8.8881391  34.0024376  21.1176896   9.1245681
  33.7194586  22.5562072   9.5008320  85.6101894 101.1211014  12.0689154
  84.9518108 101.5517712  12.6141703  85.2673721 101.1925697  11.1780715
  34.2104077  51.8153858  95.0378513  33.7706423  52.5674009  94.6412182
  33.5329723  51.1410284  95.0883770  92.3275566  60.2891350  20.7910633
  92.2830677  60.9188604  20.0715494  91.7798233  60.6704044  21.4772534
  84.8127651  34.6859431  13.9105892  84.1059208  34.4663477  13.3036447
  85.0867939  35.5655527  13.6509287  92.8194427  88.4298992   8.4332305
  92.8078270  87.8919506   7.6415801  92.1966648  88.0033588   9.0218180
  44.9551058   0.6679221   1.7727469  45.2372837  -0.1266664   1.3197166
  45.7161570   0.9319283   2.2897902  30.5396700  41.0293150  81.5001678
  31.4367819  41.2973881  81.3012791  30.5094862  40.9841442  82.4558258
  21.1686420  10.0442052   5.1318479  21.9570494   9.9979275   5.6726861
  21.2744188  10.8477080   4.6225080  51.8944550  21.0250187  81.1458683
  51.9740152  20.4020739  81.8682575  52.0380449  20.4990530  80.3591251
 105.1834011 103.5603809  29.2787838 104.6491528 103.7331867  28.5035753
 104.6277046 103.0154800  29.8360252  27.9422832  23.2029033  92.3422050
  28.3347702  23.5624456  93.1377697  27.1882343  23.7671256  92.1710491
 116.0476875  11.9634795  32.4456573 115.5635929  12.4479949  33.1143308
 115.5356216  12.0825958  31.6457653   7.4229211  12.0048940   4.6006462
   7.9130656  12.4502337   5.2917773   6.6698456  11.6213834   5.0501233
  85.7301998   5.4963768   1.7404489  85.1646423   5.1327854   2.4217518
  86.1909580   4.7379461   1.3816740  98.1950569  48.6479378  16.8566513
  98.2894897  48.7940645  17.7979064  98.9918613  49.0171337  16.4758265
  93.0150890  96.6289902  42.3963165  92.5377846  97.0665455  41.6913652
  93.8719082  96.4308262  42.0184040  14.7236478  15.6055617   7.3841381
  15.5783319  15.3946018   7.7599591  14.9145555  16.2476063   6.7003512
  53.5708809  51.6875315  93.5692883  53.0488777  52.4360895  93.8580894
  53.8543892  51.9200850  92.6851082  81.9395065  21.3956738  15.4190266
  81.7768002  22.0699453  16.0786593  81.7489815  20.5714822  15.8669567
   3.8400180   0.7647313   7.0257330   3.7543209  -0.1604759   6.7958128
   4.0355594   1.2005509   6.1962390  22.2686911  57.4649477  72.9860115
  22.1112943  58.4057760  72.9066420  22.8290009  57.2520494  72.2397137
  56.6583014  21.3465571  89.7837448  56.5693092  21.2092972  90.7268715
  55.9726620  21.9786692  89.5679569  86.7090893  81.7965889  12.0356178
  86.7787361  81.2862110  12.8424025  87.5622272  82.2213745  11.9465172
  78.2757950  87.7163696  14.0691280  77.8280687  88.3404922  13.4979534
  78.7158251  87.1149254  13.4683955  21.1146212  20.1921034  11.6281247
  20.7008433  20.3520894  10.7799363  21.7818213  20.8745027  11.7016494
   6.3762456   9.1044843  12.9002047   6.4872211   9.4649208  12.0204306
   5.7060939   9.6569407  13.3025980   6.3075465  23.5805249  86.5533352
   6.7079246  24.2117476  85.9554291   6.7201644  22.7457285  86.3317680
  51.4724112   2.2826034  13.8774252  52.0336199   1.5144777  13.7713218
  50.5812359   1.9361922  13.8322926 100.4000378  29.4944215  20.9816408
 100.0486279  30.2038622  21.5196347  99.8552227  29.4982171  20.1946259
  33.5266376  22.7022099  82.9588985  33.5650086  23.6483145  83.0990601
  32.6839066  22.5578213  82.5285625  39.4334936  64.7980165  85.9741783
  38.9632583  64.5694876  85.1723862  39.0788817  64.2054176  86.6369820
  35.9475017  68.4956169  65.8954954  36.2916040  68.8938141  66.6950369
  34.9980950  68.5929537  65.9688807  35.7960439  16.9015205  92.3964405
  35.6174946  17.8279400  92.5580025  35.3224635  16.4418733  93.0897522
  32.6336265  28.4625030  16.9722474  32.7026701  27.5270605  17.1630681
  32.5992608  28.8805604  17.8326428  78.2385063  95.4060173   8.5163009
  78.7678337  96.1999226   8.5922039  78.8578463  94.6905422   8.6603016
  57.2235346  56.6909409  87.4065399  58.0871630  56.4091825  87.1048832
  56.8999529  57.2602510  86.7083836  97.7775955 109.1022682  12.3257756
  96.9143105 108.9936733  11.9268167  98.3310127 109.4256878  11.6148865
  83.2715893  84.5284462  24.7463632  83.0432796  83.6119175  24.9015760
  82.4372005  84.9948692  24.7961593  18.5982347  87.5015450  26.8363595
  17.9629564  86.7893696  26.9102120  19.2610490  87.1694279  26.2308788
  82.0996189 107.3054600   3.7983096  82.9146004 106.8119621   3.7061435
  82.0711803 107.8676510   3.0241215  86.4719486 102.0666695   4.8041356
  86.0005283 101.5712452   4.1344050  87.2446060 101.5351582   4.9957675
  55.1198626  47.0072174  91.1956215  55.2864742  46.7772245  92.1097183
  55.8902836  47.5097799  90.9308434  22.6485491  10.5963898  11.6677153
  21.9944191  11.2810051  11.5275419  23.4885931  11.0500789  11.5989852
  43.4846020  57.9425907  92.2144127  42.6658678  58.3986425  92.0196533
  43.2094336  57.0926762  92.5581551  97.9179096  87.9403400  17.1093011
  98.4086323  88.3633327  17.8139269  98.4928989  88.0019283  16.3465250
  48.2660675  65.6572533  83.6698055  48.3781481  65.8788252  84.5942402
  47.7288914  66.3665819  83.3169174  24.9468374  39.6084547  88.7599945
  25.8158135  39.9278975  89.0030384  24.3819237  40.3784895  88.8244057
  47.6128721  76.6171265  91.5407276  46.8518066  76.5147018  90.9693050
  47.3224401  77.2262764  92.2195721  68.7186337  87.4830914  51.4407063
  68.9029264  86.5770531  51.1930037  68.1614637  87.8152370  50.7368135
  98.4624958  85.3168297  18.5667717  98.2988453  86.0118008  17.9292202
  99.1158485  85.6859398  19.1610122  43.7820864  37.4031615  70.4642534
  43.3162355  38.0711365  70.9672689  43.1087351  36.7623258  70.2358723
 108.3298016  12.0461011   5.5536270 108.2495403  11.7544436   6.4617717
 108.0732155  11.2843633   5.0338656  12.2593510  11.2984478  30.9489465
  13.0517220  11.2646496  31.4848924  12.2750902  12.1697068  30.5528522
  71.4893579  70.7957840  12.2492278  71.6959286  70.5814028  13.1589532
  72.1771193  70.3669548  11.7399919   1.1154345 108.9693149  11.1650014
   0.5097178 108.4923977  11.7323542   1.0574940 109.8773205  11.4623237
  44.3898392  37.4324822  80.7814693  45.3334522  37.5923562  80.7651997
  44.2225790  37.0744133  81.6532707  11.2222636  29.9456763  14.7561669
  11.9415772  30.5544615  14.9240935  10.4985046  30.5030894  14.4703436
  94.1262913 101.0437584   5.3926122  93.9845371 101.3682175   4.5033053
  93.7701893 101.7296410   5.9574080  87.6325607   6.1462480  94.2417908
  87.9987335   6.4849234  95.0587654  88.3957005   5.8754760  93.7313652
  28.3050132  71.9223309  79.2861795  27.6853728  72.1722269  79.9716187
  28.9166141  71.3282394  79.7211933  19.9034369  16.0501671   2.2326575
  20.6968331  15.5438817   2.0582128  20.1494908  16.9549358   2.0400868
  22.0100307  33.3430481  11.6613364  22.4147987  34.1948438  11.4974999
  21.2045908  33.3571935  11.1443269  52.2974205  64.5637941  93.1874847
  52.5601292  63.7497902  92.7578068  51.5397644  64.8654652  92.6863003
  86.6686058 102.1752739  26.2716007  86.6414738 102.5025082  25.3724837
  86.0370350 102.7182961  26.7432761  75.9942675  70.7207870  64.9359941
  75.6822157  70.0052738  64.3820143  76.8182373  70.9940720  64.5327330
  30.4902101  86.6037560  68.3723593  31.3627815  86.4371681  68.0158472
  29.8931503  86.3814545  67.6579857  57.5284100  50.6202269  91.4290428
  56.9794178  51.0490656  90.7725906  58.2034254  51.2665653  91.6359997
  68.4491062  95.1181412  65.4879045  68.5616589  94.3990993  66.1096287
  67.7054167  94.8527622  64.9468613  44.1130972   1.0121017  34.5415568
  45.0013447   1.2895811  34.3173933  44.0077543   0.1682056  34.1022682
  54.2459965   5.7021636   2.2896953  54.3014622   5.2047092   3.1055963
  54.5025682   6.5915227   2.5335044   5.5781305   1.7465913   9.1491520
   5.4993880   0.9815923   9.7190714   5.1310241   1.4911665   8.3422536
  55.3089142   8.9413190   6.9974226  55.3699112   8.0593967   6.6303742
  56.2185192   9.2173874   7.1098602   9.3803841   8.9475888  13.8282764
   9.4676149   9.5875716  14.5347071   8.5408622   8.5192394  13.9954650
 112.2950172  96.2092590  31.0198212 112.5826073  96.7754555  30.3036237
 111.5090084  96.6355991  31.3613605  26.6355515   0.5805281  16.7680502
  26.0452008   1.3234389  16.8937576  27.2731972   0.8876767  16.1236131
  17.8945231  10.7809210   1.6705851  17.5552535   9.8922276   1.7771350
  17.5529826  11.0677385   0.8236395  69.8596811  90.8612633  75.8181238
  70.1599646  91.4905643  76.4738989  70.0393152  90.0054836  76.2074995
  85.0819492 107.1956062   4.0838385  85.5033684 107.3494816   4.9293885
  85.1082706 106.2452602   3.9725274  27.8545237  13.3657312   5.2398288
  27.1739769  12.6935196   5.2048975  27.3953414  14.1570365   5.5212855
  56.6130924   4.5357803   6.4528638  56.2702894   3.7280539   6.8353486
  57.1057081   4.2468014   5.6847137 108.6913204 109.3807125  11.6310632
 108.7423515 108.5537815  11.1516833 107.8703117 109.7766781  11.3388717
  89.6834278  99.7934532  44.1524220  89.9830055  99.6119976  45.0432396
  90.0820351 100.6354618  43.9325237  32.3905611  44.3693209  15.2722514
  33.2116389  44.1322231  15.7033503  31.9052529  43.5464525  15.2122152
  52.7196789   8.9343351   3.4036076  53.5566854   9.3877041   3.5041487
  52.7113914   8.2874882   4.1091233   5.2935249  99.1190243  27.3970866
   4.8880744  98.9940071  26.5390587   4.6803454  98.7172508  28.0125713
  68.9861536  97.3749065  77.5343323  68.3607626  97.7495575  78.1546164
  69.1058588  96.4725590  77.8304291  94.0492153  92.8511715  16.4184690
  93.9937973  91.9335175  16.1518872  93.4977055  93.3169174  15.7898653
  74.0499496  73.7138939  89.0090847  74.6950102  73.0083466  88.9608574
  73.4621334  73.5518503  88.2712173  91.2285519  77.0528555   5.6584227
  91.3262463  77.0915985   6.6098350  90.7758522  76.2249374   5.4976553
 101.4855385 107.0998001  11.7160153 101.0033703 106.2784672  11.6203237
 101.5528202 107.2292137  12.6620376  89.1014142  75.9295392  94.5991152
  89.8619409  76.1707664  94.0703062  88.6835142  75.2216482  94.1087227
  77.5693512  96.1938858  29.0911126  77.6233864  95.7804489  28.2294965
  77.9759741  97.0520496  28.9709139  41.9309664  80.5017948  79.7123766
  41.3149691  80.9159851  80.3167152  42.1360302  81.1848354  79.0739107
  43.8858128   7.7968192   3.7462083  44.2661095   8.6312801   3.4718361
  44.6055317   7.1700150   3.6730403  75.2758169  89.3797684  90.1538372
  74.5688629  88.9698219  89.6554470  75.9101295  89.6515751  89.4905186
 113.6809635  20.0631976   2.2022878 114.6212864  19.9269450   2.3183355
 113.4606266  19.5584238   1.4194170 111.4346886   5.1262927   4.0683803
 110.5942535   4.9110422   3.6639395 112.0753765   4.6112388   3.5780019
  44.2875671 106.3102913  94.3299484  44.4251633 106.6185951  95.2256298
  44.8733330 106.8493652  93.7984467  46.5425682  74.4912529  72.0884085
  45.7987452  74.8587513  71.6110134  46.2419319  73.6280632  72.3725796
  28.9989734  18.9583552   8.0651951  28.6839175  18.0938566   7.8013504
  29.5520115  18.7892139   8.8279355  77.7894449  68.8849831  79.1182995
  78.0909681  69.7234821  79.4679165  78.3979082  68.6899281  78.4055853
  44.4094896  20.6623697   9.8785764  44.2509127  20.4560351   8.9574301
  45.2119827  20.1878810  10.0955963  55.9363937  86.4340019  60.4612637
  56.5074348  87.0854855  60.0541830  55.1165199  86.4943695  59.9709702
  47.4610710  66.1464500  73.0589437  48.2848692  66.6274500  72.9800272
  46.7851257  66.7954683  72.8637218  11.6887307   2.6066458  19.1847944
  11.7771125   2.8128570  18.2542574  11.1644208   1.8060437  19.2039526
 116.3446426  35.2275753  22.8799772 116.3611317  34.4365597  22.3412251
 115.4601192  35.2502608  23.2451296   4.7542903  49.5464277  19.9400949
   4.5651770  50.4094648  19.5718038   4.3239227  48.9325285  19.3449974
   3.1728125  48.5962582  53.8517570   2.9286689  49.4416189  53.4749365
   4.0119624  48.7593699  54.2824030   9.2662072   6.7688632  11.4821374
   9.2736793   7.0686281  10.5731165   9.1667551   7.5693315  11.9974935
 100.3516769 105.6184769  22.7163458 100.3670979 106.4757633  23.1418419
 101.1055756 105.1558781  23.0822396  26.7395377  74.5183706  78.6580324
  27.0827866  75.3965473  78.4930420  27.5179935  73.9795160  78.7990046
  28.5115790  35.4124761  21.3374782  29.1036701  34.7830057  21.7490911
  27.6913786  34.9319100  21.2254071  71.6469336  97.3348713  69.6121550
  71.3418865  96.6918850  68.9720440  72.3023224  97.8494549  69.1410923
  24.4334507   0.1300561  44.3811893  24.1523218   1.0430515  44.4415045
  25.3194404   0.1755063  44.0217638  31.3853955  17.0545721  28.9266062
  31.6073370  17.6020515  29.6797585  30.7038879  17.5447524  28.4667134
  71.2987518  89.6811581  90.0160980  70.7286167  89.9384689  89.2915535
  71.0607719  90.2728271  90.7299042  64.2781878  87.4436665  87.9833794
  65.0940752  87.2833252  87.5092030  64.0097237  88.3203602  87.7084923
  50.0285339  28.4751725  10.1749325  49.4931602  27.6857495  10.0947964
  50.4946089  28.5341620   9.3409514  84.6878147 107.1948051   9.8937178
  85.2064800 107.6257324   9.2143673  85.3216267 106.6688633  10.3814685
  24.5736217  26.3612485  18.5125697  25.3239346  26.6164398  17.9757822
  23.8503313  26.8939209  18.1818986 101.7196083  43.5213184  16.0590756
 101.1032581  42.8311539  15.8141112 101.5494442  44.2269468  15.4350805
  33.6138582  51.9955397  83.3090973  33.5814357  51.1444330  83.7458992
  34.1500902  51.8449545  82.5306225  85.6197643  69.6569681  72.7567053
  85.8014488  70.4479408  73.2642365  84.6834469  69.7058582  72.5639629
  74.1612148 106.8942928   4.1559058  74.9711418 106.9173336   3.6462763
  74.4492960 106.7484474   5.0569993  86.6409397  91.8728638  17.2253060
  87.3474693  91.2441444  17.3728013  86.5452003  91.9066334  16.2735045
 101.0984612  51.1167955  47.3310566 101.1299515  51.3278103  48.2641745
 100.2397919  50.7128048  47.2056961  49.8723507  20.7478070   4.5519519
  49.3342543  21.2526417   5.1617289  49.5425940  20.9880781   3.6860639
  99.8618984  11.6224301   2.4149612 100.6948757  12.0927370   2.3803844
  99.6063137  11.5202403   1.4981933  52.2967577  77.8945160  90.2038956
  52.6690722  77.2454834  90.8008671  52.6028872  78.7355423  90.5432987
  61.5544319  87.6203251  90.8687019  62.3200941  87.0484924  90.9234715
  61.5001678  88.0312347  91.7315197  15.0198793  37.8779054   5.7162184
  14.2387426  37.3333311   5.8136696  14.6950793  38.7760949   5.7793933
  33.8074350  17.5955951   0.5415714  33.9598966  18.3215296  -0.0634127
  32.8636932  17.4416924   0.4980227  11.0398412  86.4828491  28.5853028
  11.3733292  86.5895939  27.6944470  10.1546717  86.1373234  28.4698939
  57.0895720  15.0845206  36.1805320  56.7339325  15.4189146  37.0038986
  58.0229139  14.9628925  36.3546276  29.3018675  57.2723436  79.7307587
  29.0883112  56.9911766  80.6204605  29.9085641  56.6059685  79.4081163
  90.4825211  65.5042934  84.1506004  91.3686562  65.4703236  84.5109653
  90.3495884  64.6406412  83.7598801  63.2291317  33.5003877  93.7352180
  63.0314350  33.8744640  92.8766060  62.9102278  34.1520739  94.3595886
  12.1918035  11.8953526  13.2775891  12.2196984  12.8100061  12.9967642
  13.0941284  11.6930950  13.5248446  26.5189028  19.7398877  15.0891435
  25.9249997  19.8859060  15.8254778  26.6183829  20.6027603  14.6869147
  90.5733395  77.7492952  69.1881990  91.5245724  77.8161669  69.2714643
  90.2957153  78.6209440  68.9064503  48.2517385  78.8062859  81.1095238
  48.3797073  78.0458260  80.5424690  47.9380512  79.4934034  80.5215645
  46.7940331   8.9702827   8.0482721  45.9807014   9.4694895   7.9740059
  46.9466829   8.8999301   8.9905989  22.7536893  12.6992452   6.7861062
  22.7233410  11.7962646   7.1022344  22.0316195  12.7583969   6.1605281
  93.2121754  90.7734871  14.4946182  94.1375446  90.5553913  14.3834519
  93.0775738  91.5385914  13.9353931  51.2239456  77.2625971  80.3200340
  52.1593285  77.4275160  80.2013302  50.8083487  77.6910353  79.5717382
  83.8341808  91.1688232  12.9679251  83.9233589  91.6042519  12.1201742
  83.7186337  90.2437115  12.7510393  22.0861530  38.7125897  39.0956855
  22.9152822  38.4554005  38.6924100  21.4292192  38.1698632  38.6596608
  58.3257771 106.7975426  58.4561920  58.8407326 106.3737869  57.7695465
  57.4549866 106.9017982  58.0726814  51.1509562  78.6200571  93.6661625
  51.7212677  77.8822613  93.4502125  50.9105301  78.4770060  94.5815659
  56.0800457  72.5077152  84.9332237  55.5487728  72.3742676  84.1482544
  56.6522837  73.2427597  84.7130299  26.3989592  27.3770308  16.2776363
  26.3664961  28.2693434  16.6225386  26.1033893  27.4597955  15.3709829
  25.4078746  55.4343271  75.0999069  24.7464800  56.0449219  75.4254246
  24.9086475  54.6666002  74.8213482 105.1257515  16.2553680  10.2750063
 105.3237534  16.3425207   9.3425733 105.1109123  15.3108251  10.4294443
  77.1753883  66.8074131  90.3133869  76.2718534  67.0390654  90.0984478
  77.4236584  66.1672688  89.6464443  31.5377831  14.7456002   7.0178872
  31.7178607  14.7214103   7.9576844  32.1965337  14.1676581   6.6328388
 114.5399952  97.5796795  25.6865978 114.6196270  96.6671944  25.4086471
 113.8281536  97.9316044  25.1521254  51.8405056  98.3392525  93.4323597
  51.0166836  98.2411289  93.9097595  51.8695688  97.5826263  92.8467751
  28.3905745  51.8051386   0.6688984  27.5447035  51.6190720   1.0764639
  28.2600093  52.6380634   0.2156660  49.1589642  71.1765862  90.5405331
  48.5714436  71.0966587  89.7890949  49.9876928  71.4751053  90.1659298
  33.7567711  34.5693755  20.8135676  34.3576288  34.0406203  21.3385630
  33.9046621  34.2777848  19.9139357  45.6813145  65.3099060  87.5640774
  44.8587513  64.8311901  87.4618721  45.5206347  66.1546755  87.1436214
 114.6323776  90.3767776  12.2564816 113.7281322  90.6571198  12.3978436
 114.5680809  89.4368076  12.0875084  44.2757797  49.2899323  83.7549877
  43.6684704  49.9411535  84.1061497  45.1261520  49.7293520  83.7579060
  28.4345293  63.3398771  83.9696980  27.8896165  63.6501217  83.2464790
  29.3305540  63.4042501  83.6392021  90.0006771 104.2363834   0.1579064
  89.5333862 103.5671520   0.6579039  90.2160358 104.9102879   0.8026581
  11.2292206  32.7661824   2.6918191  10.8036160  33.3523250   3.3175427
  10.6021464  32.0540118   2.5660229  67.2079325  31.6096139  20.2420926
  66.6090870  32.2580695  20.6123829  68.0600071  31.8270874  20.6201196
   8.3859114  18.3264899   1.7633308   7.5189261  18.6936688   1.5908588
   8.8061432  18.2907366   0.9040607   0.8214317   6.6633809  10.1780820
   0.2917678   6.9074345   9.4190526   0.4139384   7.1229321  10.9122443
  73.2506371  70.8561897  90.3125095  73.6532307  69.9940014  90.4162979
  73.0123568  70.8993483  89.3864441  25.9790492  31.4075303  23.0188513
  25.9755874  31.8657660  23.8592315  26.1105323  30.4875660  23.2482219
  50.9932756  88.9620399  82.3589516  51.3045740  89.0625858  81.4593887
  50.8836222  89.8584938  82.6760674  17.5690472  22.2772670  11.0993338
  17.8032446  21.3684940  11.2877774  18.0659080  22.7898192  11.7370260
  39.1770983  42.1516562  32.0643473  38.7414002  42.7630997  32.6581001
  39.7218370  41.6101789  32.6355696  24.6311831   7.0789361   0.8035166
  25.0393414   6.7217278   0.0148207  23.9224267   7.6329625   0.4764866
  84.1848183  92.7597618   7.2435498  83.7177658  92.0811462   7.7309662
  84.5152473  92.3111439   6.4652252  11.9528639  24.8591423   1.6080962
  11.6774011  24.1798806   2.2236885  12.7453184  25.2284527   1.9977856
  41.0374308  95.1125431  79.3488550  41.1247873  94.7868443  80.2446842
  41.3361931  94.3873596  78.8001442  21.0915828  40.6711245  58.3052588
  21.4774895  39.8408794  58.0259657  20.8888388  40.5413675  59.2317009
  13.9649355  50.5593538  19.2576361  14.1076434  51.2555313  18.6163819
  13.2755101  50.8976650  19.8290122  41.3233995  83.3280659  29.4760180
  41.9299126  82.6102924  29.2938662  41.3237762  83.4056759  30.4300666
  62.0137930  25.2771997  16.0807002  62.2635078  24.5098615  16.5955436
  61.6061687  24.9153781  15.2938330  19.4001281  40.6451511   4.3570304
  19.4546390  41.5585899   4.6379033  18.8949883  40.2126122   5.0454909
  67.0896244  79.8847914  73.7978172  67.9230309  79.9291658  74.2665339
  67.1220970  79.0503597  73.3299541  60.3865242  84.3542099  90.5113316
  61.0829210  84.7276402  91.0515308  59.8321247  83.8789272  91.1301899
  59.8370361  34.2296052  15.1186609  59.4716406  35.0220370  15.5120683
  59.2586184  34.0403724  14.3798399  34.0582585  29.4459009   3.5720420
  33.5042906  28.8659716   4.0945646  34.0105867  29.0880203   2.6855433
   7.0766717  13.0470574  83.4092712   6.4373612  13.4849858  83.9711666
   7.9245996  13.2645249  83.7965107  73.5102463  16.1598003   7.2472018
  73.2661867  16.0604894   6.3269830  73.2055569  15.3538442   7.6641291
 100.7561207  80.8406258  90.9969521 100.2308559  81.6363716  90.9125328
 100.9364700  80.7710266  91.9344234 101.8837261  73.6735725  50.3926706
 102.5740147  73.6806679  51.0557556 102.2796345  74.0957212  49.6302557
  77.5333071  38.0022240  24.8485518  77.0042086  37.8404808  25.6296563
  78.4334183  38.0381441  25.1721954  82.5664520  98.2473469  90.4772377
  82.8814888  98.8132858  91.1820030  81.6714764  98.5446262  90.3132820
 111.9203091  69.1812754  66.7587996 111.0278797  69.5238972  66.7096615
 112.1381187  68.9499569  65.8558655  85.4887295  67.6654148  88.1519890
  84.5500851  67.5035143  88.0572319  85.7003212  67.3421669  89.0277576
  55.3158617  96.5836143  78.1342697  54.4831467  96.8077946  77.7188635
  55.1413155  95.7614994  78.5924053  52.1926165  16.6354775  39.9821448
  51.4249754  16.3162446  40.4565430  51.8724585  17.3909390  39.4891858
  47.3142242  32.4135041  12.1004176  46.5191746  32.9299664  12.2323215
  47.9982424  33.0635715  11.9399285  32.3905945  10.5751419  12.3725247
  32.4131441  10.0722432  13.1866598  31.4807701  10.5177975  12.0807004
  35.3191948 106.7819500  81.0952473  35.5689931 107.7059746  81.0927200
  35.6576037 106.4446163  81.9246483  62.2038507  78.9876795  91.1176395
  62.4201155  78.8178539  90.2007866  62.0459652  79.9309969  91.1557198
  99.9014950  89.4121933  69.3460846  99.1381359  89.9861240  69.2819786
 100.0260639  89.2834377  70.2863693  68.0424213  73.0798626  90.4822540
  68.8477802  73.5582542  90.6791592  67.7892971  73.3852959  89.6111298
  39.6524906  14.3812263  11.4591682  38.8371706  14.2564058  11.9448686
  40.0033760  15.2085543  11.7887723  46.4933968  37.0096684  16.3349211
  45.6340313  37.3113036  16.0404086  47.1154451  37.5762320  15.8785319
  45.2619171  25.3383040   9.2695099  45.6912708  24.4863820   9.3476975
  44.6143866  25.2173328   8.5750306 113.6686993  24.7090769   9.0872425
 114.5030308  25.1160574   8.8538003 113.2370281  25.3528595   9.6488792
  38.8513970  21.9439554  19.0603995  39.7383523  21.5877604  19.1120327
  38.8610411  22.4985290  18.2802796  12.1345866  36.8755007  26.4356852
  12.5558412  36.3394260  25.7638216  12.1959889  37.7703381  26.1014295
  76.2894487  69.8597145  92.4738407  75.7109594  70.0485373  93.2127094
  76.2297297  70.6368399  91.9182014  55.1575708  76.1434507  84.4783497
  55.2243376  75.7736301  85.3586960  55.8726072  76.7779922  84.4302654
 104.0801334  77.5042582  73.0329847 104.2383289  77.3334694  73.9614439
 103.8323212  76.6531897  72.6717329  47.1963453  55.2024794  31.0520363
  46.4328289  55.7785702  31.0147429  47.4040937  55.0205231  30.1355386
  54.6814442  69.5984793  83.7208557  54.8758936  70.2839804  83.0817032
  54.0697718  70.0080252  84.3327045  80.3412437 100.7313633  74.8741770
  80.3582096 101.1074352  75.7542419  80.0502205  99.8289013  75.0049305
 103.5929585   3.0072111  78.7441778 103.3629990   3.2617658  77.8505611
 104.0267849   3.7786084  79.1088295  43.2783461  45.3227568   6.6643280
  43.5683203  44.5030928   7.0646995  42.6382160  45.0540972   6.0053229
  92.3353291  84.0520477  78.1074810  93.1375313  84.0885544  78.6284161
  91.6529655  84.3758869  78.6954832   2.1086706  48.1390238  15.2952206
   2.4658525  48.5602665  14.5134223   1.5039632  48.7850189  15.6602621
  28.8750386  16.2308204  40.7644987  28.1462145  16.8100452  40.9870815
  28.4814644  15.3598380  40.7123280  86.6012287  55.7089567  55.2266502
  86.6208363  55.6369925  56.1809397  87.4948025  55.5025911  54.9524832
  50.3971434  14.2552590  46.8156719  50.1540756  14.7123146  46.0105324
  51.0904264  14.7939885  47.1969414  42.4150848   6.6419125   7.6861590
  41.6274357   6.1931080   7.9934341  43.0419540   5.9381253   7.5189793
   4.4699016  28.9160013   1.2955020   4.2670092  28.0275011   1.0028665
   4.5854676  29.4141459   0.4863486  49.8271751  58.0904150  14.6908939
  49.5391846  57.2000027  14.8920500  49.6038437  58.5965919  15.4720080
   8.3957481  27.6182222  78.7490988   8.8109595  26.8197632  79.0751266
   9.1227001  28.2233095  78.6019897  55.2904749  24.9375391   5.6905657
  54.7418833  24.1550756   5.6355631  55.0088310  25.4797959   4.9537712
  15.5118346  17.0732760  54.8170376  16.4193559  17.2643530  55.0539446
  15.0911343  16.8441069  55.6457281  47.3345900  32.2717452   1.7860582
  47.5957537  33.1447840   2.0790267  46.8475103  32.4264479   0.9767032
  53.8220024  98.0371666  67.1617603  54.7735596  97.9498863  67.2179174
  53.6313152  97.9824829  66.2253428  25.5579782  40.1888657   2.6576036
  25.6991458  40.5853367   1.7978851  26.2691188  39.5546484   2.7485687
  35.7000470  25.8887577  29.3012500  35.2051044  26.7018938  29.4016314
  35.7154512  25.5078006  30.1792383  82.2813438 109.7472616  87.6382256
  81.7810436 109.0011828  87.3076153  81.7473717 110.0964146  88.3518028
  95.3787136  35.2108741  52.8957844  95.1868343  35.4296422  51.9838858
  95.9204674  35.9359813  53.2071543  48.7371016   9.9696946  37.1539712
  48.3941221   9.2311007  36.6509032  47.9632568  10.3682089  37.5521946
  54.8757076  28.3844423  16.5144670  55.6192780  28.9590096  16.3322389
  55.0426388  28.0487180  17.3951793  75.7175350  71.5505886  88.2026005
  76.2459993  71.3757086  88.9813042  75.8462620  70.7811069  87.6480198
  46.6416645  49.2319202  26.7806315  46.8211794  48.8938379  25.9033012
  47.3487616  48.8808441  27.3219180  90.9517479  74.9774027  69.0124178
  91.2448215  74.5839024  69.8343039  90.8063316  75.8989477  69.2265415
 103.2937527  98.4135914  89.0553474 104.0983582  98.0785751  89.4510651
 103.5442448  98.6422729  88.1602573  64.9848318  63.3618879  82.1632099
  64.1767263  63.8608074  82.0437336  64.7024584  62.4473333  82.1728992
   7.3056149  49.6041346   5.7804930   7.5360847  49.5255899   4.8547789
   7.9408759  50.2271080   6.1334527  80.9351540  54.4786835  55.3733778
  81.0030460  53.7304783  55.9665155  81.4102173  55.1807022  55.8180332
  60.1778507  78.1772232  71.8116856  59.2756414  78.0584383  71.5147972
  60.6481695  77.4230289  71.4564133  73.8718843  64.4035149  60.6040430
  73.6015177  64.9612045  61.3335037  73.1035042  64.3648148  60.0345469
  56.2605238  46.7236280   5.5035126  56.2879705  46.2104797   4.6959502
  55.3489733  46.6698599   5.7905900  79.6301079  72.3433733  78.4037828
  80.4181576  72.6374054  78.8606739  79.0867567  71.9547129  79.0893078
  52.0017815  83.6935616  83.7315941  52.5237989  83.5921669  82.9356956
  51.4423943  84.4502735  83.5563564  61.0445499  21.8278885  30.9540534
  60.9347582  22.5529313  31.5692687  61.6560745  21.2343931  31.3899779
  11.8698311 102.4858475  11.7813635  12.3414528 102.1404934  12.5393438
  11.9821262 103.4345436  11.8412817  54.2410040  29.6387124   1.4050527
  53.8339663  29.9954104   0.6155457  54.5491838  28.7707710   1.1444167
  24.7328234  30.4454494   6.4666241  24.3500686  31.2908721   6.7011219
  25.2128816  30.6163621   5.6563359  69.3412781  10.6034935  33.2200956
  68.5704041  11.1611283  33.1150532  69.0626097   9.9224472  33.8322663
 102.0545864  64.9796009  86.2244225 101.8101311  65.5476236  86.9550514
 101.2231731  64.7567844  85.8056831   4.5087528  15.0878811  11.6294360
   4.7048712  15.9431434  12.0119190   4.5955124  14.4738424  12.3585868
  85.7802677  84.9094868  71.9140148  84.9476147  85.1664925  71.5179348
  85.5378342  84.5417213  72.7638435  32.9369211  43.4831905  25.4458022
  33.6615705  43.6280012  24.8374057  33.2917285  42.8840971  26.1026359
  47.6974058  66.8690825  91.6403866  47.5701094  67.3889780  92.4339485
  46.9883823  66.2262917  91.6588783  33.4257770  11.6218746  15.3445911
  32.9456806  11.2351811  14.6123290  32.9134297  12.3934972  15.5861104
  68.4829521  81.1530685  89.8178387  67.7117395  81.6395855  90.1089859
  69.0066385  81.0375023  90.6106949  59.0515852   2.9777953   7.8468657
  58.5270834   2.4752641   7.2234941  59.4997454   2.3147920   8.3720464
 104.7473526  86.0675430  29.7082782 104.9417686  86.9921017  29.8619843
 105.3967094  85.7904911  29.0618944   5.6642950  98.0630875  18.7954223
   4.9366954  97.7194405  19.3138170   5.6914705  97.5027466  18.0198514
  58.3264017  75.8981705  91.7503738  58.7155199  76.0755444  92.6067352
  57.5744057  76.4884281  91.7020988   5.9072667  18.4389567  10.7228696
   6.4696628  17.9647231  10.1104593   6.4025754  19.2285633  10.9406352
  76.2690926  85.1163101  64.0312529  76.1471510  84.1687679  64.0906620
  77.1337509  85.2221203  63.6345100  67.3142147  80.4687691  78.5784531
  67.4225712  80.0494576  77.7248335  66.5257597  80.0675869  78.9440060
  13.0597126  17.8667164  15.9130991  13.8306403  18.3245158  15.5779552
  12.3189402  18.3925414  15.6114423 111.7789745  92.5872326  92.0354176
 111.8022156  93.4827614  91.6981792 112.4462795  92.5722790  92.7215099
  31.2905717  39.5333147  20.8210850  31.5965080  38.6528993  20.6031346
  32.0785379  40.0757504  20.7878661  74.5102882  98.4225845  88.8116932
  74.0594864  99.2294502  88.5627651  75.2534723  98.7162399  89.3386459
  84.0615749  69.9870396  64.4636440  84.2857265  70.0141764  65.3938341
  83.2841301  70.5403423  64.3883801  65.4607630  93.4786510  91.4396667
  65.4201031  92.7611732  90.8073616  65.6188059  93.0485821  92.2800827
  69.0460157   2.3975240  72.8390884  70.0016451   2.3703617  72.8867102
  68.7553644   2.1518925  73.7173939  92.5030422  89.5257378  47.7575350
  92.0002460  88.7363815  47.5566721  92.4010658  89.6407223  48.7023163
   5.6419986  62.7103519   1.8994837   5.7859457  61.9342136   2.4408862
   4.8737234  63.1318808   2.2845824  90.0956059  63.6741304  92.4292278
  90.7622433  62.9962635  92.5402451  90.5295944  64.3549204  91.9150066
  43.8699961  49.2934561   8.6357862  43.6792517  49.4471836   7.7104676
  43.0471182  48.9657927   8.9987445  41.4944696  27.5857615   7.2649580
  42.3386097  27.7783561   6.8568289  40.8520365  28.0169868   6.7014360
  67.2466469  76.2096977  64.3647766  66.2995958  76.2339020  64.2278862
  67.6058531  76.7306900  63.6466026  51.7585754  22.3280191  16.2232912
  51.4015293  22.3220801  17.1113884  51.1166477  21.8439484  15.7038307
  24.9698877  11.9924605  12.7884567  25.4865456  11.2582409  12.4564648
  25.6201744  12.6464963  13.0445755  87.7978230  76.4461184  81.1843014
  88.3115005  75.7752800  80.7344818  86.9309330  76.3939762  80.7817841
  38.4650660  14.9548984   3.9616671  39.0879154  14.2734289   4.2144305
  38.8765049  15.3904951   3.2152051  69.7361803  45.5637741  35.7815242
  70.0729847  44.7168875  36.0740542  68.8568926  45.3721428  35.4553890
  21.5489721  31.0846901  18.9882386  21.8007541  31.5365005  18.1828165
  21.8103600  31.6815591  19.6894193  25.3530788  16.2343407  32.3309636
  25.0464869  15.3459787  32.5127530  25.8037877  16.5008378  33.1322575
  10.9177983  18.3736479   8.9185500  11.7602527  18.8280070   8.9263105
  10.4420424  18.7637210   8.1852490  78.3942890 100.1498127  73.0242538
  78.9767408 100.1398373  73.7837839  78.9593077  99.9214554  72.2861242
  99.7869205  83.1782150  91.3784027  99.0283012  83.7523842  91.2732315
  99.8531055  83.0394268  92.3231697  63.4053612  71.5729713  86.5355873
  63.2447052  72.2637844  85.8927822  63.8140106  70.8683443  86.0328579
  15.2479899  31.4318991   2.3247452  14.9234593  32.3322701   2.3091339
  14.6688724  30.9791636   2.9378399  33.4311056  31.4072847   9.0098339
  33.0835629  30.9068155   9.7480607  33.3773017  32.3201227   9.2927897
  76.2512016  98.2419682  91.2057209  75.6693077  97.4859619  91.2837696
  77.0574665  97.8860760  90.8322144  30.5109024  26.4269543  12.0993841
  31.0419464  27.0756125  11.6373622  29.8971558  26.9461060  12.6190269
  16.8104768  23.1725931  19.0901959  16.3331902  23.2892871  18.2687271
  17.6667118  23.5685730  18.9280474  46.9409513   6.3166022  14.7119641
  46.9834757   5.7577592  15.4879272  47.8399944   6.3402140  14.3842494
  26.6658640  18.7355280   5.6781548  27.1672273  19.4514513   6.0684389
  26.2684441  18.2867837   6.4244241  90.9278202  70.7390404   8.1212515
  90.8308125  71.0628176   7.2257131  90.1632214  70.1796103   8.2578212
  85.6733513  94.2757797  76.5267992  85.9366322  94.7945976  75.7667065
  85.7477856  93.3674431  76.2341976  48.9525032  80.5359268  71.9889450
  48.9236593  81.4173985  71.6169167  49.6502972  80.0943661  71.5048647
  65.6525660  29.7920394  45.5374098  65.9659767  28.9099979  45.3373957
  65.0783873  29.6762633  46.2944746  27.4420810  12.6394260  10.5797195
  27.2269607  13.1113791  11.3842165  27.7806544  11.7959881  10.8800757
  59.6654558  68.5714674  87.7744198  60.3875828  68.7861443  88.3649063
  59.8464251  67.6753950  87.4906254   8.7557483  29.7345853  31.6397905
   7.8177661  29.9028730  31.7297912   9.1670924  30.5862761  31.7869210
  73.5200787  99.7330856  19.8170245  73.2963133  99.8074055  18.8893187
  73.1209087 100.5030155  20.2221155  66.4138746  75.9563112  75.2658796
  66.3388824  76.5641975  74.5302963  66.8262386  75.1776028  74.8919821
  22.7631688  34.7243094  25.7830882  23.3540797  35.2174187  26.3522100
  22.1167517  34.3460536  26.3791585  32.4075890  13.3708286  29.9934936
  31.4999270  13.0721581  30.0498676  32.5715923  13.4628832  29.0549517
  26.7978358  27.5873756   4.0652779  26.8859482  27.6155186   5.0179982
  26.1438775  28.2571483   3.8653380  25.1371455  17.8135610  73.4723949
  24.8141146  18.2812130  72.7022123  26.0108066  17.5135732  73.2214832
  33.7585378  17.3423028  27.2747016  33.0750370  16.6732705  27.2365665
  34.4274044  16.9689298  27.8486705  52.3452902  52.7192211  21.4104438
  52.6594973  53.1181812  22.2218227  52.7683592  53.2239914  20.7158542
  54.7505856  34.6185446   1.4812495  54.7014809  34.1884923   0.6275075
  55.6823587  34.6104693   1.7002571  61.4968491  10.8709729  17.4726367
  61.7951727  10.1546979  16.9121158  62.1043682  10.8652449  18.2123101
 107.5583744  62.5469398  90.8529472 106.9466686  62.5042295  90.1179504
 107.1461105  62.0213270  91.5385151  56.8638706  88.6808491  58.7814283
  57.7058506  89.0665436  58.5394812  56.3401508  88.7279797  57.9815960
 105.2409744  20.0837064  22.4109292 105.8529949  19.7642028  23.0739403
 105.7120323  19.9862921  21.5833735   3.7016174   1.6479711  94.0675831
   2.9078370   1.2173244  94.3848896   4.3388024   0.9393885  93.9773655
  31.2688565  15.7606125  11.8451047  30.4150152  16.1088216  11.5883195
  31.2608504  15.7881463  12.8018749  95.9456444  97.3322868  85.9176731
  95.9618282  98.2616425  85.6890297  96.8001747  97.0023823  85.6398773
   0.6947848  39.1986227  19.5036244   1.1080433  39.5925856  18.7353528
   0.6921500  38.2594013  19.3189931  68.6871624 101.0718918  61.0613108
  69.4839811 100.5447006  61.0032082  69.0005875 101.9749069  61.1118984
  27.1244740  19.5331848  11.9361067  27.7521634  19.5905757  12.6564848
  27.4303794  20.1795506  11.2998152  10.2865899  23.1994271  22.7524805
  10.9411609  23.2296753  22.0547295   9.8638439  24.0576625  22.7216721
 108.7794399  83.7110043   4.8920798 108.3271027  84.5501804   4.9781474
 109.1818523  83.7437344   4.0241966  23.2513809  56.8852997   7.1226007
  23.0049014  56.1561298   7.6916295  23.8508129  57.4106789   7.6525885
  65.0749445   3.5535657   4.6464935  66.0097599   3.6522970   4.4659194
  64.9886656   2.6610446   4.9814463  29.4402838  30.2329183  28.6533475
  28.5279512  30.5045128  28.7539434  29.9462700  30.9406471  29.0525079
  50.7393742  59.4659996  91.8701839  49.9712467  59.4406414  92.4407673
  51.4553213  59.1440296  92.4178886  23.7874746  10.4023421  19.6852040
  24.4052219  10.2350795  18.9734149  23.7613940  11.3562191  19.7605085
 115.4796886  48.3977652  35.4823661 114.7671700  47.7648449  35.3931403
 115.0880718  49.2356348  35.2356982  34.8935819   9.0279925   4.6921483
  34.4197369   8.2326299   4.9352574  35.6252360   8.7173420   4.1588461
  61.1801004  69.9214268  76.4255714  60.7079792  69.4297361  77.0975590
  62.0677614  69.5638561  76.4464140  46.7553139  29.2272210  54.2911100
  45.9062672  29.4781232  54.6549797  47.3503256  29.2397594  55.0407982
 115.7779121   6.9604880  80.4083061 116.5706062   6.6916573  80.8726311
 115.9883118   6.8353570  79.4829321  70.2138186  78.8799906  88.9327621
  70.5156040  78.7917042  89.8368454  69.7811031  79.7334099  88.9069653
  72.8884602  94.2875004  70.9914064  72.7601337  93.3463097  71.1093855
  72.3853874  94.6885204  71.7001581  61.5579414  71.1900854  83.9795685
  61.6911507  72.1336937  84.0695095  60.9098768  70.9746790  84.6502686
  67.0638323 101.1899185   3.9285931  67.8510952 101.6343498   3.6140588
  66.9656038 101.4880371   4.8328626  79.0037537  96.2899590  77.1286631
  79.7113609  95.7386208  77.4626541  78.2027960  95.8545971  77.4204874
  24.2937970  19.9856710  12.2133040  24.5440030  20.3467727  11.3628721
  25.1241469  19.7502577  12.6272237  79.6889496  79.9068356  90.4094696
  79.5115423  79.3922138  89.6221161  78.8394213  80.2760410  90.6507492
   1.9729389   5.5531389  80.7443047   2.8124738   5.3924888  81.1751270
   1.8155012   4.7646606  80.2249336  75.7136106  75.0369549  83.1700230
  76.5198135  75.4901361  83.4167767  75.1452684  75.7276773  82.8292561
  69.0771723  82.4015045  83.9365768  69.5622253  81.5973377  84.1216755
  68.1984949  82.2351646  84.2778778   9.9776518  51.3502932  18.9860630
   9.0222842  51.3880539  19.0316522  10.1670313  51.1854887  18.0623710
  78.1414127  71.2136602  80.6806087  78.5309744  70.8883715  81.4921856
  77.3774433  71.7149401  80.9657478  69.4067001   4.1520375  21.6397452
  69.1740131   3.9824796  20.7268715  69.9400425   4.9462244  21.6074276
  17.9429102   4.7946563  18.4393525  17.1611750   5.1693034  18.8452613
  18.3252180   5.5182838  17.9429293  64.5947218  42.4448919  17.0374858
  63.7890053  42.5778484  17.5368583  64.2991209  42.3120737  16.1368132
  70.4061079  15.7340598  30.3470087  71.0127020  15.9422278  31.0576010
  69.5727777  15.5630875  30.7858300 108.1951141  90.1835442  93.9950371
 108.9274025  90.0744438  93.3883286 107.4462700  89.8007965  93.5379028
  35.6902647  43.1189060  21.0260844  35.0575209  43.5162449  20.4277635
  35.1824307  42.4733353  21.5175915  29.3543243  31.2150764  38.8082027
  29.0046453  32.0878887  38.9875221  29.5577312  30.8564210  39.6720457
  13.7780130  31.6494489   8.6084616  13.5306966  32.5710392   8.5327232
  14.4146729  31.6302538   9.3229735  17.8681684  30.6765819   2.4715218
  18.0786526  30.4090285   3.3661413  16.9261050  30.8453894   2.4873875
  69.3381929  80.2084064  80.7834244  69.4360352  81.1223030  81.0507107
  68.6561918  80.2269173  80.1120377  25.7907248   4.7732651  24.6711540
  26.6582489   5.1506001  24.8169231  25.2651954   5.5017084  24.3403649
  28.5942698   5.4485798  54.4177532  27.9684019   5.5568624  55.1338530
  28.3000612   6.0650861  53.7472391  42.7901030  32.9387021  22.8349113
  42.6603937  33.7053323  23.3931994  43.6363411  32.5841689  23.1077123
  31.4188147  15.9705329   3.6673790  31.4625049  16.7949104   4.1518638
  31.8361330  15.3310835   4.2445990   4.0791857  43.6828661  14.5510364
   4.7193143  43.8984060  13.8727963   3.5203436  44.4579077  14.6079242
  98.0859089  60.6458759  93.7221909  97.4030209  60.9715176  93.1357861
  98.4365463  59.8747015  93.2765675  46.3373375  89.5389557  86.0063553
  47.1185541  89.1776562  85.5875587  46.6651869  90.2610302  86.5424061
  74.1162157   3.7487262   6.6973740  75.0545692   3.5625076   6.6649032
  73.9459038   3.9616716   7.6149136  66.4794254  63.1718636  85.9762192
  67.2403765  63.6557484  86.2972260  65.9331703  63.8360071  85.5558014
  48.1670237  13.1904006  30.5516768  48.8554192  13.8540459  30.5078983
  47.9666615  12.9924333  29.6368575  82.5769043 102.7008057  35.3197384
  82.9363251 101.9179249  34.9024439  81.6373444 102.5289345  35.3823328
  32.9342437  42.6903296  31.5061259  32.8679371  41.9316530  30.9262562
  33.8742495  42.8016615  31.6483450  66.4205122  70.7866430  94.6934986
  66.8958855  71.4378452  94.1775703  66.9263744  70.7059288  95.5020905
  73.8059950  79.4304228  94.4334602  73.9956093  80.1846886  93.8754654
  74.2313147  78.6942387  93.9937305  12.5999403  21.7310190  11.2389398
  12.1371627  21.4480448  10.4502738  12.5364232  22.6859975  11.2242579
  52.9346132  33.1001043   8.2560366  52.5840187  32.2681117   7.9380697
  52.7812099  33.0792999   9.2006356  47.1395540  56.8477249  12.6622355
  46.9104767  55.9240961  12.5589883  48.0469751  56.9043493  12.3628783
  93.2944965  57.0290232  74.0722942  93.0941582  57.9507542  74.2351007
  92.4521542  56.5822935  74.1567659  59.2726231  39.6297693  55.3736067
  58.5062981  40.0177717  54.9512005  58.9429760  39.2962980  56.2080908
  59.7685337 106.0978508  55.9165144  60.6503057 105.7625103  56.0785580
  59.8581123 106.6374779  55.1310110  94.7056198  58.2274246  84.3765163
  94.2968655  58.0383682  85.2211571  94.0887070  58.8131285  83.9376450
  45.3664827  57.0120907  21.3674498  46.2974834  57.1236038  21.5598989
  45.3465939  56.6535187  20.4801702  58.1105089  46.5133667  92.0112514
  58.1111383  46.0597467  91.1683655  59.0337372  46.5576696  92.2600937
  58.5422182  80.0572872  61.5434694  58.8052893  79.4654083  60.8386993
  59.3663836  80.3341866  61.9438601  57.6184559 101.4711666  79.8524284
  58.4412241 101.2673187  79.4077492  57.8114176 102.2560501  80.3652287
  21.9650030  32.1278715  31.9552374  22.2413516  32.5468159  31.1401629
  21.7415452  31.2326288  31.7006016  30.6037617  12.3861527  23.7215734
  31.1513996  13.1668103  23.6385155  31.0461092  11.7254627  23.1886101
   9.3921840   0.4035202  60.4828978   9.4238883   0.8295158  59.6263027
   9.4770974   1.1211779  61.1105824 111.4111233  20.3961515  63.8616323
 111.0192299  19.8212850  63.2042265 111.4623642  19.8572516  64.6510601
  67.4500942  39.7395802  16.1367333  67.5060606  40.6735039  15.9345257
  68.3454752  39.4177723  16.0320461  23.2928753  35.2037597  15.3628922
  23.2647371  34.4964218  14.7186017  24.2251110  35.3918004  15.4715717
  46.7330694  75.7455778   8.0237639  45.9026194  75.2817917   8.1309527
  46.4878368  76.6700077   7.9848200  39.2185473  27.1498585   1.3114332
  39.4243526  28.0623412   1.5145366  38.2732606  27.0819068   1.4457880
  87.8501034 107.2538757  77.2836876  87.1750164 107.2448826  77.9622173
  87.5746441 106.5794468  76.6628027  46.3744211  40.3925419   0.8095550
  45.8995914  41.1568642   1.1360216  46.8635941  40.7190609   0.0543524
  42.5538206  79.9973440   4.6734881  42.4951744  79.0847063   4.9561310
  42.0674229  80.0246334   3.8495320  34.7669506  40.3943348  24.0936708
  34.6146202  40.5824280  25.0197625  33.9060545  40.1496935  23.7541938
  13.5828638  19.3672979  72.9998779  13.6177456  19.1992140  73.9415550
  14.4312465  19.0692413  72.6717901  90.0903988 105.6165504  80.4266453
  90.8703232 105.4526615  80.9568119  90.1170158 106.5560818  80.2454948
  75.0965926   0.3302945  42.1096945  74.1619131   0.5362023  42.1241999
  75.5291936   1.1832989  42.0713472  96.8377113  89.6831226  77.0318413
  96.0270977  89.4418621  77.4800968  97.5327587  89.4138241  77.6323557
 110.8054543  10.8881307  94.8264790 110.1083946  10.2326703  94.8533535
 110.7593250  11.2506771  93.9417934  64.6781063 105.1959038  71.0129976
  64.6941471 104.4807625  71.6490364  63.7554693 105.2826118  70.7732964
  63.0288219  69.1754246  92.1963882  63.2151794  69.0430737  93.1258965
  63.3960438  70.0370121  91.9987965  36.6253018  81.0880470   1.3198982
  36.1304569  81.4651108   2.0473498  36.0255718  81.1299706   0.5750492
  56.4605331  96.3575268  55.9863997  56.0837030  95.8036900  56.6701365
  55.7033491  96.7025948  55.5132914  40.1343060  46.3176489   0.7819551
  39.5341039  46.0077763   1.4601652  40.9515333  46.4944363   1.2479183
  47.6490211  49.6176815  13.1978488  47.8383493  48.8347530  12.6807344
  47.8362131  49.3596506  14.1004050  60.0591040  48.9393377   8.6002016
  59.7504330  49.1283989   7.7140820  60.9169245  49.3611097   8.6501020
   6.9402760  39.8847008   2.6470199   6.2947875  39.8225617   1.9429494
   6.4241785  40.0836182   3.4282413  81.9391155 105.3478241  83.7295914
  82.5030899 104.7023964  84.1557121  81.9125271 106.0836220  84.3412495
  11.5737343 107.7204037   3.1096956  10.8141398 107.7795982   2.5302616
  11.6286266 106.7926025   3.3386081  96.9605160 107.0838833  33.7168956
  97.7319717 106.6970539  33.3028412  96.3350677 107.1955395  33.0009508
  38.6292958  39.3868589  25.9924459  38.1644440  38.7227702  26.5014958
  38.9504290  38.9172316  25.2226686  85.6391335  80.8963108  60.1757240
  86.1218166  81.7201424  60.1082468  85.3377438  80.8689880  61.0838270
  67.5275517  87.0789433  74.8913765  67.6070642  88.0099392  75.0991297
  68.4209967  86.7417622  74.9569035  80.7315063  99.0623856  85.3026295
  80.6382179  99.5988941  86.0898304  80.6562138  99.6841049  84.5787334
 109.5093727  62.0848465  85.5180550 109.8709488  62.8503466  85.0714016
 108.7142086  62.4081087  85.9416676  78.3024311  89.6725750  85.9748077
  78.9302540  90.0004673  85.3309536  78.8211918  89.5372009  86.7677784
  23.7535739  29.5323396  15.7733345  23.5307407  28.6614132  16.1020732
  23.6432624  29.4657850  14.8248446 102.0342064  51.9157934  86.0839748
 101.7012215  51.6421366  86.9386387 101.3916206  52.5514412  85.7688999
 115.1153946  24.8918319  56.8659401 115.5588818  25.2029061  57.6551104
 114.9597073  25.6834722  56.3508749  61.5554810  38.0446982  14.9301910
  62.0688486  37.5763130  14.2719376  60.6472397  37.8154731  14.7332489
  53.6927319  79.9765635  86.5563869  53.2084465  80.7963276  86.4579868
  53.4293222  79.4506407  85.8012390  85.2204609  25.3826094   8.8077235
  84.8929882  25.9467649   8.1072122  86.1721706  25.4757071   8.7650663
  64.2230988  60.1128149   2.2870748  63.9980125  60.2719736   1.3704303
  64.5481968  59.2126226   2.3010528  58.5957479  88.5911465  82.0157146
  58.9123106  89.4522381  81.7426968  59.0401030  88.4251595  82.8471184
  49.0927887  10.7281435  10.6199574  48.4756088  10.9049630  11.3299263
  49.0961170  11.5316808  10.0998151  37.6828575  26.8519711  26.1991906
  37.2879767  25.9811234  26.1553264  37.8446746  27.0878696  25.2857375
  75.8369493  89.1833305  73.3724213  75.9072351  88.2930660  73.0278683
  75.9899569  89.7465515  72.6137447  88.5832214  99.8297310  93.6081028
  89.0146160  99.5333576  92.8066730  89.0966225  99.4387913  94.3150902
  45.9750700  72.6353073  93.8208199  46.0385704  72.2241020  92.9587841
  46.8651104  72.9318285  94.0108967  39.2010713  38.1205297   2.0578602
  39.9954438  38.1952405   2.5866535  39.5058799  37.7888703   1.2132735
   4.4988993   3.9880550  92.3205376   4.2935264   3.2291228  92.8664970
   4.7679412   4.6644637  92.9420853  12.1386111   6.4219213  85.8112907
  11.4210880   6.3798106  86.4434433  12.4387193   5.5167210  85.7289600
  79.1097975  33.3495402  40.6584787  79.8205519  33.6198473  41.2398529
  79.5245981  33.2548976  39.8010325  40.0551891  63.3686638   4.7727966
  39.6568799  62.8471136   4.0759698  40.1843023  62.7495956   5.4913497
  99.6270657  97.1813297  62.4197149 100.4420280  96.6849232  62.4949265
  98.9783001  96.6475773  62.8784466 115.4306984  21.2265015  10.6278980
 115.4864311  21.4997935  11.5435600 114.5045948  21.0248613  10.4940712
  27.2633719  75.4991674  10.0060081  26.3497877  75.2322245  10.1076639
  27.3688436  75.6386614   9.0649182  17.4402547  14.7961402  43.5672903
  17.6924217  13.8859665  43.4116364  16.4933479  14.8095155  43.4279346
  78.6289692  22.4430776  30.8621836  79.4805479  22.3280787  30.4404950
  78.8311720  22.8566670  31.7014050  77.0705128 108.5709953  79.3596697
  77.3088980 107.6572132  79.2034483  76.4279175 108.7706375  78.6788988
  17.5997281  87.2192955  14.5396519  18.5082436  87.1415234  14.8308241
  17.6623428  87.3637104  13.5954821  69.3505049 108.9162445  65.0534296
  68.9248037 109.4809532  65.6985044  69.5767641 109.5041275  64.3327093
  73.6878729  31.7349863   4.8500428  72.7996016  31.5950751   4.5219696
  74.0801382  32.3459220   4.2262471  71.6769505  34.0771770  34.6438456
  71.4623356  33.1810689  34.3846917  72.2206926  33.9768291  35.4251933
 107.2170067  78.5129452  77.5806475 107.9988956  78.1670570  78.0110312
 106.5647316  78.5700464  78.2788658  71.1516380  32.1471453  26.2902546
  70.4784298  32.7830982  26.5322900  70.8061552  31.3065600  26.5907359
  77.2090292  80.6515026  90.8268642  77.0588541  81.5872574  90.9611893
  76.6383648  80.4201126  90.0940418  63.0719662  80.4092312  85.1920795
  63.8209438  80.3168869  84.6032333  62.7823448  79.5113564  85.3538322
  34.6736479  13.6552620   2.7684796  35.4255342  13.0759919   2.8923520
  35.0302219  14.5369720   2.8765282  86.7969608  92.8658772  83.3632755
  86.8066025  93.2124519  82.4710751  86.2663841  93.4909153  83.8572979
  43.6486912  15.2079666  54.3112087  42.7806187  14.8876452  54.5563030
  44.1892385  14.4196606  54.2600536  54.5185852  32.0838904  34.0452170
  54.5012760  32.7535653  34.7289348  54.1716623  32.5245404  33.2695222
  40.4851913  37.9761982  18.9544189  40.9205723  37.2830844  18.4581637
  40.5017281  37.6684999  19.8606646  98.0064678  71.3029528  91.1282635
  97.8744411  70.3555632  91.1637783  97.1458912  71.6723013  91.3262939
  33.7127662  50.2206373  15.4564071  32.7898383  50.2703142  15.2074730
  33.7836266  49.4047022  15.9518456  58.2873821  38.1763482  36.1325836
  58.3095503  38.0676794  35.1818299  58.6994028  37.3826957  36.4740372
  27.8351879  33.1028152  17.5908840  28.1207705  33.8339162  17.0430100
  27.5190353  33.5151577  18.3947849  43.7618065  31.0368848  17.5567269
  43.8214302  31.3541770  18.4578383  44.3720865  31.5887499  17.0676088
  12.3474216   4.0057576  92.8223133  12.5379777   4.2176181  91.9085121
  11.5955901   4.5552304  93.0438137 101.0537815  59.7857618  72.5965548
 100.5901146  60.6229305  72.5766897 101.7742252  59.9255085  73.2110977
  12.2344732  49.8118925  25.6961536  12.1340847  50.1882315  26.5705252
  11.5021074  49.2012310  25.6127024  68.0536652 105.7584667  73.2712698
  68.1186819 105.2381802  72.4704504  67.6479912 106.5790558  72.9914761
  75.5184984 105.3299999  88.2002068  74.8062515 104.6905708  88.2085037
  75.1007223 106.1570168  88.4404755  79.7397995  94.0120029  91.3104153
  80.4133701  94.6742058  91.4654350  79.8977947  93.7148571  90.4143238
  47.7349901  49.0688181  24.3724942  47.9827690  49.9578762  24.1187000
  48.5430670  48.5623360  24.2904997   8.0871201 103.6594009  32.9980850
   7.2546339 103.7456989  32.5335932   8.2176054 102.7148914  33.0823159
  15.4321869  55.0597953   0.0152076  15.5405624  55.8657301  -0.4897248
  16.1451728  55.0793923   0.6535590  37.0024586  81.6597939  29.6535611
  36.1494517  81.3287926  29.9347234  36.9700217  81.6239738  28.6975837
  74.3343878  22.0249581   9.2451483  73.9000797  21.2848496   8.8210630
  74.7228909  21.6530323  10.0369608  60.2750921 108.2164574  81.2283802
  59.6237421 108.7962627  80.8336639  60.8827877 108.8068962  81.6737080
  93.6548042 108.8248158  64.8855352  92.7582550 108.6749458  64.5855951
  93.6380863 108.5951519  65.8146238  73.9316225  34.3788052  16.4971709
  74.1429138  34.9062777  15.7268739  73.0741787  34.0012360  16.3010538
   6.2746590  10.3649449  70.8162737   6.6433996  11.2229574  70.6063318
   6.1793900   9.9312073  69.9683189  46.3164711   2.5800323  11.9195044
  46.2019444   2.0094889  12.6795006  46.1321402   3.4592187  12.2500873
  57.2863340  29.4192386  24.7172260  57.1743393  29.9354482  25.5154848
  58.1348896  28.9900303  24.8266339  64.3158531  13.2595158   6.5117633
  63.9593840  12.6760650   5.8418781  64.3806505  12.7133751   7.2951943
  32.8007770  12.4297655  79.6116257  33.0984282  13.1972933  80.1000214
  32.9819512  11.6910315  80.1927280 102.9509640   0.0293436  94.3008900
 102.3691559  -0.5978349  93.8714981 102.9469872   0.7933579  93.7242603
  20.1242447  43.4217644  27.1386075  21.0573530  43.5054398  27.3349190
  19.8164666  44.3237209  27.0492673 114.5434189  33.2676315  15.3509986
 114.9057484  32.6805973  14.6874189 115.1895714  33.2587767  16.0571408
  18.6031687   4.0409619  80.3408718  18.7929344   4.1860005  79.4139481
  18.2302141   4.8696631  80.6415272  98.5482979  10.7758021  72.1512604
  98.3744335  11.5645838  71.6376209  97.7694035  10.6690335  72.6972961
 101.6235828  88.1852055  87.4950314 101.0087013  88.3398438  88.2121277
 101.1551189  88.4731674  86.7115402  86.3319111  82.8970814  78.1188536
  85.4187107  82.7025509  77.9080105  86.5855598  83.5698128  77.4869347
  93.7442875  67.9965687   4.3771943  94.5415306  67.4668360   4.3824494
  93.8573456  68.6067343   5.1059926  50.7461739  18.4162235  15.7858109
  50.4848099  17.9741037  14.9780655  49.9716425  18.3687449  16.3462400
  33.7398410  23.8792777  80.0442600  32.9579115  24.4143701  79.9082804
  33.4638238  23.2053375  80.6654358  44.0124564  28.0486893   0.2212871
  43.6275916  28.2133507   1.0821021  44.9527506  27.9830861   0.3879035
  37.3260117  21.9339132  68.8509607  37.8931737  22.2896934  69.5350504
  36.6234374  21.4922667  69.3280029  94.5992851  69.8131037  66.5643644
  94.5761204  70.7582569  66.7139673  93.6984253  69.5847368  66.3351631
  53.4112406  74.1151571  15.5266023  53.2951784  73.3241940  16.0530448
  52.6390409  74.1422796  14.9616230 114.5807838  66.7577362  83.0338669
 114.7413921  67.0091057  83.9433956 115.0330162  67.4249172  82.5175476
  19.7643447  19.0464914  84.4412136  19.1273165  19.0981483  83.7286377
  20.5973148  18.8666773  84.0052509  24.9625897 105.6921196  55.1056433
  25.0698447 104.9245548  55.6674004  24.0167379 105.7654190  54.9782705
   1.2069641  95.5604362  85.5357933   1.3361937  95.4534054  86.4781666
   1.7699002  94.8952293  85.1397610  62.6422977  68.6734867  15.0688195
  63.4386444  69.1821194  15.2216518  61.9302607  69.2627048  15.3179276
   6.4390856  92.5352383  89.8703575   6.6432071  92.3517513  90.7873631
   7.2826827  92.4797726  89.4214630  92.3231220  68.1624746  15.5315709
  91.7301941  68.7958717  15.1272464  92.9101753  68.6935520  16.0696793
 104.8668480  98.9572239  70.1846027 105.5260468  98.3535671  70.5270815
 105.2156258  99.8274422  70.3777313  18.8817525   3.1808215  55.3871679
  19.2363870   4.0419084  55.6085157  18.4692752   3.3042133  54.5322561
  42.7104092  14.8639631  14.6259463  43.6070728  15.0322628  14.3362784
  42.1884251  15.5405927  14.1947424  24.6027517  35.6211448  94.5548534
  25.1418829  36.0392475  95.2262402  24.4374037  36.3135505  93.9149570
  12.9406679  95.8074284  70.8682823  13.7273955  95.7849121  70.3235006
  13.1436193  96.4415359  71.5559959  46.4886236   1.1437280  77.0549393
  46.2762451   2.0728296  76.9660711  45.8161592   0.6942956  76.5430450
  28.9882255   9.3165660  49.4144154  28.4580994   9.6519750  48.6914349
  29.7899365   9.0011030  48.9973116  27.9629111 109.5531273  52.7898502
  27.1915770 108.9961052  52.8947401  28.6776614 108.9416027  52.6126719
  99.9485016  78.4747028  63.5519028  99.4994640  77.8900480  62.9413605
  99.3233681  79.1821909  63.7096977 103.2610321  90.0970650  85.6801701
 103.8458729  90.0154018  86.4335155 103.4321594  89.3132782  85.1580429
  36.4769483  10.6357729  58.7277031  36.0437608   9.8129034  58.9545679
  36.3980818  10.6933820  57.7755022  94.9177647  50.7040739  21.7063022
  94.9933720  51.0153246  22.6083231  94.1433907  50.1414442  21.7111874
  39.3224835  50.3423500   3.4742314  38.7486434  49.6145535   3.2349563
  39.4991469  50.2117682   4.4058809  36.2058878   1.8536729  49.5204830
  35.5628133   1.4758809  48.9205122  35.8718085   2.7307796  49.7083807
  36.7223740  26.2151432   1.5307030  36.1554861  25.8687496   0.8415865
  36.3096428  25.9303856   2.3460540  39.0616298  36.7950726  65.8015013
  38.9123082  36.1180782  65.1414919  38.2371736  37.2800207  65.8379650
  56.0865450  90.7735825   1.2800281  55.2619457  91.2588024   1.2512065
  56.7306900  91.3734341   0.9038840  58.3657837  99.0763283  42.5082827
  57.6326895  98.6588669  42.0560312  58.8202047  99.5683384  41.8244314
  86.4360237  38.9128613   3.5870332  85.7687378  38.6660814   4.2273942
  86.4641190  39.8688269   3.6266887  51.6920424  28.2591081  55.3895998
  51.7886734  28.2063365  56.3404465  52.4180841  27.7386212  55.0458145
  56.4829254  18.8415790  49.7423792  56.4583778  17.9598761  50.1141739
  56.4135790  19.4228697  50.4996967 108.6428356 108.9086437  83.4326839
 109.4235897 109.1241074  82.9225540 108.5374737 109.6469593  84.0326977
   4.7113806  78.7556028  87.3468113   5.4631054  78.8206434  86.7578220
   3.9523274  78.7284899  86.7642879  96.0226536 103.4468555  65.2123451
  96.4934921 102.7238941  65.6269073  96.2850285 103.4074783  64.2926502
  38.8003898  37.4132037  86.4343357  38.0216384  37.5168824  86.9811726
  38.9941072  38.2974911  86.1233044 105.6332684  97.7703571  77.1448231
 105.4289913  96.9121075  76.7734623 104.7811031  98.1913757  77.2579241
  57.0270777  34.0500641  68.9746475  57.5751352  33.8133574  68.2264280
  56.6613531  33.2184887  69.2762423  35.1267076  29.8129487  63.6507368
  34.8831558  28.9173222  63.4167147  34.5672274  30.0259042  64.3976402
  51.4150906  32.9632258  64.9681568  50.6770658  33.1288624  64.3815470
  51.7109060  32.0824313  64.7381020  93.8894844  75.6361103   5.4418147
  94.5222282  76.1090136   4.9012280  93.5381794  76.2998438   6.0353422
  41.1300755  25.2502275  71.0492802  41.1922503  25.1137853  71.9946623
  40.9026098  26.1752415  70.9552383  36.8131042  12.7920151  44.8528433
  37.3023081  11.9906306  44.6665764  36.7438436  13.2326651  44.0059280
  94.5986843  34.4960785   8.9596653  94.3434525  35.3944874   8.7500250
  94.3856049  33.9964461   8.1715041   5.6029230 106.3741684  81.7271900
   6.4403874 106.3144207  82.1868801   5.0186741 106.8077374  82.3492050
  29.3642306   1.4860182  54.5482445  29.1163468   1.5500683  53.6259174
  28.9006662   0.7118557  54.8676395  61.4687252  65.1161528  17.2515213
  62.0232248  64.8817110  16.5073466  60.5761099  64.9572897  16.9445360
 107.9620075  91.3605309   0.3327428 108.0250549  90.7493210   1.0666887
 107.1371841  91.8242073   0.4773661 115.6270504  73.0189562  94.5063210
 115.2335739  73.2414341  93.6625767 116.2118340  72.2864437  94.3121815
  83.5163879 107.3901558  90.1795769  83.7185097 108.2341194  89.7757244
  83.0488873 107.6153564  90.9839153  48.9543200  18.1295955  85.2424335
  49.1716576  17.2714019  84.8784256  48.3793592  18.5282159  84.5891762
  42.0044327  53.6370087  14.3535781  41.6941881  54.3792009  14.8723626
  42.3604393  54.0329361  13.5581326  32.8791666  35.7526422  90.2091503
  32.7457500  36.4175534  89.5336342  33.0205846  36.2528181  91.0129261
  19.1812003   1.3540199  44.1239452  18.8659036   0.4507795  44.1551924
  19.3308461   1.5873003  45.0401449  89.6481133  72.4875927  90.6491947
  89.8980141  71.5989399  90.3960514  90.4779720  72.9599333  90.7159328
 109.8132324  94.2355251  51.2235928 110.2454472  94.3923759  50.3840590
 109.2495918  94.9989223  51.3491249  61.1658621  64.4787836  19.9336779
  61.4656305  64.8150969  19.0891278  60.8498764  63.5959387  19.7414136
  35.0541830   2.6679477  71.8462610  35.1205945   2.6218528  72.8000402
  35.4791713   1.8677220  71.5376282  40.3128576  11.3085425  50.1666260
  39.5867538  10.8616972  49.7315025  41.0942841  10.9955645  49.7109318
  35.5032873  11.7869413  77.4997902  34.6623588  11.4212215  77.2253418
  36.1552072  11.2698519  77.0266628  26.7645383  12.8477859  31.8328500
  25.9503317  13.1234515  32.2539306  27.3626542  12.6728916  32.5594163
  31.5974951  41.9178772  13.1375349  31.3326097  41.9539261  14.0566480
  32.3348975  41.3077116  13.1245470  35.1898432   5.5605417  79.4191742
  35.2685547   5.5676877  78.4652424  34.2606068   5.3981632  79.5816135
  80.9371853  63.5073662  11.5301192  81.2909508  64.2315960  12.0464313
  80.9434032  63.8301802  10.6290174  62.8066444  13.7023103  60.4091692
  63.0793524  14.4368660  60.9589767  61.8513012  13.7002969  60.4687309
  45.8728123  35.3585577  84.8053360  45.5070353  36.1408401  85.2182198
  46.7793417  35.5937481  84.6075630  88.2991123  30.5051279   5.8773863
  89.0109921  30.5315185   5.2380359  87.6976204  31.1939788   5.5946785
 104.4729900  72.6616621  90.9573174 104.1470814  72.2068501  90.1806736
 105.2778912  72.1972036  91.1867428  58.5730219   5.4862016  53.2026958
  58.5299683   4.5414388  53.0550385  58.2185030   5.8703440  52.4008322
   4.0903434   2.0339403  64.2561197   3.1622037   1.8716863  64.0874100
   4.0967262   2.7502391  64.8910236  46.9258118  28.2204175  85.9825325
  47.2438860  28.5571623  86.8201828  47.6769400  28.2944798  85.3938484
  54.8907471  21.3216090  59.3843460  55.5351877  21.0111260  58.7483215
  54.2577314  20.6068349  59.4523382  84.8474312  89.3124104  15.9148836
  84.3385220  90.0051022  16.3360953  85.3205681  89.7568130  15.2114081
 111.1629009  23.0081773  15.5861032 110.7023621  22.5137091  16.2640715
 111.7566395  22.3720455  15.1873004  88.9495087  94.9307251  66.3767672
  89.4457436  94.6053123  67.1278191  89.5577240  95.5135345  65.9221745
  49.7579145   3.9058709  62.6117373  50.6069565   4.2465338  62.8933430
  49.8751545   3.7089300  61.6823816  40.9872961  38.4958625  62.2664261
  40.5294466  39.1126537  61.6953135  40.5719709  38.6076570  63.1215525
  59.0079737  43.9226675   5.3236276  59.3747568  43.3653259   4.6372852
  59.6946669  43.9665174   5.9890276 104.1658401  91.9737339  83.9441872
 104.1040421  92.7535152  84.4958687 103.8562679  91.2603474  84.5022869
  45.6219959  11.4436579  78.3680010  45.4732370  11.8648684  77.5214291
  45.1997089  12.0236933  79.0016127  60.1399283  41.3194108   0.1935924
  59.7543673  41.9495225   0.8023132  60.9267191  41.7544102  -0.1349770
 109.4614792  95.9651947  82.0864296 108.8066006  95.6982231  82.7314854
 109.1309166  95.6254864  81.2548256  30.7039976  31.9496679  86.4761066
  30.7390046  31.7204118  85.5474281  31.4006209  31.4301896  86.8774700
  63.9453793   8.2418460  71.7877388  63.6578941   9.1172624  71.5284538
  63.1707430   7.6914680  71.6726065 113.4418488 101.4893818  56.8882704
 113.4417915 100.8217812  56.2023115 113.1781960 102.2931290  56.4402628
  46.9507837  42.7549791  15.6219113  46.2790680  43.1315374  16.1904514
  47.2077131  41.9434643  16.0597062  99.5693493  74.5242357   7.2228265
 100.3509140  74.0756369   6.9001162  99.5303059  74.2986870   8.1522536
  60.2246618  19.2095852  71.8929243  59.7346592  18.4024346  71.7359591
  59.8334455  19.8472452  71.2957859  97.2025585  73.6754227   8.9525062
  97.5797749  72.8057194   9.0849972  97.0685291  73.7368155   8.0067277
  21.3121104  85.5779839  43.2562923  21.2878418  84.7452545  43.7276793
  22.1317339  85.9868050  43.5343409  52.6269865  20.4652548   4.3222845
  51.6889286  20.5981731   4.4587079  52.8055000  20.8710074   3.4739152
  96.0108757  34.9522209   3.5248271  96.1432076  34.8754454   4.4697216
  95.6725216  35.8391094   3.4016457  20.8605963 104.6993089  95.3224146
  20.2462107 104.8952175  94.6150394  21.1485964 103.8032413  95.1482051
   8.3086807 105.1655769  92.2456646   7.4919951 105.0407696  91.7622566
   8.9962995 105.0180912  91.5963078  16.3983309  34.5651603  89.1095066
  16.2966990  35.1484156  89.8616409  16.2830031  35.1337695  88.3481789
  97.0777512  92.7960396  15.2903223  97.6425076  92.3590565  15.9277654
  96.2378407  92.8905678  15.7396007  73.6542845  97.3547649  15.7743728
  73.1764269  98.0405140  16.2408769  73.1069040  97.1557522  15.0147653
  18.2108355 102.7953720  73.8083124  17.3000729 102.9710865  73.5719538
  18.6671317 102.7275467  72.9696083  13.5969436  35.0085378  73.2889128
  14.5074165  35.0850606  73.0035782  13.4252107  35.8223557  73.7626648
  10.0107098 100.3917789  83.5087109  10.6219244  99.6717739  83.6643982
  10.3139365 100.7913208  82.6934433   3.1810701   0.6478955  61.1165667
   4.0864006   0.5100910  60.8379650   2.7149034  -0.1295587  60.8091831
  80.0480270 104.4050694  60.2676964  80.1530075 104.2504406  61.2064695
  79.3586063 105.0665474  60.2095366 102.6964474 104.3827152  22.6196694
 103.1785393 103.5775375  22.8081059 102.2254944 104.1954327  21.8076587
  32.6515675  51.9284201  59.2734909  32.0235658  52.6155758  59.0506315
  33.4744740  52.2194195  58.8805819  77.6866245   8.5628748  93.6869335
  77.0510674   8.0134648  93.2281876  78.2800341   7.9414713  94.1087818
  15.2871490 102.1206760  77.5930643  16.0440147 101.5786552  77.8157711
  15.5520749 103.0100250  77.8277874  31.4403224  47.2849131  85.6354713
  30.5881429  46.8864012  85.4588032  31.9960690  46.5530491  85.9033394
  39.4750094  29.2202282  76.0006857  40.3293037  29.3425012  75.5866051
  39.6381736  29.3627095  76.9330502  31.2618089  96.5797234  85.6726551
  32.0831776  97.0710087  85.6875706  30.6301618  97.1810722  85.2781582
  82.2908974  69.6067810   0.5855987  83.1884670  69.3886995   0.3345254
  82.0251560  70.2824497  -0.0381716  62.1761227   0.2601450  65.0196648
  61.3287258  -0.1273938  64.8006582  62.4667215   0.6752227  64.2075729
  49.7884655  15.7981992  75.9568501  48.9932966  15.4509604  75.5526686
  50.2384949  15.0268400  76.3013935  56.7364025  40.5186796  55.8283186
  55.9743547  41.0941648  55.8940840  56.9416237  40.2884865  56.7344809
 108.8020134  83.0791569  83.8341713 109.2401695  82.4139118  83.3034229
 109.1043663  82.9108810  84.7266388  28.3141160  91.5793800  92.5607681
  27.5797701  91.1807537  92.0938015  28.9858675  90.8976841  92.5772762
  52.3966932  25.8390069  88.1876183  52.7672482  26.7088771  88.3367729
  51.4901781  26.0058689  87.9295158  97.7805424  39.6921706  10.7613122
  97.0701599  40.3065681  10.9459889  98.5569859  40.2443743  10.6694734
  52.1177101  20.2619410  93.8137150  51.7226410  20.2218485  94.6846581
  52.8933191  20.8112097  93.9275932  16.7339849  14.0222561  57.0896816
  16.7683637  14.9227655  57.4123812  17.5573361  13.6314106  57.3821974
  20.6568170  30.7671428  85.3633404  19.9238861  31.3798857  85.3034306
  20.3920174  30.1422453  86.0383320  34.7115660  -0.0569052  84.5862007
  34.4273257   0.7077580  84.0854740  34.1197944  -0.0843570  85.3380585
  80.5548477  79.6788502  10.2871215  80.8618259  78.7963247  10.0794065
  80.6356239  79.7427416  11.2387645   9.9025702  96.5324116  87.2979832
  10.5482244  96.9490051  86.7271805  10.4203057  95.9729958  87.8769779
  78.3912706  52.5012398  24.3609214  77.6156425  53.0029631  24.1101050
  79.0650463  52.7747297  23.7384582  79.0514278  86.5929890  11.5040421
  79.6789074  86.0210228  11.9460261  79.5687151  87.3509979  11.2318659
  48.1822872   8.9038593  87.6823807  47.5801897   8.1952268  87.9094315
  48.5730124   8.6295712  86.8527317 102.2817326  65.5892134   1.6724102
 102.2787094  65.7684374   0.7321433 101.6004086  64.9276590   1.7923218
  33.6647701  27.5126410  63.0330801  33.8112783  27.5346971  62.0874166
  34.0839219  26.7018795  63.3215427  57.4655342  27.3250461  41.0627031
  57.8176069  27.2288895  40.1778126  57.2178555  26.4368939  41.3197517
  96.3714188  41.3966202   0.1478828  96.1854643  41.9063210  -0.6407010
  95.5109126  41.2239098   0.5298866  32.5852561  26.8062234  67.0490360
  33.2888532  27.3405528  66.6806936  32.9240632  26.5144587  67.8953886
  88.7714005  90.9291172   3.1383052  87.9963589  90.5682468   2.7078158
  89.1059494  91.5808392   2.5222245  89.5111084  59.1021538   5.9967542
  90.0132942  58.4699726   5.4825687  89.5892715  58.7928677   6.8992305
   3.8479236  23.7416339  79.1372728   4.0305012  24.5565629  78.6695242
   3.3880097  24.0182710  79.9298573 108.3775234 101.6522789   7.4373740
 107.4849796 101.9948864   7.3901534 108.9351273 102.4138451   7.2782457
  59.1170549   5.0742579  41.7277431  58.3364201   4.5412523  41.5769005
  59.8478842   4.4675750  41.6091919  39.4242930  39.8168087  85.1772976
  38.9352894  40.6319427  85.0647545  40.2974844  40.0972271  85.4514027
  42.3520327  40.8447409  85.9178734  42.4935341  41.6086340  85.3586960
  43.2320166  40.5708885  86.1764431  75.5578899  46.9970226  11.3939238
  76.2913322  47.0476055  12.0068932  75.9399223  47.2180319  10.5445492
 106.3878345 105.7208729  20.6180859 106.7255878 105.1383114  21.2983632
 105.8613968 105.1526165  20.0558019  67.1862984  78.2526588   0.5560762
  67.4071789  79.1840267   0.5559180  67.5260687  77.9260683   1.3892183
  10.9877098  10.0731301  65.1501322  11.7213726   9.9037451  64.5591354
  11.2132847   9.6029907  65.9528255  36.9636869  41.8031263  70.5900192
  36.7573857  40.9669065  70.1724005  36.1666965  42.3237705  70.4901791
  19.9444890  35.3067613  77.9888821  20.4519844  34.6718931  78.4944725
  20.4126024  35.3797007  77.1571445 103.7317371  84.0286350  81.1273575
 104.1262817  83.1590176  81.1932468 104.2196846  84.4605350  80.4262161
 103.3590508  63.7607431  79.6327019 104.2129517  63.8793612  80.0486374
 102.7740192  64.3440008  80.1162148 116.3233950 107.4983406  61.2317419
 116.8554312 108.2126999  60.8812189 115.4202807 107.7952480  61.1201000
  73.5982180  87.6181412  61.0759258  73.0229235  86.8557835  61.1398792
  73.0027151  88.3585262  60.9599876  61.2696600   6.6599095  65.1914454
  62.1395111   6.3726848  64.9137878  61.1891127   7.5487155  64.8453712
  61.9608402  77.1532249  10.8221197  62.6449919  77.5392866  10.2751970
  61.2132359  77.0500946  10.2333188  37.9190183  58.0556059  79.2524719
  37.5727797  57.7499866  80.0908947  38.8027644  57.6902437  79.2108011
  27.6309228   3.3382964  90.3331566  27.9897881   3.2603112  91.2171078
  26.7054152   3.1139305  90.4297352  33.1244040  25.3717041  37.5941014
  33.2628441  26.2264156  37.1860194  33.1243157  25.5522919  38.5341120
  32.7909279   1.9218905  89.8858643  32.5764179   1.5163034  90.7259274
  32.4554348   2.8154081  89.9586773  29.3219471  18.1955862  81.9281292
  28.4967136  18.3472824  82.3887920  29.4616103  17.2507715  81.9917679
  61.1040020  21.7190957  66.2676668  61.0920000  22.5218964  66.7888212
  61.8208599  21.8474889  65.6464911  12.2725308  16.0251617  90.0130844
  12.6460183  15.5650628  89.2613888  12.4404716  15.4456818  90.7562065
  36.7549491   5.7990515  48.3761549  36.8881774   6.5649283  47.8176641
  37.2714567   5.1077825  47.9619122  46.5496874  10.5790031  90.5773163
  45.9291315   9.9781615  90.9897900  46.4013433  11.4159501  91.0174847
  58.8589239  19.5043337  60.7568121  59.4554806  19.4320369  61.5018797
  58.3557653  18.6902070  60.7729769 103.7627411  55.1349306   5.3249902
 103.0632877  55.4576683   5.8931851 103.4680748  55.3457737   4.4390151
  74.7752142  57.0332384  11.1621451  74.6188593  56.3683176  10.4915786
  74.6920967  56.5617037  11.9909859  51.4032984  40.6451035  54.2908812
  51.6997051  40.8291054  53.3995247  51.0201788  39.7694016  54.2399120
 115.5941296  64.4424152  10.4609704 114.7715282  64.7378826  10.0707746
 116.2462139  65.0698185  10.1489019  53.7974596  35.1915312  72.5719595
  53.5347176  35.6554532  71.7769909  54.2749357  34.4248152  72.2551060
  49.6371651  25.2070451  90.5645466  49.0363216  24.8549962  91.2212658
  50.2891970  24.5170474  90.4421139  51.7719126  22.5427866  74.9317455
  52.1515656  22.5737286  74.0536022  51.2814236  21.7210531  74.9518061
  98.0055523  91.6085529  83.4157085  97.6979733  90.7656288  83.7490368
  97.2426128  91.9856834  82.9776192   6.3707316  88.7449360  90.7351685
   7.0924687  89.3628788  90.8512306   5.6288064  89.1573906  91.1775017
 106.1227131  67.3155737   6.5707982 105.5342388  67.6818132   5.9106511
 105.9787083  67.8570604   7.3468691  78.9459276  29.8380971  88.1379414
  79.8614168  29.5922589  88.0049801  78.4462595  29.1194630  87.7504730
  57.5075102   8.0636436  67.7645445  57.9761934   7.2363275  67.8746080
  57.9472780   8.4922099  67.0302677  81.3043118  46.9966316   8.8246572
  81.4646816  46.1500740   9.2416215  81.2003517  46.7902374   7.8957725
  33.5682249   5.4683125  85.4827881  34.2683172   5.0551754  84.9773979
  33.3069015   6.2240344  84.9566460  87.6586056  72.6180363  25.6941724
  87.6920223  72.2032642  24.8321533  87.5572205  73.5512972  25.5071449
  61.7708397  32.7959871  40.3074980  62.4785805  32.2667646  39.9397302
  61.0582209  32.1740532  40.4544735 112.7150726  17.3957729  90.0036335
 112.4592400  16.8290472  90.7313728 112.3246765  18.2444715  90.2122784
  59.3608141  24.2485785  58.7668085  59.1874933  23.3164454  58.6352015
  58.7501621  24.6912861  58.1774426  34.5819020  10.0563049  92.8812027
  35.2492046   9.4012213  92.6767349  34.0576077  10.1213360  92.0830059
  42.1899414  50.6835938  73.7151766  41.9446421  49.8343182  74.0823126
  41.4318132  51.2440395  73.8806295  43.0583334   2.7228707  75.1747274
  42.8223801   3.3886704  74.5287657  43.1346798   1.9142243  74.6682787
  73.8785934  12.0699668  74.0929222  73.6988163  12.6783669  74.8096895
  73.0267286  11.6859412  73.8853693  74.8654270  31.6648650  10.2178466
  74.2904472  31.3095379  10.8956170  75.6792355  31.8706274  10.6778526
  56.2885952  80.1227951   9.3821871  56.4922094  80.2772045  10.3046465
  55.3370333  80.0213051   9.3606812  38.1697774  17.4119401  67.8550148
  38.3064222  18.0672336  68.5392284  37.8095460  16.6549027  68.3169222
  33.1724000  22.7781034  63.3250666  33.0716753  22.6042581  62.3891878
  33.3836031  21.9255948  63.7056637  61.4519691  10.2036345  80.2631378
  61.1624622   9.5889479  80.9373665  61.9093513   9.6587449  79.6227264
  31.5137219  20.3221941  88.5986805  31.4642286  21.1875319  89.0048504
  32.0678782  19.8118019  89.1891384  23.0980754  11.7262232  77.4683952
  22.9997754  11.8791497  78.4081697  23.7338328  12.3828924  77.1840858
  51.6289282  -0.0541960  79.0243626  51.4134598   0.8174845  78.6927319
  51.5468121   0.0240943  79.9748135  55.2390146  13.3559000  87.0880413
  55.5287981  14.0287483  87.7041054  55.3586626  13.7533629  86.2255192
  70.2879333  36.2344551  82.6939583  70.4781199  36.8949866  83.3601093
  71.1472845  35.9753013  82.3614216  12.7692747  89.3709850  87.5444031
  12.6227093  88.6645889  86.9153023  13.6994731  89.3091679  87.7615261
  24.3236995  61.3438559  86.8603325  23.6798573  61.3684034  86.1524487
  24.0489340  62.0390320  87.4582195  60.9089565  29.8961806  69.9704838
  61.2358856  29.3918490  70.7154655  60.7308578  29.2400289  69.2967033
  71.1851501 102.6316738   7.1555704  71.3606119 103.3718395   7.7365953
  71.9424343 102.0565319   7.2649658  41.7714357  17.4436927  76.6015863
  42.0401669  18.1224680  77.2206831  42.2249937  16.6550183  76.8990946
  89.4452000  45.5990362  17.2129357  89.8896313  45.0054312  16.6076660
  89.1001892  45.0274992  17.8988957  84.5352650  66.7331886   3.9373553
  84.9717712  67.3754978   3.3777750  84.2433167  67.2367001   4.6972722
 112.9694176  39.8277307   1.6252248 113.1165409  40.0330639   2.5484934
 113.3170128  38.9422894   1.5184438 109.4289112  88.8357639  81.8470383
 110.1382542  88.4536743  82.3638248 108.7713814  89.0905666  82.4943161
  72.5882149  34.8716259  91.9080830  71.7120504  35.1303291  92.1938229
  73.0849409  35.6896114  91.8882656  44.0720892  44.7159910  85.4767418
  43.7570858  44.4888926  84.6018505  44.2669821  45.6517506  85.4257202
  54.5426178 105.8158398  79.4958353  54.8587179 106.7191696  79.5134926
  54.1139126 105.6954956  80.3431606  36.1200953   5.4446006  55.0487852
  35.2026629   5.1820868  54.9737167  36.5443778   5.0535494  54.2850494
  58.5697031  32.0338297  56.1800051  59.3295002  32.4253201  56.6109037
  57.8535318  32.6438999  56.3564873  68.7877941 100.2090645   7.1972907
  68.2529879 100.9764671   6.9940275  68.1769896  99.5909500   7.5986350
  35.2400231  33.7190199  72.9890203  36.1826825  33.6565042  73.1430292
  35.0474262  34.6540427  73.0588102  75.2935269  28.4557976  94.4785440
  74.8855832  27.7833237  95.0240675  76.2171033  28.2069744  94.4422124
  53.1374264  38.3655262  64.9451780  52.8442097  37.4576449  65.0226879
  53.2822704  38.6483526  65.8480978  77.1720839  19.8073411  72.9830742
  77.5759172  20.4411602  73.5758829  76.2607145  20.0915408  72.9133224
  92.8084469  70.0212526  33.6871076  93.2314014  69.4571972  33.0396605
  93.5249233  70.5313826  34.0648246  45.4337788  31.2535906  92.9649925
  45.6387997  31.1640716  92.0343018  46.2765217  31.4394164  93.3790970
   2.3347464   1.3999854   0.3278529   1.7457336   1.9217676  -0.2171601
   2.9127058   2.0426528   0.7391600  89.4348145  72.4050903  15.4001820
  90.3491879  72.6596308  15.5241585  89.1600037  72.8750515  14.6128762
  94.2598438 104.1587925  88.0186081  93.7493420 104.8256779  87.5593948
  93.9682388 104.2182446  88.9283657  46.9865894  49.3717718  84.9257851
  47.5691938  48.6124277  84.9118328  46.4160824  49.2221260  85.6796837
  99.9519348  54.7746801   2.1902150  99.2679405  55.4112911   1.9825846
  99.7501278  54.0181494   1.6396120  40.9394884  15.0178802  83.1778526
  40.4720163  14.2675364  83.5448551  40.6093407  15.7697093  83.6697769
   1.5607086  33.4084558  77.7180290   2.1668074  33.8436818  78.3175755
   2.0471105  33.3355379  76.8968534 106.1667919  63.1252813  16.3884580
 106.3204670  63.1887436  17.3311067 105.7099533  63.9362478  16.1651301
  56.3276720  18.2972574  73.5426140  55.3706455  18.3018661  73.5600996
  56.5587854  18.9706290  72.9027796  30.5143762  30.2424288  65.7181883
  30.3420210  29.8374104  64.8681974  30.1792145  29.6123695  66.3560915
  38.1735229   4.8305035  59.9729538  39.0636516   5.0716656  59.7165537
  37.6487494   4.9808231  59.1866684  17.1265244  22.0977306  94.9783993
  17.5558996  22.6355910  94.3131351  16.2468541  21.9462323  94.6327686
  26.2284493 102.2710705  90.7901382  26.8714833 101.8052673  91.3247013
  25.4901838 101.6656590  90.7217884  37.1572566  15.6160223  63.7578773
  37.8571653  15.2000427  64.2611837  36.4444733  14.9771845  63.7655830
  47.3926210  12.5944865  67.4141121  46.6000986  12.1797478  67.7548933
  47.7214813  11.9798493  66.7581367  16.9164610 103.6431503  86.9676208
  17.5588155 103.0248356  86.6193295  16.2931323 103.0967331  87.4462891
  49.7339916   1.3390680  43.9486551  49.9949312   0.4357495  44.1279840
  49.8683977   1.7964701  44.7786856 106.3514423  52.0217609   7.4700314
 106.2761879  51.0679817   7.4404293 105.9260368  52.2702265   8.2907170
  74.9808168  24.4592404  60.3585815  74.0340853  24.5807195  60.4304981
  75.3505087  25.0835013  60.9829664  73.7507248  53.6927032  25.6115818
  72.9703283  54.1687584  25.3277040  74.4735813  54.2984009  25.4477477
  18.5404789   2.1936600  75.6750011  17.7363670   1.6761233  75.7173347
  18.2422829   3.0852351  75.4949903  55.3846073  30.7199311  77.0930862
  56.0849285  30.6742716  77.7440071  55.4644251  31.5963030  76.7164755
  58.7590647  45.3373146  35.8922672  59.1122103  44.6924591  35.2793360
  57.8159618  45.1736641  35.8951044  70.3013754  71.8188047   4.7166160
  70.0931978  70.9843540   5.1368368  69.5224476  72.3576164   4.8551023
  34.8214221  25.1559567  63.8335991  35.6987858  24.8228455  64.0220118
  34.3223119  24.3820000  63.5726166  50.5816221  23.4190059  81.1392593
  51.1298847  24.0785909  81.5642166  51.0864830  22.6085448  81.2063503
  85.5181026  91.1204433   9.5755249  85.8427811  90.5602360  10.2804983
  85.8057213  90.6859398   8.7725818  11.1098826 105.7576275  60.3808880
  11.5181601 106.0401440  61.1992550  11.1943126 104.8041821  60.3877687
  18.8422298  51.5040636  88.2325649  18.8453269  50.5806780  87.9804230
  19.5643437  51.8901300  87.7368450  24.4548368  35.6398416  78.9755774
  25.2565193  35.7692456  79.4823217  24.4187093  34.6958351  78.8213778
  78.8713598  79.3553829   3.4829500  78.8415861  78.7665224   2.7289021
  78.1272364  79.0901709   4.0234843  82.9612064   5.4858434   3.1696022
  83.2442665   4.6569747   3.5557213  83.0140972   5.3404599   2.2249866
  59.1790771  32.8836107  60.4057026  59.4262838  33.1698465  59.5263910
  58.5675335  32.1618843  60.2595663  21.7129016  24.1266441  80.8454323
  22.1497655  24.2043018  79.9972868  20.7871723  24.2750931  80.6525135
  49.1886711   4.9652869  53.3210182  48.9228249   4.3752670  54.0263081
  48.5323906   5.6620049  53.3314323  89.2856121  89.3297005  10.4206192
  89.2208576  89.4590092   9.4744074  90.1749325  89.6075535  10.6400251
 113.3169651  81.3860703   8.8844442 114.1180229  80.9247589   8.6359888
 113.1974411  82.0442390   8.1997848 109.2861860 109.3182841  56.7381191
 108.5053890 109.7977712  57.0150328 109.5620148 109.7547795  55.9321308
  70.2068758  16.3891602  71.9604254  69.5959520  16.3438368  72.6959229
  70.8702612  17.0206201  72.2386551  89.2462444  64.5916462   5.9964305
  89.5304298  63.6861658   5.8716255  89.1213036  64.6753311   6.9417453
  45.4586077  19.1451454  65.9648418  46.1370087  19.5066786  66.5351963
  44.8497248  18.7109661  66.5623236  81.7427063  69.6061039   3.4248844
  81.2882996  70.4377890   3.5592186  82.4331570  69.8095989   2.7939323
  74.6411324  78.9603567   0.4640638  74.6994400  79.7020245  -0.1382326
  74.3002796  79.3369055   1.2753953  15.6659889   9.4278747  47.4766541
  16.3509452   8.7605894  47.4342775  16.0564792  10.1401174  47.9830742
  32.3552275  17.2622001  93.2401752  31.8407249  17.0960164  94.0300465
  32.0931220  18.1404042  92.9639721 105.9933090 108.8901711  81.9551182
 106.8204021 109.2513847  81.6362572 105.9129906 109.2270756  82.8474617
  10.5065835  81.4917946  78.6949015   9.9084854  81.1705112  79.3696499
  11.0565960  82.1314240  79.1472244  18.3715796  32.1303654  84.5583534
  17.5825107  32.1991754  84.0208912  18.6800253  33.0321097  84.6475220
  76.0809755  58.1068897  27.5484848  75.2739716  58.6146450  27.4638867
  76.3555288  58.2428265  28.4553337  24.6478605  75.6866074  71.7473555
  24.8921895  76.0913992  70.9150839  25.4621220  75.6621361  72.2499609
  47.9169989  35.2951336  63.9250565  47.1124983  35.5791664  63.4910727
  48.4600163  36.0825324  63.9620399  60.3926897  33.4867525  57.6755714
  60.6834698  33.7983799  56.8185043  61.2000847  33.2435918  58.1285810
  47.8644657  89.5502949   8.2579845  48.1788588  89.4655895   7.3578644
  48.3965921  88.9304638   8.7568676  63.5033512  10.8727908  71.1796999
  64.1010618  11.2583208  71.8202782  62.6337099  11.1542439  71.4638567
  94.2837238  70.3234243  38.9586902  94.7153759  69.6174049  39.4397783
  94.2039204  71.0334158  39.5956945  23.6472487  17.7757180  89.2297459
  24.4070196  17.9378355  89.7889423  23.8826656  18.1643105  88.3872414
  76.3918161  16.8321550  92.2978783  77.2721291  16.8398952  91.9220829
  76.4286709  17.4735105  93.0074883  21.5434694  17.3568821  79.9658871
  21.7708445  17.9807878  79.2764902  20.7693601  16.9031715  79.6325207
  95.7612991 107.3349094  64.1931629  96.5204906 107.8836823  63.9964008
  95.0510597 107.9566479  64.3519831  81.8875599  19.6027923  91.2639904
  81.7838764  19.2571878  90.3773975  82.7649593  19.9853671  91.2708282
 108.9285564  14.2151237  74.0513849 109.7152328  14.5985794  73.6636591
 108.9668655  14.4706011  74.9730682  30.9519267  16.5269971  86.6651058
  31.4347911  15.9710586  87.2766685  30.5365062  15.9127414  86.0598373
 103.2332039   2.9228345  81.8774700 103.1150627   2.5168312  81.0187244
 102.7847481   3.7655967  81.8076897  11.9638205  12.1284568  70.1109409
  11.8020058  12.0915747  69.1682386  12.3598933  12.9882908  70.2525139
   4.8471549  86.0798168  15.4186690   4.4159210  86.9188976  15.2567935
   5.6415421  86.3079929  15.9014893  23.9613175  13.9021301  68.0801582
  23.1911635  14.0570033  67.5332451  23.8538718  14.4999623  68.8199425
  56.9187212   4.6792695  78.6338091  57.3642159   4.4855610  79.4585800
  56.2691927   5.3440255  78.8628101  57.8932333  18.1547475  90.3964710
  58.2381868  18.6516416  89.6546173  56.9425917  18.2018816  90.2950382
  53.1720638  29.0333414  46.2167406  52.8314400  29.9146819  46.3698673
  53.9183283  29.1633058  45.6315613  39.8277903  41.3663912  91.2436676
  38.9078474  41.6297531  91.2677002  40.2121162  41.9016981  90.5494308
  84.9816990  61.7017555   1.9733685  85.4429531  61.9328594   1.1671027
  85.3526974  62.2835922   2.6367378  77.1633387  62.4442816   0.7032198
  77.6662779  62.4474812  -0.1111966  76.2986183  62.1216583   0.4494509
  20.8777308  86.9023228  62.4383354  20.2088237  87.5168991  62.1365404
  20.6035566  86.6660213  63.3244610  45.3560781 100.4841709  75.9814119
  45.7454348  99.9760818  76.6930866  44.6204948 100.9418392  76.3884544
 103.8751984  67.2075176  11.8323576 103.8807106  66.5345907  12.5130689
 103.8508606  66.7169428  11.0107899  59.2227030  49.3809032   4.4106305
  59.5698118  48.5566425   4.7517151  58.7887716  49.7868443   5.1610643
  54.2420626  44.8269320  84.2623520  53.3033323  45.0134039  84.2467117
  54.6206093  45.5455923  84.7687626  97.0738983  66.5404940  13.4213853
  96.8859005  67.0207310  12.6149988  96.4596367  66.8986464  14.0621984
 107.1328831  98.5831547  81.2127304 107.6733494  99.0303516  81.8639946
 106.2636757  98.5404968  81.6113377  67.2201633  13.8968444  93.3890247
  66.3727188  14.2450774  93.6661625  67.6687527  13.6797714  94.2062664
  31.1146784  24.8279953  85.2438927  31.0468817  23.9255428  84.9321079
  30.2171659  25.0709128  85.4712582  56.8503714  11.9461930  89.6287155
  56.1689997  12.5168788  89.9840736  57.4856043  12.5462162  89.2379665
  42.2676897  40.1872492  45.8492088  43.0270720  39.6635222  46.1047077
  42.3521423  40.9947681  46.3561678  73.5189819  65.3459406   6.2428457
  73.4728432  64.7659826   5.4827452  72.9366779  66.0736227   6.0245854
  40.8351564  25.2557015  74.2510653  41.3148689  24.5130372  73.8842487
  41.4483309  25.6559968  74.8675156  28.8491559  40.9660435  61.8499947
  28.7312293  40.3799200  62.5975132  28.6505198  40.4236794  61.0867023
  83.3881283 100.3653336   1.2556905  82.9454803  99.5569897   1.5143059
  83.7429333 100.1767159   0.3869187 115.8907032  87.7531910  15.6087124
 115.6218338  86.9530773  16.0601020 115.4955578  87.6822853  14.7397673
  90.9481812  83.5683155   4.7867027  90.0527859  83.4232712   5.0924051
  90.9519291  84.4742107   4.4775599  54.1519403  28.2518721  91.5749836
  54.0897608  27.3931026  91.9931793  53.5034847  28.2232070  90.8714867
  54.3733215   7.5035214  62.7708292  53.6739969   8.1568122  62.7904749
  53.9527512   6.6936922  63.0598450 103.7414360  73.8334942   8.2641017
 103.2226562  74.2638254   8.9437497 103.9001942  72.9533482   8.6052340
  52.6741743  99.1198635  60.7138395  53.4284687  98.7851429  61.1988449
  52.5377464  98.4821224  60.0131893  97.7830315  99.6469975  32.3536825
  96.8681145  99.3995380  32.4875236  98.2621765  99.1674709  33.0294895
  55.3485918  28.9872956  80.5893040  54.4898081  29.4087648  80.6223488
  55.2738667  28.2441497  81.1879539   6.8956798  98.7354279   7.9461473
   6.8873405  98.0331039   8.5964638   6.3086212  98.4288883   7.2550380
  77.1398211  45.6082439  40.8080292  76.6750479  46.1992979  41.4003754
  78.0124187  45.9922791  40.7224560   3.0433366  71.9660521  14.8219502
   2.4124262  71.3297749  14.4852960   3.8325921  71.4526081  14.9942422
  55.9129190  20.5051517  84.2453003  55.3311777  20.8785939  84.9073792
  55.7283163  21.0089803  83.4526443  37.8987575  31.1655140  73.0215597
  37.9456186  32.0875835  73.2741976  38.8092208  30.9123254  72.8692913
  97.6851940  91.5391827  20.8718467  96.9119453  91.0551071  21.1616755
  97.5705814  92.4157047  21.2390113  64.7159576  33.2572794  89.6542740
  65.5892563  33.5946560  89.4548893  64.8762274  32.4189377  90.0875568
  53.0640459  45.3180122  90.4208279  53.2105827  45.1999617  89.4823074
  53.7034750  45.9808683  90.6815720  40.3437948  42.5833797  88.8302040
  40.5262375  43.3434868  89.3826389  40.0561571  42.9564190  87.9969311
  50.2955151  32.5567245  75.6210518  50.7301331  33.3114719  75.2239418
  49.3701935  32.6721001  75.4049397  36.0390973  25.2391815  60.3070498
  35.6145215  24.3816900  60.2809811  36.8867660  25.0742769  60.7199621
  55.0499773  35.6044865  65.3701401  55.4882479  36.1386275  64.7076845
  55.2359247  36.0486817  66.1973953 102.5158119  91.0372448  14.6445227
 102.1618748  91.2280560  13.7758768 103.0717945  91.7895985  14.8471820
  65.7052231  20.5891967  65.4855824  65.1404953  21.3619971  65.4952383
  65.9167957  20.4586887  64.5612240  79.9657393  59.3458176   7.2212577
  80.8748913  59.1222668   7.0219886  79.4754219  58.5457420   7.0323199
  71.5615749  83.4238052   5.5731142  70.6306696  83.4723091   5.7905829
  71.6726255  84.0471268   4.8552218  68.2655859  24.4254422  82.8596592
  68.3315468  25.2134895  83.3989716  67.3918772  24.4732165  82.4716091
  34.1414809  30.9410214  72.4167347  33.4511375  31.2598562  71.8353605
  34.6038604  31.7314172  72.6954985  19.3712485  10.7213521  12.2532809
  19.5080829   9.8179060  11.9681609  19.6335053  11.2521935  11.5011764
  21.7360663  19.3021154  81.8102074  21.2786484  19.8690271  81.1892319
  21.8157315  18.4636986  81.3552952  57.5238705  11.0259855  94.2651081
  58.3598042  10.8557105  94.6992111  57.7644539  11.2877953  93.3763981
   6.2484276   7.1682537   6.2729329   5.7184541   7.3240024   7.0546633
   6.8654919   6.4847237   6.5341812  87.7044279  37.2713113   0.2615607
  87.7155656  37.2538781  -0.6954228  88.2262153  38.0396294   0.4932082
 108.7795925 103.8420105  16.3947415 108.9514542 104.7285652  16.7121041
 109.5638752 103.6092758  15.8977771  47.3336840 107.6859093  92.7890778
  47.9676580 106.9895172  92.9603672  47.8275824 108.3446693  92.3008919
 116.4211747  96.7693697   1.1884559 116.4816949  97.1882711   2.0469917
 115.9176013  97.3854052   0.6563342  49.8625088  39.1552544  41.6652584
  50.0040770  38.2517576  41.9478941  50.3633547  39.6822524  42.2878790
  83.3998585  71.5639019  10.5330098  83.4925652  71.5272331   9.5810163
  82.5539494  71.1512423  10.7073522 102.5162220  80.1913643   3.6857313
 102.1571922  79.3649197   4.0087003 102.6585102  80.0417042   2.7510720
  91.0804367  96.4785194  32.1031260  90.3683949  96.4676476  31.4634991
  91.1019039  97.3806763  32.4223185  69.1105890  73.5318851  25.3943253
  69.8197126  73.0470800  25.8166289  69.5531464  74.1143656  24.7770000
  37.8540659  50.0650167  74.4150734  38.6311889  50.5490160  74.1356993
  37.6041174  49.5498896  73.6479998  28.1368113  29.6338606  82.6051617
  27.3315048  30.1255417  82.7662945  28.3508730  29.8179150  81.6905403
  35.6019115   2.3197418   7.7006447  34.7217655   2.3415703   7.3250133
  35.6324387   3.0783856   8.2835335  36.6550946   7.2257400  85.7324600
  36.7666745   6.3354313  85.3991032  37.4098730   7.3635435  86.3047791
  28.2164574  16.1630070  66.9967508  28.8675284  16.4012802  67.6567221
  27.4692512  16.7321825  67.1810055 100.4459953  61.8379974   9.0111196
 101.2851048  61.6736746   8.5808617 100.4654217  62.7706385   9.2256665
  78.4918642  94.1987228  19.9022055  77.7789450  93.5683060  19.7995019
  78.9795113  93.8867378  20.6645012  17.1325123  20.1932430  72.6056051
  16.7312288  20.4823542  73.4251261  17.9452562  19.7652185  72.8748178
  77.0898628  59.0049553  25.0900745  76.9353724  58.7457514  25.9984684
  76.3719416  58.6030293  24.6009111  27.5152254  10.2174020  92.8965950
  27.9289770  10.1920462  93.7593746  27.4378061   9.2982155  92.6409817
  25.4661727 108.9845181  81.1592102  26.2818432 109.4049835  80.8869648
  25.4455423 108.1622696  80.6696033  50.8946276  40.0096130  84.0733051
  50.3256512  39.4991851  84.6494579  51.3966179  40.5686378  84.6663666
  96.5126801  25.6457543  84.5707893  96.1484337  24.9116659  85.0654316
  97.0298767  26.1333871  85.2118587  54.7842741  36.7930126  89.5197773
  53.8363314  36.8180132  89.6501827  55.0657082  37.7008128  89.6334648
  76.8233633  96.6822815  16.7686439  76.3842869  96.1250305  16.1260557
  76.7110777  97.5710392  16.4314175  24.0581751  33.1162786  55.6959915
  23.3503795  33.3475161  55.0945044  24.1759634  32.1739292  55.5762577
  68.2806253  32.5306845  79.0805054  68.8682890  31.8893075  79.4799089
  68.0834341  32.1693254  78.2163477 107.3195171 109.2421436  72.6642466
 106.6486549 109.8972511  72.4718904 108.1358147 109.6387863  72.3600292
  68.8263893   5.1823556  84.8334980  69.5055151   5.8404505  84.9815845
  68.4386015   5.4234713  83.9922428  54.4303846  56.8181276  91.0356426
  55.0075340  57.5802088  90.9870720  54.9688292  56.0897779  90.7260990
  33.0761313  32.1098733  62.2683811  33.1703091  32.2481537  63.2108498
  32.5635028  32.8596830  61.9663382  93.9024544  65.9245634   0.4927849
  94.0344429  66.8479776   0.2780269  94.7857666  65.5815029   0.6280661
  63.9105940  34.8117661  84.4339085  64.7195673  34.4604111  84.8058510
  63.9819241  35.7583880  84.5565987 103.0905628  90.6275654   1.9594489
 102.3721313  90.2502346   1.4517987 103.8538456  90.1008606   1.7223664
 116.3750076 103.4462070  89.9308395 116.6311264 102.5994682  89.5652199
 115.7463932 103.7987995  89.3009663  68.8352680  26.7325473  84.9233055
  68.9376545  27.2537541  85.7196045  69.7267008  26.4725542  84.6909523
  68.1184340  89.3740273   3.5167402  67.8800964  90.1673794   3.0371296
  67.8133154  89.5333481   4.4099101  57.1610975  26.1406279  64.2883348
  57.7813864  26.4602232  63.6331034  56.7934179  25.3455949  63.9023685
  96.8518066  79.0729523   7.5565690  97.2676659  78.3109140   7.1533424
  96.3717842  79.4903278   6.8412983  83.2588387  86.8730545  10.0302649
  83.9507008  86.8404865   9.3695933  82.5004005  87.2267437   9.5655978
 111.0546207  80.3527737   0.8792894 110.9295845  80.8573151   0.0755247
 110.1770115  80.0479126   1.1096860   1.4741461  95.7417107  50.7590008
   1.3072997  94.8090649  50.8952427   0.8904928  95.9870720  50.0411034
  78.9969206  33.2192993  91.5275860  78.5064840  32.7448773  90.8562946
  78.3241796  33.5878754  92.1001244  42.1902323  34.4935703  61.0839653
  42.1954060  33.6651158  60.6045198  42.4522638  35.1471663  60.4355955
   8.3894598  90.5750656   4.1564590   8.9007151  90.9750843   4.8599070
   8.8522565  89.7612858   3.9569521   6.9141620  11.5931845   0.0032026
   6.5546048  12.1402645   0.7015254   7.5301766  12.1644723  -0.4554786
  22.3957443  36.4892483  69.0543890  23.1316805  37.0448184  69.3112421
  21.7290568  37.1026182  68.7452936  47.2030640  92.2507286  85.0867271
  47.1599579  93.1997871  84.9699116  47.0809221  92.1193504  86.0269642
  79.7919798  94.1965008  17.4529243  79.7061443  93.2493114  17.3447132
  79.2835617  94.3947792  18.2393265  88.4725857  85.3664970  13.8148427
  88.5643578  86.2477589  13.4526384  89.2600632  85.2420712  14.3445826
  98.7887001  81.1914062   0.0088307  98.4904766  80.9418583   0.8834875
  98.1443214  80.8039570  -0.5835306  60.4847050  86.1981106  19.4621181
  59.9950457  85.9164906  20.2348804  59.9899292  85.8443451  18.7230086
  72.2974110  25.0100780  48.1909943  72.6113081  25.0844526  49.0922022
  71.5179443  25.5649066  48.1623030  43.8498163  20.3040171  73.7928581
  44.1034985  21.1419702  74.1797829  44.6797848  19.8788548  73.5769463
   1.4665475  39.4618201  59.0837240   1.3657653  40.4136038  59.0972996
   1.3633968  39.2231655  58.1625080  47.5706720  37.6433372  94.3944740
  48.2746315  37.0047975  94.5082283  47.7846432  38.0925989  93.5767841
  56.2414551  74.7394657   3.3329254  56.9930124  74.9540663   3.8855052
  56.5681124  74.8317242   2.4379292  40.2081203  10.5351102  84.0417385
  39.3415499  10.5471933  83.6353588  40.5042124   9.6297383  83.9475822
  34.9628806  43.9489889  89.5756054  35.4597282  43.8399792  88.7647533
  34.1297817  44.3290329  89.2967796  68.1279469  45.9879255  89.8373985
  68.1076193  46.0995102  90.7878590  67.6725626  46.7575741  89.4960880
  65.4003572  34.3334889  78.6350012  65.3717995  33.4145904  78.9015341
  64.9940062  34.8062921  79.3613386 112.5736854  75.6274138   0.7216991
 112.6691482  75.7394444  -0.2241170 113.4096190  75.9217940   1.0833419
  76.0224247  96.4496994   3.3335513  75.8910179  95.5134583   3.1837925
  76.1946630  96.5202045   4.2724830  44.2071629  39.9636269  60.2936554
  44.5279741  40.8094549  60.6065130  43.4527397  40.1812267  59.7461796
  90.0945663  48.8133430  88.8823414  89.8721981  49.4109726  88.1684589
  90.5827618  49.3535662  89.5036697  43.3398438  36.5061045  66.1858463
  42.4560738  36.4086390  66.5403557  43.7053251  37.2553468  66.6562605
  52.0897007  15.6999540  66.3527632  52.5636721  14.9931788  66.7910004
  51.3112688  15.2773225  65.9899139  48.8321638  15.5982840  84.6486568
  48.3331537  14.8575866  84.3042946  49.7450018  15.3803957  84.4602871
  75.6603193  61.8315268  10.1627111  76.5678692  61.7124224   9.8827249
  75.1469326  61.7279673   9.3614972  13.7586856 100.7954693  50.8410692
  13.8679028 101.7460632  50.8668804  14.6415722 100.4493237  50.9711742
  66.1765862  12.9024553  77.2813654  67.1154499  12.8320324  77.1087265
  65.9020424  12.0075476  77.4813604  24.5442319  57.8337622  68.3689594
  25.3982902  57.9656601  67.9573584  23.9408970  57.7137566  67.6355982
  96.4111137  87.1784115  19.9933326  97.1196365  87.8215599  19.9691164
  96.6664219  86.5666771  20.6838608  47.6464224  93.7823677  72.7437067
  47.3019218  93.9963341  73.6107540  47.3965740  92.8687477  72.6054811
  60.6234932   2.1154116  93.9684391  60.2607346   2.5098941  93.1753349
  61.5380192   2.3978065  93.9796734  85.7396889 100.4328060   2.7169952
  84.8385239 100.3591156   2.4028327  86.1814117 100.9645844   2.0549384
  95.4562187  34.9035501  93.5066128  95.0517368  35.3211856  92.7462196
  95.8474922  35.6264758  93.9970398 101.9651413  59.5859909   4.6280926
 102.4034786  59.7902155   3.8020265 102.5594521  59.9151897   5.3023726
  72.3772335  79.6578503  18.4212101  72.3134327  80.4733372  17.9240727
  72.3408699  78.9691925  17.7573895  37.2132206  24.3954158  67.4617958
  37.8972197  24.2226219  66.8148661  36.8904495  23.5281515  67.7065563
  34.6756458  11.8917346  52.0230246  35.5813861  12.2013319  52.0269203
  34.1990495  12.5518537  51.5197086  11.6412008  26.5958619  42.4559212
  10.8587372  26.5884113  41.9046259  11.8949533  27.5178027  42.4991655
  42.4172831  23.7607718  72.8113604  42.9817724  23.5210085  72.0764446
  42.0820427  22.9258919  73.1381941  88.4196758 105.0128937   6.7008924
  88.1661415 104.1675854   7.0715749  88.4369469 104.8643303   5.7554489
  39.4447875  45.7277870  79.1545725  39.7176147  46.2941027  79.8764324
  38.6605048  46.1490488  78.8029051  50.5095291  19.3394995  89.1099644
  49.9148083  18.5985386  88.9937019  50.0717258  20.0691032  88.6715221
 104.5085621  71.6378403   9.6539283 105.3597546  71.5627193  10.0852787
 103.8859081  71.7547369  10.3714764 104.9300194  83.1454849  20.5488014
 104.2411613  83.3412361  21.1839271 105.4944897  82.5139999  20.9946918
  75.1399994  90.8484268  10.2728641  74.4863892  91.0135269   9.5933324
  74.6383572  90.8281803  11.0878348 106.6391277  87.5736904   3.6022595
 107.4599266  87.3241234   3.1777111 106.8064117  87.4525356   4.5369089
  71.0034847  22.2145700  66.4082098  71.7324638  22.7294207  66.0621595
  70.3144598  22.8575182  66.5758038  43.7300205  14.8854744  88.5857010
  43.2683659  14.4924545  87.8450012  44.3683004  14.2225802  88.8491344
  37.1702003   9.7590542  64.6618700  36.3156629   9.3313622  64.6063948
  37.1946907  10.3443456  63.9048576  53.1384802   2.4361093  77.7526903
  53.7381983   3.0015594  77.2660303  53.6193705   1.6159168  77.8634119
  34.3632555  54.8580027  23.8302827  35.1293683  55.2926493  24.2049694
  34.3231320  55.1781368  22.9290962  61.7351723  58.3128309  13.7407100
  60.8119774  58.3228636  13.4880435  62.0175648  57.4123764  13.5804939
  66.9441748  27.9113364  73.3763599  66.5162325  27.6152301  74.1797400
  66.5003586  28.7304282  73.1564808  43.1149673  11.9688642  62.9235983
  43.3935356  12.7257895  62.4081373  43.8751888  11.7543721  63.4642363
   4.4801608  21.1901569  81.3380909   5.2207077  21.7880726  81.4396858
   3.8457179  21.4812303  81.9930744  99.6269798  61.1585379   1.8987077
 100.2180862  60.6360579   1.3566330  98.7506294  60.9168291   1.5990080
  46.8013525  32.3740625  81.7090607  47.5284672  32.9367232  81.9754219
  46.1443043  32.4908328  82.3952675  24.6743298  24.6947980  77.7070284
  25.2632189  24.0085554  77.3931599  25.0632262  25.5088735  77.3872280
  48.9364862  12.3983252  72.3922253  49.0246677  13.3094120  72.6721811
  49.6800613  11.9506860  72.7958870  90.0577545  16.4806998  89.2245388
  90.9129143  16.7420220  89.5660686  89.8658180  17.1236515  88.5418987
  50.2427816  11.3201141  82.3752403  49.9323606  11.9515610  81.7262840
  49.7230911  11.5054369  83.1574249 112.9601288  72.9623556  13.7236142
 112.4510670  72.5491762  14.4210172 112.3095989  73.4203529  13.1913745
  88.3549595  66.7449665  11.2174690  88.4710884  66.2135744  10.4298329
  87.4206161  66.6796350  11.4148617  79.4665432  70.2052164  22.9880691
  79.0766001  70.6053209  23.7653017  79.2191696  69.2822361  23.0441213
  40.5143499  50.0656796  91.0684872  40.9714460  49.5729494  91.7500401
  41.2102461  50.3728104  90.4874325  78.1144524  13.8990939  84.5693302
  78.8194275  14.0805042  83.9477730  78.2473993  14.5331097  85.2740192
  60.9874725  47.6857996  93.8802338  61.7296553  47.2691059  93.4423161
  60.5331278  48.1591702  93.1832981  88.6753623  19.1999163  95.2621231
  88.9079909  19.3859829  94.3524554  89.0299313  18.3260549  95.4260805
  95.8855247  87.9640961  23.6650181  95.7534599  88.5958862  22.9581714
  96.7935467  88.0960464  23.9376473 102.4032497  92.6617336  74.4033003
 101.9346905  93.0321503  75.1512766 103.3151054  92.6158142  74.6907568
 112.7966595  93.5592937   5.1566935 112.0026875  93.4860897   5.6863070
 112.5184727  93.3173656   4.2733380  61.2347984  19.9230242  50.9809732
  60.6774092  19.5607913  50.2922487  61.7692184  19.1834867  51.2702990
  48.7202406  35.7389164  86.6833401  48.0004644  35.1364112  86.4958763
  48.6715031  36.3942170  85.9873199  65.0225973 102.5984478  71.8430614
  64.6741390 101.9481182  71.2332392  64.6881485 102.3282433  72.6982641
  42.6457262  27.4448824  81.1031914  42.9652119  27.7468753  80.2529240
  41.7381763  27.1877551  80.9404850 111.8124199  51.2723541   2.6721480
 111.7449093  52.2175169   2.8075758 110.9247112  50.9996271   2.4401480
  15.9867954  99.1562366  90.3878403  15.3974867  98.6285496  89.8488712
  16.4778185  98.5161495  90.9030247  35.4178238  28.4864783  73.3550739
  35.2681398  29.0285277  72.5804710  34.8684120  27.7148676  73.2172585
  63.3225918  24.3086553  57.3214817  64.0853977  24.6833467  56.8810606
  63.6170578  23.4481812  57.6199865  56.7650461  67.9075956  94.6164322
  56.0155821  67.6077414  94.1020203  57.0484638  68.7113523  94.1806698
  30.6402826 107.0809269  47.8065634  30.9527969 107.9012203  48.1882477
  30.6156516 106.4686584  48.5419226  78.5810280  28.3136654  93.3658695
  79.0183353  28.0753231  92.5484371  78.6866522  29.2631173  93.4259987
  60.2421188  18.8968372  83.7979889  60.1920557  18.3252132  84.5641327
  59.4643402  19.4511449  83.8615036  38.4942293  34.5839739  72.1125031
  38.6481977  35.3466582  72.6700306  39.2432475  34.0113568  72.2777748
  14.7851312  53.3537102  34.0616608  14.8122323  52.8912306  33.2240415
  15.4032409  52.8790665  34.6174359  73.6049414  18.7816751  77.1955538
  74.4969702  19.1266763  77.2341824  73.7094259  17.8356254  77.2970676
  66.1161852  34.7607136  75.7585382  65.7606936  35.5413556  75.3337431
  65.6504440  34.7091293  76.5931988  71.2332058  38.0410051  84.7114468
  72.0556259  38.5305190  84.7267056  70.6395054  38.5862160  84.1952133
  99.0253639  96.9104958   1.8696019  98.5259151  96.1508751   2.1691747
  99.2680454  96.6973877   0.9685324  49.0253067  25.4617643  57.1778345
  48.7643480  26.1979294  56.6244888  48.2717896  24.8716736  57.1624613
  43.0009317  45.2778387  61.8544006  42.6198578  46.1281395  61.6353035
  42.5153780  44.6521091  61.3168764  47.1009731  55.1012850  88.0062008
  47.1013689  55.9603596  88.4283733  48.0268669  54.8694611  87.9340172
  18.9812095  91.4842711   0.1936401  19.7491939  91.8644296  -0.2328717
  19.3363102  90.7988940   0.7596744  29.0446162  46.1452579  47.3037815
  29.5207143  46.9450045  47.0802546  29.6414757  45.6632710  47.8762150
  67.4838305   1.4385338  93.2748127  67.0829439   0.8030057  93.8677979
  67.3891735   2.2783387  93.7242603  78.7426996  10.9394729  49.0784407
  78.2035971  11.4363241  48.4630203  79.1128874  11.6020930  49.6616411
  98.6930943  69.0988874  32.1237493  97.9796219  68.8892889  31.5210414
  99.2327213  69.7289562  31.6462135  80.6324768  22.2199249  91.4413738
  80.9393692  21.4317155  90.9932899  79.6956396  22.2557902  91.2482929
  48.5553837  28.9357448  92.2154331  47.7314186  29.2690253  91.8601322
  48.3786297  28.0146265  92.4065590  10.3861153  21.1519957   6.1779398
  10.8001733  20.2895665   6.2096566   9.5325726  21.0232496   6.5916079
  41.4476395  95.0741863   9.2807871  40.8621788  95.6993294   9.7081822
  41.7920160  95.5476856   8.5235316  30.8983612  45.3026962  91.1542130
  31.2318754  46.1793661  91.3451195  30.9755826  44.8311758  91.9836330
  43.3970308  44.5753622  74.2593193  43.4900188  43.9160633  73.5716343
  44.2840672  44.9096441  74.3921614  89.0756416  16.0559189  80.0407314
  88.4788990  16.2974191  80.7491207  88.5395813  15.5344045  79.4433212
  25.0158572  17.4074531  76.7574310  24.2499590  16.9860828  76.3674545
  24.9730730  18.3131695  76.4507055  57.6439095  20.0907612  92.1820259
  58.4921169  20.2326775  92.6023197  57.8330898  19.4974458  91.4550972
   7.8437865  84.3150330   9.6995252   7.2884768  83.6596489  10.1218152
   7.2459275  85.0292683   9.4789296   3.1203660  82.0380306   6.8370086
   3.8612178  82.1200752   6.2364757   2.6760584  82.8843498   6.7862701
   4.3403706  92.9067707  15.0293124   3.4542739  92.5469303  15.0690329
   4.2335695  93.8314915  15.2522945  75.0721407  66.1528206   1.8035665
  75.0877666  65.2695179   1.4351031  75.9370661  66.5109634   1.6038960
  68.1237030  13.7297881  87.1243191  68.3104324  12.9148042  86.6583061
  67.9700136  14.3720734  86.4314365  51.3220787  34.6059656  73.6163902
  52.1820831  34.9864936  73.4380102  50.9407473  34.4595075  72.7507305
 103.1369114  55.8203411   2.7188864 102.2821331  55.4487324   2.5009844
 103.1159306  56.7027283   2.3484965   8.5993588  59.6798134  10.7652104
   7.8098851  59.1747904  10.9599352   9.3155599  59.0526533  10.8650076
  52.8705311   1.0100672  84.3802261  51.9340038   1.0124408  84.5780754
  53.1221628   0.0875546  84.4236374  59.6169758  91.4493752  32.1957445
  60.5122185  91.7282677  32.3880649  59.2069435  91.3509560  33.0550575
  52.2519016  16.8696773  74.7757769  51.5478754  16.4874804  75.2997112
  52.3042870  16.3104773  74.0006733  83.7821007  82.9592419   7.8053236
  84.0033627  83.3333015   6.9524711  84.5870018  83.0377293   8.3173847
  14.1412210  24.2311859  68.7948942  13.4215748  23.6652207  68.5155678
  14.0259576  25.0338459  68.2862854 101.3204575  97.5464249   3.0785763
 100.6593800  97.5242424   2.3866814 100.8519459  97.2706604   3.8664106
  96.9732857  59.8999834  26.1530876  97.2006321  59.1489124  26.7012095
  97.5030041  60.6181860  26.4992356  62.2040939  39.6357870  92.4148273
  62.7482462  40.4222012  92.3738194  62.8102589  38.9377689  92.6629448
  78.3130884  26.8965125  87.2997475  78.2610893  26.6909432  86.3663292
  78.8860416  26.2208295  87.6622486   8.4175509  86.6186142   2.3435530
   8.1864423  86.9432831   1.4732605   7.6154631  86.7168331   2.8566220
  71.7492628  37.5619102  91.7637157  71.2323332  37.0229936  91.1649036
  71.6792345  38.4483147  91.4092922  90.6136322  81.6190720  27.0138288
  90.3931904  81.3270378  26.1293197  91.3401604  82.2299099  26.8902826
  53.2712746   9.0466493  18.7466693  53.3880854   8.4657359  19.4984186
  54.1213560   9.4733459  18.6393356  61.5089798  31.4168406  94.1358280
  62.0822859  32.1828604  94.1635132  62.0157480  30.7230282  94.5577812
  13.7775159  83.5898876  34.8981047  12.9735684  83.7666607  34.4095826
  14.4425499  84.1268730  34.4672728  80.6464195  83.9819336   9.2745292
  80.9654427  83.3446026   8.6355758  80.3328705  84.7152901   8.7452817
  68.7349558  34.5590806  80.9033775  69.4693899  33.9485550  80.9674072
  69.0120363  35.3212333  81.4118958 108.8671207  78.6702013   4.3974254
 109.7835350  78.8342619   4.1749114 108.8903809  77.8853083   4.9448147
  33.2576895  75.7369280   7.3814052  33.2378483  74.9728012   6.8052560
  34.0262866  76.2314749   7.0969552  69.5333624  39.5813513  83.0867767
  70.0928783  40.2299261  82.6595497  68.6501884  39.7885704  82.7813435
  93.0748844  90.2744198  17.3137140  93.1288433  89.8399162  16.4625227
  93.8374519  89.9535847  17.7951670  95.0059223  54.3742180   9.8230737
  94.0689564  54.1898060   9.8888326  95.3794956  53.5818386   9.4373083
  62.6874971  46.2186813  87.6923180  63.5557795  46.6101885  87.5972366
  62.0944929  46.9663620  87.7668285  64.6216345  23.1459141  79.3621778
  63.8975239  23.6028504  79.7900820  65.3753853  23.7227893  79.4859028
 114.7659016  89.2917442   4.1334516 114.5348835  89.8179245   4.8989600
 115.2715683  88.5608864   4.4889283   0.4076238  77.7723980  40.5517864
   1.3415688  77.8182983  40.3471613   0.3673593  77.8472853  41.5051985
 110.9610271  97.0943928   4.8457411 111.4059925  96.5108490   4.2311570
 110.7703495  97.8806400   4.3341851  96.1353207  81.8873882   9.9239182
  96.1141968  82.8432751   9.9694490  97.0384789  81.6788864   9.6850282
  76.6666985  14.8184681  79.6794605  76.2588406  14.6910048  80.5359840
  76.7132378  13.9395666  79.3031645  95.2697945  91.3171387   8.0476677
  95.8072948  90.6170559   7.6772529  95.2867985  92.0080662   7.3854250
  48.3489656  35.6487846  92.1051884  48.3810282  36.5945458  91.9611835
  47.4338770  35.4139566  91.9512367 105.8897305   7.3107934  10.6775749
 106.8009949   7.2491920  10.9639919 105.7747650   6.5691900  10.0834036
  60.9734058  48.2503176  88.6287689  60.5976439  48.0065298  87.7828407
  60.8276510  49.1942024  88.6925220  35.2361274  75.5128479  93.8370419
  34.4471550  75.5802631  94.3748283  35.3399324  74.5742273  93.6806870
  81.3803864  76.8407154  69.4751787  81.9843483  77.1378708  68.7946320
  81.9353676  76.3766241  70.1019526  83.9750862  83.3694744  57.3810720
  83.0725479  83.4974480  57.6731157  83.9433098  83.5125446  56.4351606
  81.2838078  66.0964870  66.9698477  81.1821556  66.8984652  67.4824190
  80.7727909  65.4417419  67.4456549  84.2645073  76.5656471  82.8724289
  83.7131977  77.3002052  83.1420994  85.0160599  76.6003561  83.4642029
  94.1564560  71.8256235  59.6665668  94.8038006  72.5159454  59.5229149
  93.3620071  72.2924376  59.9257326  62.2156668   4.8115650   1.7236727
  62.9828167   4.2513967   1.6056608  61.6686821   4.6328869   0.9587479
   0.7606700   0.8490921  69.7542143   0.3588825   0.6693257  70.6042051
   1.6701669   0.5682222  69.8550081  90.8750153  69.0802288  84.1426849
  90.7963371  68.6336756  84.9856758  90.6746101  68.4051132  83.4943867
  37.0262527  20.2748847  36.3459134  37.9402828  20.5284238  36.4743638
  36.8497467  19.6504533  37.0495915 116.3678932  71.3510799  55.4138994
 116.0998249  70.6022596  55.9464788 115.5937672  71.9132900  55.3842735
  87.8180218  80.7528114  65.1086998  88.1235409  80.3730202  65.9325027
  87.2267437  81.4571095  65.3743839 110.5108547  52.9463673  88.2046890
 110.2144051  53.5441113  87.5183582 110.0037766  53.1977224  88.9766502
  46.2955475  42.7809429  12.8950262  46.7328882  42.8211403  13.7455261
  46.7749786  43.4044361  12.3494661  96.5454292  78.0489779  90.2914429
  97.4061298  77.6337671  90.2364349  96.6423893  78.8667536  89.8035145
  79.4368792  53.3746052  92.4174786  78.6523056  52.9242086  92.1047211
  79.4234657  54.2193937  91.9676113  82.3440075  71.8789721  75.7502413
  81.8339348  71.1055946  75.5095387  83.0554008  71.9053698  75.1103592
   7.1360952  73.5219049  73.5164404   7.3483729  74.1109085  72.7923965
   7.2504038  72.6440239  73.1524420  81.2698555  80.4734802  30.3165627
  81.0873604  81.3758087  30.0543928  80.4067421  80.0661945  30.3900814
  77.1961403  61.5620184  58.7073708  78.1367683  61.3963032  58.7705612
  76.9857645  62.0540094  59.5010424 105.8824635  37.1648264  63.2920980
 106.6170406  37.3458529  62.7056980 106.1295319  37.5771618  64.1198492
  81.5856361  72.6820421  80.6657982  81.1789227  71.8355274  80.8507919
  81.3711739  73.2221413  81.4264011   1.1359802  78.5104847  87.7952385
   1.7021671  78.0643368  88.4250164   1.4790680  78.2521963  86.9397831
  94.3146896  44.7664022  13.3443224  93.7315178  44.0128136  13.4351075
  94.8858452  44.5402050  12.6102567  45.2228737  10.8212841   0.4089862
  45.9413242  10.2136183   0.2334770  45.4564047  11.2346041   1.2401672
   5.4529005  80.6208038  68.7070608   4.8440498  81.0827923  69.2833376
   5.2820498  79.6935463  68.8720846  44.2011547  10.6052697   8.0244303
  43.7890530   9.9215430   7.4962991  43.9513206  11.4232087   7.5945574
  97.4368763  56.8580389  76.3594961  97.4781513  55.9257030  76.5722704
  96.5689278  56.9775343  75.9739828  81.3333607  77.2807407  36.6067696
  81.5547943  76.5856314  35.9870791  82.1276474  77.3992443  37.1276307
 104.5813179  35.3509140  90.8750439 103.7483692  35.1329613  90.4568100
 104.3333721  35.8044958  91.6806602  13.5001075 105.1099110  23.2287169
  14.3481290 104.6800995  23.3398700  13.0199277 104.9032784  24.0305662
 111.6620064  75.2810287  71.7589617 111.4823914  74.7004366  72.4984741
 111.1716557  74.8998642  71.0306025  74.5127630  68.1540060  90.3874016
  73.7156725  67.6240540  90.3820133  74.9541330  67.9144669  91.2022972
  28.5343194  15.1341450   9.8102951  28.9974260  15.2636325   8.9826506
  28.3864284  14.1895807   9.8567665  68.6955309   7.0369166  14.5695579
  69.2664051   7.6403379  15.0451827  68.5323620   7.4712664  13.7323320
  51.8959332  21.8824577   2.0097515  52.1185303  22.7447867   1.6589364
  51.2389517  21.5396881   1.4038481  15.7853174  84.8469162  89.7618771
  16.1105633  84.3642807  89.0019321  15.1319528  85.4471970  89.4026947
  87.4967957  64.0075827  83.1920624  87.9084682  63.4464979  82.5348377
  87.2296810  64.7883606  82.7070141  82.6885509  94.8392010  71.1077166
  82.1254635  95.2998447  70.4856396  83.4878159  95.3647709  71.1419678
  58.1047821  33.2550955  18.9294517  57.5224161  33.0335784  19.6560967
  58.6804485  32.4951744  18.8436472  92.0484161  30.3779292   9.8553967
  91.6348457  30.8293009  10.5912340  91.3678169  30.3420949   9.1832888
  45.1431179  12.2433627  12.9006529  45.2840710  12.0996928  11.9648516
  45.7785559  12.9188526  13.1376457 100.8195877  94.9757195  76.1652756
 100.9239674  94.2538643  76.7851639  99.8876381  95.1908875  76.2029171
  67.5066519  78.2252312  42.7571535  68.2089615  78.5486555  42.1928883
  67.5544739  78.7759304  43.5386133  71.0281229  76.1778688  94.5504570
  70.6130123  75.7320261  95.2887917  71.3475752  77.0022345  94.9173450
  70.8748198 103.3546162  68.8257885  71.1457396 104.0470409  68.2229757
  71.3466167 102.5776958  68.5257292  85.9510517  88.8961315  55.3655386
  85.0443268  89.1038990  55.1398945  86.4559841  89.1614628  54.5968580
  52.0233250  37.6179957  31.7438579  52.0832586  38.5728860  31.7151666
  52.6290846  37.3607683  32.4389267  40.2618361  89.1327477  20.6697440
  40.9812164  89.7335625  20.8640051  39.4722414  89.6648693  20.7678103
 111.5388107  41.5232658  71.6164780 111.0150051  40.9388733  72.1645164
 112.1086979  41.9829607  72.2330284  68.8853836  85.2540398  67.1177197
  68.3736372  85.6196690  67.8392935  69.5048857  85.9467506  66.8883562
  52.1167803  73.6549330  87.7132797  51.6645813  72.8115749  87.7354622
  51.9270086  74.0508938  88.5638332  90.3089333  70.0526953  89.4875050
  90.1065826  69.1840935  89.1399193  90.9152699  69.8865461  90.2092934
  75.9688997  80.2872658  88.4888554  75.3889418  79.6914387  88.0146503
  75.6696510  81.1616611  88.2396317  74.6113348  92.6629162  62.6132059
  74.9049044  91.8739510  63.0688190  73.7244177  92.8125668  62.9406357
  95.1126862  57.1519518  60.9617758  94.5794678  56.5088272  61.4290094
  95.2946949  57.8301287  61.6122961  77.1713686  75.7683563  75.7417822
  76.7431307  76.5735865  76.0323811  77.9969978  76.0617828  75.3564644
  94.0863323  55.4230499  82.0820713  94.9980831  55.6065273  82.3085308
  93.6616421  55.2475548  82.9217529  84.0021229  30.8380318  48.3836746
  84.7482872  30.9233356  47.7902126  83.9011860  31.7087555  48.7682295
  85.8545685  66.4973068  68.2099867  85.7606411  65.5743599  68.4457397
  85.0246716  66.8967485  68.4706640  80.9415245  98.6978817  77.7619982
  81.6037560  98.0303574  77.5828695  80.1948643  98.4464645  77.2183800
  77.6495695 102.1769619  53.1729126  78.5740566 102.3301983  53.3680296
  77.6579905 101.5420055  52.4566746  52.5988102  13.0263209  37.5827169
  52.2509480  13.7659967  37.0846176  51.8265629  12.6135468  37.9693437
  90.0224209  64.6158123  81.0482597  90.4324913  63.9636898  81.6164207
  89.0877914  64.4126844  81.0861683  32.6188779  25.7400513   0.7414202
  32.4051237  25.0915575   1.4122373  33.1810951  25.2707124   0.1250868
  77.8831005  61.1097813  41.6399288  77.8524876  60.1952648  41.3589478
  77.2798586  61.1527061  42.3818779  90.9415340  62.9353619  83.1833076
  91.8823051  63.0800962  83.2844925  90.7910728  62.0674419  83.5578823
  70.0690317  71.9835615  94.9156952  69.3571043  72.3777628  94.4117165
  69.6325493  71.5547943  95.6518173  95.0842381  89.4764709  60.1230860
  95.5988598  90.2401924  60.3840733  95.3839779  88.7762070  60.7027578
  73.4174919  66.7592144  78.3135557  72.6838207  67.3531151  78.4724236
  73.1615543  66.2654066  77.5345325  92.3988628  78.1627274  80.3220081
  92.8065300  78.5973263  79.5729065  91.4921761  78.4694290  80.3125572
   3.4455481  57.1028662  74.5210791   3.1047347  56.6181183  75.2728033
   3.2483363  58.0187511  74.7172928 100.5929279  83.0823612  55.7950115
 100.5585384  82.1366501  55.6512451  99.9403858  83.2449627  56.4761782
  28.5212469  24.5728779   4.3298325  28.6395478  24.7656989   5.2599168
  27.9635000  25.2808690   4.0075010  83.2813835  66.5407276  57.2357941
  82.5501633  66.7501593  57.8169012  83.6909199  67.3861265  57.0519114
  21.9132757  92.5565720  31.9574475  22.1859121  92.3754978  31.0579395
  22.4816823  93.2728767  32.2404051 111.5642452  70.1751709  79.8935032
 111.3090038  70.1791143  78.9709711 110.8335018  70.5964804  80.3459930
  36.0137105  34.8722649   0.9543958  35.7630754  34.1853571   1.5721090
  35.1920128  35.1301289   0.5366012  67.5230503  93.0483055  62.1279097
  67.4368763  92.0960999  62.1737051  66.7529011  93.3351707  61.6371822
  68.9147186  72.8314304  85.3303528  69.2275429  72.2210836  84.6626282
  69.1249323  72.4055862  86.1614323  69.5428514  10.1713467  38.9162660
  68.7989902  10.7599592  39.0444851  70.1098156  10.6329358  38.2984304
   8.9414275  85.9957695  36.7752409   9.7107744  85.4339886  36.8687201
   9.1079718  86.7302513  37.3660326  82.6481152  74.3762636  85.2430916
  83.4984207  74.1059208  85.5896854  82.0934772  74.4723701  86.0172749
  76.0750151 109.7598267  93.7464619  75.7088614 108.9278698  93.4464455
  75.3289175 110.2291775  94.1196632  91.3174915  61.2923956  70.8972692
  90.6637383  60.6058693  71.0296488  91.9963741  60.8772802  70.3652668
 109.9878597  86.5130043  75.8265209 110.0482559  85.5694485  75.6772232
 110.1801872  86.9032097  74.9738836  97.4148655  50.4920530  43.5779285
  96.7684269  49.8179531  43.7875605  97.9788780  50.5314827  44.3503046
  93.7554646  61.4184380  90.4708195  93.5654354  62.0050955  89.7387218
  93.0710030  60.7507563  90.4265881  69.0741348  72.3715878  38.5041118
  70.0250816  72.4196339  38.6021948  68.7330389  72.9380465  39.1962147
  35.8379579   1.7787762   4.7038901  36.2317085   1.8954772   5.5685133
  36.0669208   2.5763965   4.2268056  42.3842525  42.1713543   6.6635060
  42.9120874  41.7911148   5.9613389  43.0233479  42.4515533   7.3186988
  77.1223688  67.2848272  67.5379419  77.1387434  66.5355873  68.1334209
  76.3239050  67.7585411  67.7709246  36.0218072  29.3064141  17.5460351
  35.3629327  28.9961815  18.1672215  36.5608191  28.5365844  17.3642159
  81.5139961  80.6023693  69.9358797  80.9486771  80.4526711  69.1780949
  82.0527554  81.3537407  69.6880674  88.0915928  84.8059368  64.6574926
  87.8479481  85.5889511  64.1637707  88.6205101  84.2926311  64.0467596
  93.9273739 105.2663422   0.7010391  93.2625961 105.6226063   0.1116539
  94.5137501 104.7709751   0.1291985  85.2684879  93.8796043  64.1974020
  85.5593491  94.7915363  64.1956139  85.8876324  93.4318542  64.7739601
  33.6207247  39.6226764   3.0606294  33.1827569  39.1677666   3.7799856
  34.4890714  39.8333883   3.4038553  32.5571990  33.3140755   0.2478072
  33.1181502  32.5599837   0.4292249  32.8501129  33.6303854  -0.6068166
  53.1789064  35.4613256   3.8531658  53.4108114  34.7780395   4.4821095
  53.4597826  35.1132226   3.0069017  68.9264107 102.0781040  82.1371937
  68.2687092 101.4310646  81.8822289  69.0920591 102.5788021  81.3383865
  30.7227731  28.3062816   4.0483373  31.4064121  28.6962128   4.5931530
  30.4549050  27.5210261   4.5256731  82.7776146  61.7102480  49.0771580
  82.6014328  62.5319719  49.5353746  83.3028221  61.2000656  49.6936846
  88.1194210  63.8916016  67.2002459  87.2318077  63.5355139  67.2399616
  88.0419922  64.7699738  67.5726700 108.3731747  77.1617460  87.2587681
 108.0753422  76.4717817  87.8516293 109.2058754  77.4534750  87.6299000
  45.2319685   0.6526555  92.2745514  44.3002173   0.7273759  92.4806786
  45.6429288   0.4156006  93.1058979  72.3271751   5.5262256  22.3474288
  72.8803253   5.5709004  21.5675187  72.6154280   4.7338071  22.8004360
 116.0245228  56.3373947  63.2488537 116.5395832  57.1442032  63.2485485
 116.5333366  55.7282114  62.7138424  59.5247555   7.0168811  14.5067883
  58.9664221   6.2432241  14.5839310  59.7617817   7.2321039  15.4088581
  52.2400475  55.8788300   6.0911512  51.8832493  56.7099237   6.4045286
  51.7714214  55.7099962   5.2737671  99.3463612  62.9876471  89.3010330
  99.7128010  63.6730528  89.8597527 100.0585842  62.3565197  89.1978168
  58.5021925   6.6892040   7.0365930  57.9007053   6.0954201   6.5872967
  59.3644619   6.2904257   6.9195360  78.8913774  91.6188526  74.4195032
  79.2483473  91.8317699  73.5572577  78.0844212  92.1303940  74.4776297
  97.3989391  65.4846048  60.5599260  96.5736389  65.2026033  60.1654911
  97.3046780  66.4317465  60.6612396  91.8617249  74.2900658  66.6480017
  91.5349197  75.1353121  66.3397884  91.5955925  74.2509031  67.5666237
  92.9325008  55.1103449  92.3223209  93.6328697  55.6751204  92.6490498
  92.9075146  54.3786669  92.9389668  61.9676638   1.6836430   5.7956183
  61.7109013   0.9352289   6.3343018  62.4729204   1.3005190   5.0785673
  88.2685947 105.5820751  90.5200481  88.8460255 105.5051899  91.2795830
  88.1046677 104.6781063  90.2513313  36.8593884  24.3543911  25.4109883
  37.8124595  24.2931604  25.3466773  36.5349650  23.7156367  24.7761869
  93.1130505  63.1105232  88.5950851  92.9437065  62.7128363  87.7410412
  92.3080826  63.5853052  88.8020611  82.4070740  53.1060505  90.6578636
  82.9645443  52.3807716  90.3760242  82.4136162  53.0557346  91.6137123
 109.4257736  82.9044533  67.7657747 109.8838615  83.0943394  68.5845137
 109.7763348  83.5403824  67.1421289  41.9522429  37.3061180  14.7353160
  41.3143539  36.5961528  14.8079765  41.4978886  38.0729723  15.0842106
  60.4771233  87.5433445  84.0920544  59.9489546  86.7954540  84.3712044
  61.1589098  87.6176453  84.7597885   1.2253637   9.5172542  78.0844641
   1.4968160   9.1791141  78.9378166   1.9850980   9.3782204  77.5190401
  82.0975018  77.5724077  64.8787069  81.8786621  78.5039520  64.8549032
  81.2531567  77.1301889  64.9666834  50.0407553  75.8301830  76.2381124
  49.7341442  75.3473282  75.4706001  50.1573086  76.7274523  75.9257746
 116.5290928  78.7864637  53.5372925 116.0534477  78.0887699  53.9880943
 115.9999084  79.5705080  53.6838388  85.4343891  77.3995113  91.6478443
  84.7549248  76.8030596  91.9621658  85.1507282  78.2638931  91.9455147
  69.0868092  40.8023357  11.7466831  69.8005056  40.4208088  11.2355030
  68.5970831  40.0480270  12.0744276  82.4997425  24.5755076  28.6491680
  82.7064610  25.4397058  28.2932758  81.8840122  24.7505808  29.3608284
   7.5218093  39.9918485  83.5005283   7.7910668  39.0770388  83.4177113
   7.9057246  40.4244947  82.7378654  67.8798580  69.0817833  12.6678503
  67.7094841  69.9387407  12.2769129  67.1889210  68.5181189  12.3198247
  84.7845268  72.3233414  69.8630810  84.2022896  71.7237997  70.3297472
  85.5315304  72.4375868  70.4505873   5.9285575   2.6761192  61.8256092
   6.0189593   1.9037080  61.2675428   5.4001391   2.3765877  62.5653982
  27.4087238  18.1412911  28.8669729  27.1591926  17.2222877  28.9639187
  26.7611909  18.6210632  29.3834519  89.5997238  72.0373392  69.8338842
  90.1133919  72.5594616  69.2176342  90.2483082  71.6662073  70.4320765
   6.9749320  88.6164188  63.3226824   6.6567492  87.9454517  62.7186918
   7.5371635  88.1409359  63.9342737  78.0299759   8.5366118   3.5230392
  78.5538292   7.7791286   3.2622111  77.9949617   9.0849453   2.7392429
  54.7711468  27.1170068  19.1082525  54.2310953  26.6531968  18.4683645
  55.6605387  26.8043637  18.9425218  41.9502497  11.1448944  15.5160153
  41.3689280  11.7971683  15.1250672  42.1631718  11.5003467  16.3788879
  88.0898952  79.3785238  84.6967888  88.4960747  78.9443588  83.9466190
  88.4407139  80.2688980  84.6770477  58.3892822  81.2006855  53.6920547
  57.4373627  81.2314606  53.7876368  58.6708021  80.5292034  54.3134117
  86.5327644  67.7045012  83.2965851  85.7473755  67.5968981  83.8330746
  86.9464684  68.4989071  83.6342239  77.8550386  90.2037907  89.2371273
  78.7874746  90.0330639  89.1042519  77.6884747  89.9339867  90.1402855
  33.6529517  27.3608708  35.6519318  33.7491179  27.3010254  34.7014570
  33.4267449  28.2769823  35.8125687  68.4850073  19.9395633   4.1583067
  68.7830544  20.8094954   4.4240433  67.6897573  19.7921073   4.6702352
  77.7723122  88.1209850  78.4719419  77.4022007  88.3546543  77.6206827
  78.1487274  88.9369965  78.8015985  78.3906698  28.4843302   6.0875905
  78.3893156  28.7337542   5.1634598  77.6009941  28.8893938   6.4461565
  24.4857029  10.1328921   0.3581966  25.2713255  10.2769875  -0.1693093
  23.9807467   9.4868922  -0.1356923  52.5902557   5.6093031  17.3482108
  52.4055481   4.7073951  17.0861471  53.3888292   5.5476624  17.8723347
   1.4707217  66.8475056  72.0320702   1.1275895  65.9607029  71.9221544
   2.1427052  66.9298887  71.3554001   6.0749924  57.2616434  73.5738516
   6.3471049  56.3797379  73.3200216   5.1676601  57.1589994  73.8609838
  58.8112211  23.3108664  14.3664432  57.8987932  23.0520439  14.2371523
  58.7865353  23.9116192  15.1112378  98.9660740  67.0605278  58.3260632
  98.6542797  67.0952415  59.2303896  98.1699848  66.9762325  57.8013039
 104.7846317  73.2408142  83.5286427 105.3352070  72.5943232  83.0868912
 104.2945480  73.6609936  82.8218937  77.8020430  83.5516167  71.2347317
  77.1856308  84.2774487  71.3319016  78.2583809  83.5107899  72.0751572
  22.6383376  15.9342146   0.4301108  22.8391480  16.5179300   1.1616731
  23.4508681  15.4513180   0.2789934  85.9483433  69.1344786  79.9420118
  85.2184772  68.5551500  79.7231436  85.5353832  69.9738693  80.1447868
  70.1441145  81.8784523  77.1826649  71.0247898  81.9535351  77.5500917
  69.6654129  81.3430977  77.8154898   4.6284926  47.7224874  88.9206219
   3.7059131  47.7658081  89.1720295   5.1062649  47.8419352  89.7414207
  72.0302820   0.3243878   2.2389059  72.0552444   1.2628642   2.0521678
  72.9432821   0.0435564   2.1772929  39.8237967 105.8822441   1.1060504
  39.6680856 105.1376820   0.5250142  40.0176525 106.6103268   0.5156707
  39.0485811  26.3740754   9.0663677  39.4589949  26.6471481   8.2458645
  39.5547509  25.6109262   9.3449825  58.5919619  23.2209587  32.6578736
  58.7552977  22.5876546  33.3567858  57.8290081  22.8750706  32.1947336
  93.5307980  51.9824076  66.0274649  93.3815479  52.3701715  65.1651430
  92.8297234  52.3371315  66.5741777 116.1455846  62.3203564  70.8300591
 115.8958043  62.0412397  71.7109299 115.6238794  61.7688131  70.2470875
 110.2530479  58.6197090  77.9625368 109.3907452  58.7217188  78.3653688
 110.2308655  57.7485371  77.5665569  23.8725066  50.9422207   8.6629426
  24.7043800  51.2584066   9.0154308  23.9727902  49.9908829   8.6292267
  80.7987213  68.3119965  79.1784477  80.8157921  67.4011755  79.4722939
  81.2939072  68.3087111  78.3592939  86.3801861  87.6487446  60.2219009
  86.8419647  87.5809193  59.3862009  85.8002567  88.4026623  60.1145983
  41.4460230  23.0145073  17.4031031  42.3569012  23.3079600  17.3826480
  41.4605141  22.2261024  17.9457259  18.2086277  96.2905693   4.5187533
  18.1544018  97.1993828   4.2232051  18.9274955  96.2867260   5.1507711
  44.6665621  18.7272274  52.7377176  45.0273228  17.9483736  53.1613588
  44.4627190  19.3204427  53.4607458  76.8795729  92.1265125  85.0775337
  76.9447279  92.7081680  85.8349323  76.9964266  91.2480831  85.4393768
  42.8832150  72.0401049  70.4764652  42.7914715  72.4530077  69.6177864
  42.3310232  72.5657892  71.0552359   8.1841767 103.6879826   3.2124665
   7.7348202 103.8593864   2.3848602   8.0548352 102.7520466   3.3658737
  11.6608834  89.4464397  83.3552170  11.1607313  89.8896313  84.0405369
  11.4376283  89.9180698  82.5527573  81.2119389  69.2396259  85.0516415
  80.8338356  68.9903688  85.8949375  81.7457199  70.0098467  85.2467632
  25.8882928   5.4420024  60.7618093  25.2977204   5.3469533  61.5090847
  26.6649413   4.9379587  61.0046911 111.1725426  94.3177128  83.5095692
 110.6882191  94.0421867  84.2878723 110.4944515  94.5300102  82.8681946
  13.0088091   4.3685758  66.3084555  13.1537867   4.0418884  67.1964216
  12.0587039   4.4626346  66.2399960  78.9846706  30.3572798   0.7793321
  79.7828913  29.8376012   0.8742587  78.9521980  30.8932948   1.5717116
 116.1027996   4.4632918  66.6335011 115.4504454   5.1543885  66.5192604
 116.4156979   4.2804649  65.7475567  97.9369779  76.2735010  95.0303131
  97.1498390  76.0931897  94.5163721  98.2703157  77.0981098  94.6765640
 115.0189018   5.0909746  60.0446844 114.6339512   5.9053695  60.3684187
 114.9657059   4.4891796  60.7871437  37.2184658  52.2889090  12.3835993
  37.7229309  52.1652222  13.1876194  36.5742970  52.9610729  12.6060271
   0.2078475  72.5427771  70.4862595   1.0001773  72.1581554  70.8611107
  -0.4471103  71.8472433  70.5453920  85.6159878  25.2233315  28.0796814
  85.1428699  25.9330535  27.6453018  84.9347687  24.5989323  28.3292556
  47.1777391  31.4158177  36.5572882  46.6910601  31.6065192  37.3591661
  46.6981316  31.8786025  35.8702397 108.5660744  89.0245628  84.4236565
 107.6911259  88.6699009  84.5814705 108.5674095  89.8685837  84.8751736
   3.2328755  66.3168812  63.5522890   3.4180924  67.0857859  64.0914631
   2.5959843  66.6244173  62.9072905 106.4165497  90.1460648  47.7256250
 107.0798302  89.4604206  47.6469517 106.2790012  90.4503059  46.8285465
  61.9578934  38.7635064   5.3708470  62.4832630  39.2058206   4.7040823
  61.1001158  39.1850638   5.3184664  96.8560886 100.4198265  60.0726366
  97.6986694 100.8118439  59.8432779  97.0446014  99.8781872  60.8390045
  87.3953629  61.4878607  51.9249821  88.1747627  61.5607071  52.4758673
  87.1997547  60.5509901  51.9094610  92.1680260 102.7300644  81.3865757
  92.7824306 102.2423935  81.9351387  91.4978600 103.0406570  81.9953823
   4.4478410  69.8585176  92.6067543   3.7107009  69.6041203  93.1618500
   4.0604547  69.9959373  91.7422962  83.2425594  79.2061043  93.5614872
  83.2282639  79.6252918  92.7010727  82.3572540  78.8599968  93.6740303
 113.0041885  78.6634827  83.5623169 113.5631847  77.9280806  83.8132000
 112.2816658  78.6400700  84.1897297  70.0097990  65.0525570  54.9265575
  70.2665758  64.1512489  55.1213408  70.7415199  65.4060745  54.4207478
  76.2653208  78.3317041   4.1689363  75.9577703  77.9512691   3.3461860
  76.0889912  77.6575756   4.8252088 103.2310772 100.3510666  27.8515148
 103.0103493 101.2824440  27.8590131 103.0541897 100.0702190  26.9537020
  53.3260298  14.0230286  10.2746165  53.4856749  13.1093299  10.0381875
  53.6256456  14.5227981   9.5152140   2.8302160  90.4948330  72.0485210
   2.3906524  90.1932716  72.8435516   3.7184942  90.1451588  72.1186352
  96.7993546 102.7504063  87.7148724  95.9062481 103.0839634  87.8003979
  97.2785473 103.4570789  87.2821808  88.8345051  63.5058308  61.3364697
  89.3130016  63.5254431  62.1652555  89.5103168  63.3670855  60.6729507
  97.9295540  22.8502798  93.2793045  97.5211906  23.5496092  92.7690029
  98.8590622  22.9029393  93.0568981  67.3017740  95.6139755  91.1130428
  66.6974354  94.8726273  91.0754108  67.9108095  95.3909969  91.8170261
  95.2546310  73.6603212  57.6079464  95.8358669  74.1303444  57.0100546
  94.3770885  73.8105488  57.2564030 113.3400726  92.7923489  94.5210361
 113.6859798  93.6848545  94.5232201 114.0782070  92.2487259  94.7964764
  38.6356187  99.9941349  14.9527693  38.3630991 100.5912590  15.6494844
  37.8162766  99.7041893  14.5517194  55.3579473  34.0157318   8.4361184
  54.4509029  33.9302397   8.1425232  55.8451843  33.3972168   7.8918123
  68.8132143 106.6040802  60.7004499  69.3853283 106.1507511  60.0812531
  67.9737186 106.1500454  60.6274557  39.6531940  12.7587998  80.4905510
  38.9173484  12.5536573  79.9137688  39.2450762  13.0141711  81.3178730
  17.7954686  24.4914985  55.8344126  18.4471536  25.1863432  55.9278297
  18.1568837  23.9128542  55.1630068  41.9560957  33.9679980  37.4681306
  41.3843632  34.7333932  37.5274825  42.4666691  33.9870811  38.2775664
  86.3341236  97.5631142  89.9473000  85.7585239  97.6273537  89.1851997
  87.1905231  97.8440571  89.6249866  99.3064022 103.4395790  81.1666107
  98.6139870 102.8534985  81.4720631  98.9485550 104.3185616  81.2913990
  76.6523123  59.5038271  49.9042273  76.6015244  58.7965012  49.2613077
  77.5903654  59.6535683  50.0219727   9.4642752  19.1499329  91.1895847
   9.4948715  18.2100630  91.3683128   9.0800935  19.5314550  91.9789410
  27.0689130   7.5769138  87.7236938  27.8558064   7.1574163  88.0716228
  27.1824098   8.5052752  87.9273987  11.9573140 100.4433441  54.4959736
  11.2852740 100.7207680  53.8733768  11.5415871 100.5340958  55.3533888
  22.2920537  66.0994387  90.9013367  21.8531370  66.3903427  90.1019859
  21.9950891  65.1976442  91.0230255  29.0151119  29.1027474  26.3082051
  29.2084622  29.5895147  27.1093965  29.3040967  29.6801043  25.6015396
  36.3654089   2.2907822  76.9087362  37.2688389   1.9992822  77.0315123
  35.8603549   1.7776440  77.5394869   6.8155408  88.4200573  51.2743092
   6.5553027  87.8718758  50.5340338   6.8878204  87.8112602  52.0094109
  94.1690445  57.0535231  78.3425474  94.4842052  56.5489721  77.5926638
  94.7913170  57.7763414  78.4234715  85.4252529 101.8468952  88.5541058
  85.1387596 101.5538406  87.6890755  85.4679108 102.8004265  88.4819698
  42.0811272  21.5523124  24.4572902  42.3993063  22.4406385  24.2964339
  41.1750317  21.5629292  24.1488957  88.9993572  91.6694736  84.0714741
  88.9214802  91.8681812  85.0045776  88.2067204  92.0377541  83.6812019
   8.1092286  91.7452049  73.9912224   8.0084628  92.3358917  73.2447863
   7.2517145  91.7482567  74.4165373  45.8057070  30.3384805  13.6020696
  46.4424562  30.1484728  12.9130983  45.0285053  30.6418586  13.1328678
  83.9414310  87.9510689  64.0098906  84.8614407  87.9258156  64.2728853
  83.4644127  88.1177044  64.8228645  79.8315382  97.0599270  87.0557976
  79.8144865  96.9820404  86.1019230  80.5615330  97.6526642  87.2346973
 101.6396332  88.8539886  82.1111870 102.5827599  88.7098312  82.0340252
 101.2474346  88.0245781  81.8382549  89.8007679  88.1520653  53.3359957
  89.9457550  88.7525082  52.6047707  89.6664619  87.2992420  52.9226112
   4.3922693  64.6393251  48.5526800   4.9957958  65.1233435  47.9890156
   4.2811641  65.1991081  49.3211365 110.7893467 103.3947754  14.4448972
 110.4966259 103.7447929  13.6034489 110.6757641 102.4478722  14.3629885
  65.4347992  87.8143692  81.3379383  64.6197939  87.5107384  81.7376995
  65.7235670  87.0803642  80.7956505  81.8563557 102.9295349  44.3178511
  81.2052345 102.5635719  43.7192345  82.6596642 102.4473381  44.1218710
  77.3716259  54.6489763  16.0000229  78.2930326  54.6939230  15.7446373
  76.9396305  55.3065538  15.4548585  92.5844479  74.7330379  81.9631577
  93.0366993  75.5345440  82.2263718  91.6949081  74.8380756  82.3006821
  14.1122043  93.9825630  74.1989183  14.6931636  94.3559837  74.8616934
  13.2791734  94.4361210  74.3276548  96.3164425  92.1690178  77.8425646
  96.3532543  92.4308395  76.9226027  96.4296150  91.2186813  77.8258371
  25.8573961  99.6704674  67.4581718  25.5840945 100.3360748  68.0894518
  25.1048541  99.0830421  67.3885727  85.6295681  41.8410397  90.3051662
  86.5349960  41.7045641  90.0262260  85.6836510  41.9360352  91.2561035
  28.5603786  17.8035378  26.1707592  27.9975247  18.4646642  25.7678461
  28.6221290  18.0686080  27.0884490  69.5024681  92.6858139   5.9746748
  69.7096634  92.7805710   6.9043642  69.1481304  91.7999840   5.8973330
 104.4368553  89.8695564  62.5230551 103.8256550  90.4928112  62.9157591
 103.8951206  89.1140079  62.2952318 115.1677227  78.6271238  86.2077427
 114.6873760  77.7993917  86.2265396 115.9973812  78.4325314  86.6436768
  86.9410133  90.0091648  65.5554724  86.3544941  89.9941254  66.3117790
  87.6943111  89.4842434  65.8260918  49.4802713  48.6415148  27.9005814
  49.8905849  47.7794933  27.8313541  49.8784304  49.1535282  27.1966338
  50.7226229  32.5021577   1.3854367  50.7399940  33.3652687   1.7989191
  50.8332777  31.8870068   2.1104029  95.7837963 100.0532246  85.4997253
  96.6695404  99.7405148  85.6838512  95.9012222 100.7214069  84.8244667
  82.5496483  89.5195198  67.3300934  81.9207382  89.3820763  66.6216993
  83.1656265  90.1640987  66.9818020 104.1002083  78.2563591  88.6277866
 103.3167171  78.8026428  88.6906052 104.5382595  78.3679199  89.4715214
  67.0395565  75.8796740  91.6227436  66.4034510  75.2828836  91.2284851
  67.1118546  75.5866623  92.5311184 109.8297119 103.4668159  90.8827496
 109.4601154 102.6348782  90.5869198 109.5830345 104.0937614  90.2027988
 108.8497162  61.9316959  82.0445061 108.7016392  60.9861422  82.0598221
 109.5747375  62.0704842  82.6538658 106.3272285  77.0165825  62.8746986
 107.0347691  77.3380136  62.3158646 106.5498352  77.3345423  63.7496758
  71.0555983  41.1431646  20.2745533  70.7917881  41.9785976  19.8889482
  70.2664804  40.6026268  20.2378631   3.0648255  65.6053019  57.7041721
   3.8679963  65.0954723  57.5982428   2.7022684  65.6674290  56.8204737
  42.2326612  21.5896320  13.7962532  43.0096197  22.1007276  14.0228546
  42.5712299  20.8501935  13.2914400  52.3188972  37.4490571  21.7435288
  51.5337610  36.9131112  21.6314745  52.9917145  36.8313241  22.0298052
  60.3963423  33.4989524  32.1001172  60.2876472  32.7320123  32.6624489
  61.1381197  33.9705753  32.4790287 115.8305886  88.5187149  73.8238287
 116.7108020  88.2800102  73.5331869 115.6241326  87.8832912  74.5092773
  93.3405113  93.1561565  77.4582577  94.1898632  92.9536438  77.0660639
  92.7015781  92.8852177  76.7990255  78.6005306  85.9771061  88.4282207
  77.8784895  85.5539227  87.9636860  78.7836266  86.7662144  87.9183006
  83.9766788  74.4589138  76.7681408  83.7080479  74.5268536  77.6843548
  83.2056236  74.1146469  76.3173723  86.8572712  88.0103302  86.1922646
  86.5778065  87.4914646  86.9465256  86.5660381  87.5053692  85.4330349
  28.0926633  21.4008522   7.2677553  28.4656191  21.3512230   6.3876003
  28.3938932  20.6021857   7.7009094 112.3164368  73.9458418  90.0707150
 111.3751602  73.9805508  90.2411079 112.4853420  73.0312014  89.8445892
  45.2898291  59.1173224  -0.3395211  44.8741534  58.7010174   0.4155505
  45.6573859  59.9302147   0.0073779  42.0025969  14.7685099  51.0572910
  41.7359161  15.6610179  51.2776136  42.5708437  14.8699224  50.2937174
  81.6986561  95.8244610  91.7206764  82.4108887  96.3816547  91.4068413
  81.5316010  96.1289310  92.6126480  86.9672966 103.0611229  79.1553688
  86.2192822 103.6186218  79.3696213  87.6547623 103.6732197  78.8927555
  84.1302776  73.1106949  44.0741301  84.5478249  72.5091124  43.4576941
  84.0662384  72.6124382  44.8889112  31.3950109  84.8318863  82.6008034
  32.2825480  85.0200844  82.9059124  31.3009071  83.8852596  82.7070141
  96.7239614 102.9980970  95.2499238  95.8627410 102.8041864  94.8798856
  97.0650144 103.7067962  94.7043419   8.4331864  71.8249607  76.7050648
   7.5666970  71.4500618  76.5473366   8.8657486  71.1944628  77.2809029
  14.4506466  71.5474224  76.2829447  15.3316164  71.9217539  76.2837791
  14.1301227  71.6912985  75.3925514  98.1412904 109.0813745  64.0034342
  98.9209764 109.5726705  64.2621756  97.4319451 109.7232420  64.0361261
  73.6722946  79.2563105  82.6880360  73.5621405  80.1224613  82.2957706
  72.7860260  78.9894104  82.9320240  25.8899903   3.9693424  75.2236032
  24.9710250   4.1505304  75.4208469  26.1110973   4.5855916  74.5253325
  95.8992958  67.9734087  81.1730003  95.7163525  67.0874548  81.4858055
  95.4716396  68.5454798  81.8102360  99.3504238  83.7709141  64.5711184
  99.9135780  83.1204128  64.9905729  99.7553444  84.6115685  64.7846317
  38.2844281  30.0045562  23.4759355  38.4568143  30.1854897  24.3999362
  38.8548517  30.6103373  23.0027771  25.0213051  26.1554527  88.2268429
  25.7413888  26.0925364  88.8543415  25.4379392  26.0444546  87.3722458
  96.1395168  52.2565603  93.2644939  96.0289478  51.5986156  92.5781250
  95.2487183  52.4502134  93.5563946  45.5880308  30.2379751  66.5344429
  45.3190470  29.3775582  66.8562603  46.3964128  30.0705123  66.0499811
 111.1339378  45.3664160  38.7387133 111.5947247  44.5294142  38.6810112
 111.2140751  45.6210709  39.6579289   7.1020913  85.9959316  64.6753502
   6.7623270  85.4864597  65.4110336   7.9695350  86.2814999  64.9620962
 110.5875778  96.2186050  64.3306971 110.3765106  96.7474461  63.5612774
 110.3107643  95.3329086  64.0958357 103.2170868  77.6132774  68.1449270
 103.8799477  77.8780985  68.7826729 102.6017284  77.0789099  68.6469316
 101.7361164  75.9879112  81.6764069 101.8705463  76.1264944  82.6139355
 100.8111095  76.1891937  81.5347481  53.3198977  25.7013035   8.7623447
  53.9362097  24.9717546   8.8267446  52.7563858  25.6073022   9.5303625
  31.8378925   1.9285391  66.3753223  32.1473217   2.3884363  65.5949497
  31.3908553   1.1535258  66.0351133  42.9703379  53.3637476   1.8076281
  43.0984831  52.9962397   2.6821294  42.2671556  52.8373384   1.4272866
  36.7386937  64.9188995  89.7203541  35.9501791  65.1788712  89.2440224
  36.6521025  65.3407240  90.5752182  92.3736572  36.3613772  29.1958618
  92.2619438  35.7735443  29.9429917  93.2775784  36.6684270  29.2657471
  14.5426583   6.5591735  60.2804422  15.4232180   6.9333351  60.3095722
  14.1282940   6.9802475  59.5272970  70.2103376  75.6996679  80.6320477
  69.8406315  75.9250307  79.7783709  70.6470442  76.5002680  80.9228325
   6.5625882  19.7328496  90.2038765   6.2709069  20.6445265  90.2040100
   6.2288368  19.3744743  91.0263157  31.4605308  24.6276188  30.4639268
  32.0481467  23.9726543  30.0871468  31.8001032  25.4645896  30.1470637
  30.8034825  36.9949746   4.5396879  30.5314350  37.9064322   4.4326100
  30.2150226  36.6464806   5.2093899  37.7054071  41.1564064   1.1129745
  38.6539078  41.1223459   1.2371415  37.5780702  41.7997742   0.4157719
  80.8856583  69.4856882  26.2179995  81.3081264  69.6972847  27.0504546
  80.3099823  68.7486839  26.4220858 107.8781033 102.4734974  71.9505215
 107.6226139 103.2832432  72.3924255 108.7201500 102.2421265  72.3425102
  86.2141514  10.5935276  89.6043015  86.4544582  11.0184240  88.7809181
  87.0377445  10.5236638  90.0870514 103.3594799  79.5751858  94.3139744
 103.0262661  78.7185049  94.5810032 103.7639141  79.9319839  95.1047802
  81.5129375  71.8537951  93.8436508  81.0797501  72.4856853  94.4174862
  80.8347416  71.5912294  93.2212830  16.7575812  27.5889468  94.1209698
  16.1895323  26.9012451  94.4682693  16.6001296  27.5756049  93.1768990
 114.1273785  58.9658070  59.2970610 113.2579231  59.0561438  58.9070225
 114.1807079  59.6805525  59.9315119 113.9002991  81.7250061  70.7107258
 113.5828018  81.8834972  71.5997219 113.7388897  82.5475502  70.2485514
  43.6318207  13.0495822   6.2366307  42.8235388  13.2427192   5.7616484
  43.9010620  13.8916719   6.6035432  54.3491364 100.5484486  29.8772550
  54.1354609  99.9087334  30.5564809  54.6810198 100.0230026  29.1492510
 100.7698345 104.4438457  87.2928524  99.8765087 104.2896843  86.9855499
 101.2799454 104.5699024  86.4927769  42.1643019  76.6401100   2.6405466
  43.1001663  76.5954304   2.8364789  41.7355585  76.4471245   3.4743154
  53.2965565  42.1866703  12.9730046  52.6362658  42.0699072  12.2899127
  53.0362225  41.5779495  13.6643207  84.2375946  71.5680695  94.2035580
  84.3130016  71.4535236  95.1508904  83.2962322  71.5378428  94.0328312
  30.8171439  49.9759960  10.7347894  31.2849855  49.1607332  10.9156299
  29.9541497  49.8494339  11.1290669 101.5240669  80.9189129  71.6350079
 101.3479328  81.7957211  71.2937975 101.0573769  80.8887005  72.4701834
  42.0231104   8.3710694  11.7596412  42.2502422   7.4512267  11.6235065
  41.8035412   8.4284681  12.6895487  42.7181244  29.5172739  21.4037418
  43.3891678  30.0990009  21.0466409  42.6889372  29.7295189  22.3366570
  43.1628180  90.7694149   7.1987206  42.6842785  91.5983486   7.1888626
  44.0714502  91.0193825   7.3664510  76.7735577  97.9168415  94.0255547
  77.5352669  98.4616756  93.8276100  76.0300827  98.4089088  93.6772156
  20.7054782  17.6128471  64.0182877  20.3184772  16.9017708  64.5290041
  20.3442597  18.4101224  64.4057226  27.9870510  35.2453852  30.1490521
  28.5778141  34.8634386  30.7981610  27.9122496  36.1647248  30.4048920
  10.1330543  91.5287685  60.8301449   9.2604864  91.9173431  60.8923817
  10.1393211  91.0889912  59.9799776  68.5696650  28.0629492   8.0107516
  68.8463449  28.9331365   8.2978982  68.5500526  27.5410295   8.8129032
  76.3739395  37.6198673   3.0796468  75.6086779  38.1029701   2.7678573
  77.0379305  38.2930923   3.2283759  85.4868984  63.4471798  66.9788504
  85.2699852  63.3309031  67.9038715  85.5986691  62.5569582  66.6453171
  95.5951309  40.5911398  92.8738976  96.1942005  40.5440950  92.1288204
  95.2227020  41.4716434  92.8265572  63.4504843  27.6057959   1.3983425
  64.1435957  27.5932407   0.7382905  63.6787319  28.3377099   1.9714357
  33.7829638  38.6643362  32.9205275  34.4279504  39.3331313  32.6904416
  34.1349459  37.8547740  32.5504565  54.1196394  63.6530256  10.3420985
  54.5619965  62.9802465   9.8244905  54.7624159  64.3582582  10.4177010
  73.7932491  66.8604803  73.4613132  74.0244722  66.9861555  72.5410032
  73.6870670  67.7475643  73.8048840  20.8818722   8.8033301  91.7438793
  20.1566362   8.4757829  92.2758389  20.7911372   9.7556913  91.7756081
  51.5668726  64.9413872   9.1076738  52.3758411  64.4402122   9.2107552
  51.3939905  64.9261665   8.1663382  96.7468262  96.8878555  61.0917807
  96.5951538  97.1703815  60.1898956  95.9297657  97.0911789  61.5470886
 104.5512009  66.3967562  30.3126240 103.8949585  66.4395857  31.0081387
 104.0439796  66.2566948  29.5130372 100.2032280  99.9013329  82.9081154
 100.9856606  99.4210911  82.6372242  99.4846439  99.4674873  82.4480629
  79.5319939 101.7284203  79.2389774  78.8944244 102.1414280  79.8213482
  79.7161388 102.3932457  78.5754156  30.1779032  32.1353960  23.1092930
  30.7326365  32.9031420  22.9712081  30.0402212  32.1065521  24.0560985
  67.4903250  12.7180946  40.1944733  67.2025967  12.7217209  39.2815471
  66.6869783  12.8446925  40.6992912  18.0381298   9.7674972  91.5167141
  18.4353232  10.5172217  91.9598675  18.0059898   9.0834326  92.1854877
   5.5227065  81.6736507  50.3810596   5.0756979  81.9760609  51.1716032
   4.9351123  81.9170189  49.6657038  62.5861073  71.5148973  12.4357724
  62.7101660  72.3315763  11.9521642  62.7185917  71.7568254  13.3523703
  84.1728306  79.9829483  74.3288469  84.3197536  79.1310644  74.7398806
  83.5762596  79.7990751  73.6032295  26.0337663  33.8108397  57.3405170
  25.4027653  33.5639143  56.6644239  25.8387470  34.7293949  57.5261450
  29.7374082  11.2967443  55.5048466  30.1526189  10.4367173  55.4401588
  28.8989043  11.1923242  55.0551319  95.7187366  84.7347069  70.0236559
  96.2862301  85.2122021  70.6287956  95.6309795  85.3161144  69.2683411
  48.0896616   4.1136757  88.3410835  47.6488495   4.7869539  88.8593674
  48.6909914   4.6006265  87.7776051 105.7733154  70.3592348  79.7241783
 106.5750885  70.2725172  79.2085505 105.8314800  71.2322235  80.1124287
  95.6034184  57.7503967   4.6887821  95.6967163  57.8228569   3.7388998
  96.0690308  58.5121536   5.0339818 115.7491302 101.4725780  86.0609150
 114.9775314 101.6523457  85.5237389 116.3510227 101.0185051  85.4711914
  77.8442287  42.4480915   2.2482075  78.7155294  42.4442530   1.8519020
  77.2425699  42.4590397   1.5038168  37.2468901  51.2840700  17.3977923
  36.6620302  51.4417076  18.1389558  37.0944405  52.0245361  16.8106806
  82.7698517  84.0609074  62.3169804  82.0603371  83.8574505  61.7075348
  83.3174515  84.6890163  61.8459702  66.4948606  65.2939081  17.5843871
  65.7895660  65.5693674  16.9987941  66.4149284  64.3408680  17.6238573
 112.7695179  84.8584270  93.5524845 113.2726860  85.6340790  93.8003159
 112.3483372  85.0996780  92.7274799 112.8048325  99.9201965  65.4328775
 112.3890400 100.7477474  65.6747532 112.2130108  99.2474079  65.7695436
  71.5030003  37.1946096  14.0606582  72.1083212  36.4580226  14.1458571
  70.9474707  37.1392608  14.8381889 105.9399700  72.7761650  80.6109238
 106.2267685  72.9934120  79.7239161 105.4812908  73.5600901  80.9130859
  97.0183849  99.0591240  69.2088175  97.1450424  99.0994072  70.1567459
  97.9025173  98.9718533  68.8525486  75.8256865 102.6973820  92.2612190
  76.5717793 103.0789185  92.7238274  75.5963612 103.3486938  91.5983200
  95.0770664  73.4792185  89.6469593  95.8558559  73.9168358  89.3031311
  95.0964260  73.6593580  90.5868530 109.4301605 100.6872749  89.4624615
 110.0814819 100.4336262  88.8084984 108.7170506 101.0726452  88.9533329
 109.7182941  19.7797239  92.9490757 109.3088818  20.3124952  93.6308098
 109.0107250  19.2241859  92.6220131 105.6484795  93.0974293  66.9849825
 106.3101768  93.2068539  66.3020372 105.8245182  92.2312832  67.3524475
  48.2316017  67.6764822  10.2147460  48.1526279  68.5055065  10.6866717
  49.1462135  67.4199343  10.3326762  21.4376187   5.7745785  62.5419188
  20.6634164   5.6016380  62.0062590  21.0871911   6.0964650  63.3724737
  78.7484169  91.5122890  70.0063324  79.1497993  91.8293381  69.1972542
  79.3080473  91.8567562  70.7023096  63.6583190  35.9231496   0.9816230
  63.3283286  35.9560990   0.0837005  62.8933100  36.1121297   1.5250171
  70.4764032  88.4540844  77.2736263  71.2659788  88.3114433  77.7956104
  69.8996353  87.7270699  77.5082064  98.3852291  74.8517132  64.6993446
  98.4477806  75.2999544  63.8559008  98.9615822  75.3500557  65.2787399
  87.0192051  81.9829845  70.7999516  87.5264072  81.3951397  71.3597918
  87.0484829  82.8271294  71.2502861 113.3605957  53.8044882  87.7000713
 112.9249477  54.3433285  88.3604527 113.6596870  54.4298267  87.0399761
  29.3840981   4.2828381  85.4407883  30.2407789   4.3236548  85.8658409
  28.8794065   3.6715612  85.9773159  38.1843591  80.5715561  26.6978145
  38.4330583  81.4956951  26.6790223  37.6725030  80.4449749  25.8989310
  23.1652021  98.6308098  72.4805880  22.6012373  97.9077053  72.7549887
  23.8382363  98.6805344  73.1593990  88.9676952  85.6627560  52.2058058
  89.2442322  85.4095745  51.3250875  88.9484882  84.8410130  52.6963091
  33.9162087  21.5786672   6.1395067  34.0499997  21.7081118   7.0784295
  34.6478796  22.0383477   5.7277006 106.3403130  82.3167324  62.7846384
 107.2722054  82.4958038  62.6591778 106.3161850  81.6258812  63.4467411
  56.0741997  18.0572629  18.3898020  55.7740688  18.5617375  17.6337218
  55.2925110  17.5980759  18.6969435  64.8309708  77.8644514  11.8583393
  65.3759527  77.1325874  11.5691960  64.7048187  78.3946514  11.0714447
  27.3784304 103.8215542   4.8785815  26.9269037 104.5739746   4.4961864
  27.2392106 103.9123917   5.8212364  23.9807153  14.6277952   4.9271125
  23.2798243  15.1849306   4.5886135  23.5292006  13.9682913   5.4538208
  45.7044363  46.7089748   1.7153677  45.2586746  45.9306479   2.0496409
  46.3046741  46.3737297   1.0493685  93.8759804 101.4779377  75.3979778
  93.0998516 101.6223049  74.8566723  94.3265438 100.7442188  74.9798059
 103.7058735 109.5633221  75.8729076 103.9158058 109.6445465  74.9425507
 103.6508656 108.6198044  76.0245419  33.1999040  10.4837084  49.4493723
  33.7246251   9.9090034  50.0066996  33.6851788  10.5266619  48.6254215
  13.9217663  12.5926471  50.3625488  14.7858143  12.1876955  50.2872705
  13.8096976  13.0722475  49.5417833  21.3992119   3.8309625  73.0884695
  21.6291261   4.6286136  73.5650444  21.6903758   3.9954773  72.1915913
 103.6828518  96.3712788  94.6086788 102.8347778  96.6108513  94.2350483
 103.9889336  95.6468582  94.0630054  94.7110939  85.8063602  88.7511444
  95.1144505  85.0860977  89.2356777  94.1029930  85.3785610  88.1482887
  19.8357475  -0.0954990  59.2215729  20.0397968   0.4120722  60.0070477
  20.0081301   0.5053406  58.4966564  92.1550465  73.6248255  71.5005302
  92.7869320  74.1149378  70.9744740  92.2538280  72.7180815  71.2102127
  87.4237347  15.9670722  82.8014565  86.7706013  15.4746032  82.3043442
  86.9105148  16.5019321  83.4070683 109.3024731 103.5989380  81.3030910
 108.9416027 104.4175053  81.6436005 109.8054504 103.8613129  80.5321217
  14.8920774  29.6516252  78.8911772  15.1133132  29.9094248  77.9962873
  14.6266735  30.4669642  79.3166351  65.3555346  32.6101923  16.8091130
  65.7782888  33.4237576  17.0841062  65.9501362  31.9200659  17.1030641
 104.7696495  67.0161724  91.9575977 105.1005936  66.7484808  92.8149509
 105.5336189  67.3774862  91.5081120  49.2552280  48.8743067   6.8238103
  48.7181091  49.5232153   7.2783953  49.5174646  49.3072081   6.0113704
  24.8319983  31.0586452  79.7497511  24.5952535  30.6656861  80.5898476
  25.3224039  31.8466926  79.9836636  58.0585194  33.3944297  78.9699411
  57.6403522  32.5339389  79.0003538  58.9715815  33.2253599  79.2022467
   4.6302328  10.7490003  65.4929638   5.3901124  10.3098452  65.1109219
   4.5537969  11.5666318  65.0011635 108.8861752  81.6706657  92.3075771
 109.3699646  81.1204910  91.6915417 107.9752827  81.6081715  92.0201874
  66.5776062  62.4371481  17.0813620  67.5272989  62.3246241  17.1220398
  66.2318707  61.7716599  17.6761901  52.4602318  72.7330589   0.9685521
  52.7699614  73.0474949   1.8179205  51.5547514  72.4664688   1.1275171
 101.6367626  81.7966270  68.2436752 100.8674812  81.3691235  68.6200714
 101.9865608  81.1571789  67.6232147  53.4073114  60.6245518  21.9046426
  52.6504230  60.3892994  22.4413061  53.3721304  60.0204277  21.1630034
  70.7045555  29.0162587  37.9118896  69.8683548  29.3160844  38.2684040
  70.4700470  28.5553527  37.1064067  25.9158969  12.8591371  55.5827475
  26.4501357  12.1225202  55.2857351  25.3520679  12.4878371  56.2613249
   1.0721134 105.1939583  49.5333099   1.6841446 105.6004715  50.1468229
   1.6229430 104.8884392  48.8125658  79.6079540  30.7326794   8.1619275
  80.0674915  31.3830948   8.6929774  80.1905251  30.5752301   7.4189270
  15.4433441 108.5215664  85.9663582  16.2145686 108.8449383  86.4320660
  15.6247127 108.7069798  85.0449753  92.7238655  98.9695549  79.3188810
  91.9425201  99.3366814  79.7323513  93.4541893  99.4103718  79.7530985
  59.0601635  46.7607260  23.4695435  58.8180923  45.8538151  23.6570048
  60.0153637  46.7711639  23.5305381  35.1991224   9.4333947  85.3758240
  34.2979932   9.2426801  85.1153946  35.6693268   8.6124319  85.2303600
  14.3252707  64.9457741  52.9912567  14.8484015  64.5274067  52.3074913
  13.8803732  65.6664371  52.5452280  62.5611591  38.7240148  27.0320320
  62.4160480  37.8136659  26.7742801  62.9673195  38.6662459  27.8968620
 112.5922394  81.7480087  73.2846928 112.3448086  80.9667301  73.7792778
 111.8540573  81.9020176  72.6951218  77.3031759  55.9658957  69.3301773
  76.9424248  55.0990915  69.1437817  76.7118549  56.3354826  69.9858999
  11.3919806   2.5387502  55.5182314  10.9663522   1.8766138  56.0628843
  11.8541229   2.0361170  54.8473978 111.5970802 107.0279026  72.7771711
 111.5957355 107.6165962  72.0223999 110.8887768 107.3509407  73.3341265
 103.6739349 101.4346695  74.8867083 103.9014721 102.3533058  74.7432995
 103.4231472 101.3912678  75.8094501  81.1205769  97.0781422  80.3225231
  80.4872417  97.4059963  80.9609795  80.6044674  96.5263557  79.7348166
  56.3559914   1.6914020  83.5478115  55.7686949   2.3831111  83.2431030
  56.1857080   1.6294196  84.4876957  42.5586700  32.9873300  27.0789957
  43.1312037  32.6755476  27.7798724  43.1580448  33.3008146  26.4017200
 100.0975609  91.5733910  73.7660789 100.9398842  92.0269775  73.7973595
 100.0773716  91.0501766  74.5673752  57.0418406  41.0660887   7.8074789
  56.9092846  40.1414680   8.0166084  57.6628160  41.3742971   8.4675002
  81.2749004  88.3245850  48.5338736  81.5618706  88.7139702  47.7078867
  81.7912579  87.5224686  48.6127043  23.8259721  21.8539643  91.3835812
  23.8023853  21.7093563  90.4376602  23.6881542  20.9856653  91.7621231
  31.8212986  34.3258929   4.2896149  31.5397692  33.7846518   5.0271988
  31.4561319  35.1911974   4.4743699  41.5526390   3.1101236  62.7669954
  41.4770651   3.5877430  63.5930729  41.2620401   3.7342808  62.1020079
   0.4916128  90.1808453  82.4492168   1.0747318  89.4561958  82.6752663
   1.0740428  90.9331703  82.3442936  96.5945244  30.8541989  45.3596163
  97.0720577  31.4737463  45.9112930  96.1357307  31.4036536  44.7241306
  28.5842657  54.1970730  11.2416494  29.2216635  53.5636234  11.5713406
  29.0457320  55.0353718  11.2647629 100.1437664 105.9001350  69.2819500
 100.4670715 105.4191017  70.0437355  99.1906166 105.8460999  69.3513966
  62.3716216  19.8519826   0.3443015  61.6293292  19.5457959   0.8653415
  62.9085688  19.0709757   0.2103008  15.8964598  75.5851078  52.9273081
  15.5630386  75.2406216  53.7557936  16.3815784  76.3727427  53.1733179
  44.4311190   4.0573180  19.6844661  44.7487450   4.9543899  19.7874570
  45.0502729   3.6522484  19.0771794  97.4316502 102.1404934  91.7408371
  98.1164742 101.6991043  92.2432613  97.0409393 102.7577496  92.3593521
  65.0590849  29.5025373  13.5472965  64.6256733  29.9272656  14.2875612
  65.7626534  30.1043224  13.3042479  79.4909191  54.8103094  36.5111065
  78.6306906  54.7845173  36.9301248  79.6437550  53.9105940  36.2223506
  72.4668360  94.9159336  57.1262407  71.8325043  95.2052212  56.4703703
  73.2982159  94.8749352  56.6536331  49.8472309   5.8686286  86.6976166
  50.0820494   5.2127188  86.0412121  50.0016594   6.7077208  86.2636757
  49.2612696  35.8414006  26.0840511  49.5085812  35.7227635  27.0011091
  49.9310970  35.3665972  25.5919909  96.1246777  78.1843519  75.2939749
  95.7969189  79.0459728  75.0362778  95.5490685  77.9131889  76.0090828
  11.1990547  86.0132408  63.1323385  11.1852968  85.1531315  63.5521698
  11.8884122  85.9462643  62.4716330  69.8018603  39.5743870   0.1161826
  69.3892149  38.7133526   0.1837409  70.6842761  39.4450402   0.4638160
  58.7921429  91.5668678  43.0216742  58.2704782  92.1571064  43.5654736
  59.4776344  92.1239948  42.6529694  67.2248983  25.2287722  11.7565906
  67.0072889  25.8232212  12.4745798  67.0086002  24.3587613  12.0920360
   6.3131690   3.0943027  57.3848391   5.7034963   2.4289933  57.7040482
   5.7609427   3.7200350  56.9160748  77.7299690  77.8853226  78.1478262
  77.0255327  77.6225615  77.5554132  78.3834410  77.1907043  78.0658770
  10.0169945  11.8230629  47.8117800  10.1182604  12.7603817  47.6462173
  10.2628624  11.7141759  48.7304354  82.6110077  91.2150669  83.8068867
  83.1565285  90.8289814  83.1216240  82.7207661  92.1595478  83.6966991
  97.5996780  90.2451611  50.6491089  98.2810211  90.4028130  49.9955368
  97.6354790  89.3022251  50.8097601 102.1866226  16.3198996   9.8160446
 101.9471455  15.5687106  10.3588152 103.1216049  16.4446199   9.9787909
  46.5417147  11.0103333  82.1563721  46.6950130  11.6640306  82.8385830
  47.1323824  11.2619996  81.4464474  78.8497400  80.0345612  62.1944046
  79.7890663  80.2122307  62.1461391  78.5655642  79.9984598  61.2810755
  90.1886654 107.7486038  78.5392332  89.5428276 107.6699162  77.8371429
  91.0249805 107.8509712  78.0849981  99.3388367  64.9659395  85.4360390
  98.8927937  65.5429840  84.8161221  98.8631630  65.0842142  86.2582207
   4.6835169   6.4001173  69.9199343   3.8377759   6.5469551  69.4963837
   4.5911035   5.5506068  70.3512383  43.1922388  64.6400452  10.7740450
  42.5607634  63.9258575  10.6880140  44.0123081  64.2761517  10.4404235
  51.2232399  91.3971519  79.7933388  51.9679832  91.8770885  79.4310474
  50.7711411  92.0365429  80.3438091  81.6207504  40.6181765   3.2642996
  82.0765591  40.6760216   4.1040182  81.9896984  39.8410606   2.8445441
 102.7673435  98.8378811  64.6587324 103.1233406  97.9998970  64.3632889
 102.9343796  98.8501644  65.6011677  23.7733912 100.9409904  44.7913647
  23.5957623 101.8735409  44.9139547  24.3931651 100.9090042  44.0626049
  77.2369242 105.7317734  78.9814663  78.1127357 105.4315376  78.7384844
  76.6874933 105.4981709  78.2332754  12.1974158  21.4084840  86.9830799
  13.0419326  21.8231654  87.1593285  12.2569215  21.1217570  86.0717678
  66.7929411  33.9600801   6.5080994  67.3300076  34.5901704   6.9884926
  66.9539547  33.1246257   6.9466442  21.2649417   9.3837786  68.8272572
  20.6775832  10.0425124  68.4566975  20.8827782   8.5467041  68.5636473
  98.5701275  80.9986877  76.2212563  97.7093124  81.2828922  76.5285873
  98.6795044  80.1228333  76.5915918  18.3991313   7.7373910  37.9720783
  17.8944790   7.7443707  37.1587443  18.7492168   8.6253363  38.0443573
  34.0666246  85.1861572  83.4736443  34.7008753  84.6635628  82.9828739
  34.0342045  84.7745323  84.3372154  11.9840014  80.9184837  84.7216129
  12.0634627  79.9705744  84.8283577  11.8293750  81.0419083  83.7850761
 114.8417377  95.5309868  49.0761471 114.3896770  94.7331238  48.8017607
 114.3773746  95.8100510  49.8652744  98.7268639  98.7240314  85.3988838
  99.4472980  98.9171410  84.7989464  98.5464764  97.7935791  85.2649021
  18.5690069 108.1815720  82.5939751  18.4954774 108.0739117  83.5422516
  18.2427466 109.0658855  82.4273109  29.7308564  13.4118426  67.7483559
  29.4129467  12.6705074  67.2330046  30.0028896  14.0576911  67.0963526
  62.9571676   9.6467161  55.5706358  63.4721375   9.0364736  55.0427723
  63.4051418   9.6689808  56.4162445  98.5712910 106.5966797  52.3129129
  99.1336536 106.7045021  53.0799580  99.1644287 106.3064289  51.6199636
  16.3985276  88.7522888  84.1117668  16.8008971  89.3573856  83.4887218
  17.0957661  88.1335354  84.3290901  34.1454887 103.2189178  63.7408495
  34.3444610 103.0855846  62.8141022  33.5836172 103.9937019  63.7561274
  78.8645458   4.7677639  70.6694841  78.0210304   4.9740034  70.2667713
  79.1517687   3.9685637  70.2278805  46.3600683   7.8926718  64.9806356
  46.5980864   8.2283324  65.8448744  46.3504410   6.9414979  65.0874376
 115.2182912  94.9803925  69.3771648 114.9172573  95.6503296  69.9910021
 115.5609441  95.4745293  68.6324167  65.8968353  22.6024580  59.9249268
  66.0392904  23.4648085  60.3151703  66.7587233  22.3408031  59.6010113
  21.1113048  97.4520016  83.0287170  20.8432198  96.5342331  82.9833317
  20.6989217  97.7828026  83.8266850  30.1381516  93.1057167  68.6269665
  29.8895478  92.5888634  67.8606129  31.0587525  92.8886127  68.7739038
   6.9739407  81.7620468  71.7451859   6.2495446  81.1882496  71.4957047
   7.7166659  81.1707497  71.8675041  33.0305696   2.1468680  83.4874439
  32.3045897   2.0962197  84.1092300  32.6268911   1.9869684  82.6343822
   3.0461699  80.5250740  84.0367126   3.4162802  80.1484203  83.2383442
   2.1835527  80.1178646  84.1160965  62.4000454 108.5929775  70.5400562
  62.6929140 107.6974869  70.7090425  63.1826162 109.0455627  70.2254391
  40.9793949  25.0129962  51.0086298  40.6358767  25.1496816  50.1257133
  41.4735317  25.8102703  51.1994648 116.3136482  90.9522343  85.1596642
 116.5858269  90.5398083  84.3398762 115.5099201  91.4216709  84.9363136
  27.2029400  16.5760005  71.9614697  27.5537491  16.9691527  71.1623478
  27.9393673  16.0899734  72.3325300  56.1172676  50.2937746   7.9249966
  55.9558344  49.3791103   8.1564301  55.9768581  50.7754660   8.7401611
 104.4845963  93.9580536  85.8613110 105.1654530  94.1894627  86.4930725
 104.2020607  94.7964096  85.4958344 114.7497463  89.0142632  31.5391302
 114.6516418  89.6855354  30.8638501 113.8757610  88.9280033  31.9198561
 112.2900295 100.9132004  53.8578510 112.7298355 101.6363811  53.4108543
 112.9045773 100.1822281  53.7928057 115.9375627  39.5053911  80.2770805
 116.0025042  38.6685109  79.8170280 116.4800519  39.3923855  81.0575676
  43.6674356   9.4237161  68.5981131  44.0097475   8.8109034  69.2488956
  42.7321672   9.2254746  68.5511065  37.7116561 108.3035374  25.0174975
  36.9270420 107.8515339  24.7071671  38.1257057 108.6381817  24.2220044
  41.8997049   1.5267202  87.9494858  41.3833380   0.9264213  87.4116802
  42.5426912   1.8972069  87.3448944  58.8523245   6.3589704  29.8176098
  58.6494493   6.5763932  28.9077735  58.2708979   6.9181573  30.3328633
   4.1758338 101.9776630  82.2226524   4.9653333 102.3759365  81.8561840
   4.0986329 102.3595524  83.0969715  58.2890606   6.6179091  64.3735313
  59.1046476   6.1325598  64.2490721  57.7768993   6.0757738  64.9735403
  86.6532230  12.6402438  64.9269724  86.7991257  13.1145644  64.1084576
  86.3887787  13.3158028  65.5514050  59.6856213  30.1492023   6.3417357
  59.9109936  29.5248413   5.6520897  60.5250311  30.3795528   6.7399365
  51.2354803  45.1442099   1.7177907  51.2034225  46.0968685   1.8052222
  51.8880272  44.9881697   1.0351021   1.5327607 102.7634811  16.5001833
   0.7518329 102.8334236  17.0492661   1.2991011 103.2203102  15.6921363
  50.0062561  24.6338987  66.4055681  49.3372345  24.5978737  67.0891953
  50.8047438  24.3276238  66.8355036  20.9653735 101.1194229  84.5680141
  20.2020884 100.6022167  84.8251534  21.7137241 100.5556107  84.7637653
  85.9975529  59.6595526  20.4197931  85.3313065  60.1409483  19.9292731
  86.8296051  60.0008821  20.0920367 109.8443604  48.7033129  20.7662344
 110.4129124  47.9553843  20.9494996 109.2906857  48.4114981  20.0419903
  19.1730618  84.0020275  62.8359842  19.5396948  84.4077396  62.0503569
  19.8206782  83.3447647  63.0906105  33.1404805  18.1496954  85.8985519
  32.9417491  19.0615964  85.6860065  32.2897673  17.7110004  85.8904457
   8.1303895  23.5564637  71.8857765   7.8585762  22.9614377  71.1869955
   8.7187576  24.1774035  71.4562559  35.2431202  90.7279205  84.4884872
  34.8095155  91.1981297  85.2006149  36.1652446  90.7036018  84.7440815
  43.1172371  11.3506675  40.6774378  42.3219442  10.9052587  40.9695911
  43.7375689  10.6429935  40.5024719  47.6096678   2.7687988  71.9215059
  48.4313297   2.8988224  71.4480114  47.7444792   1.9615933  72.4179745
 110.3277206  97.7540493  78.9527369 110.2598476  97.8952980  79.8970222
 109.4418526  97.9060555  78.6235428  23.0627871  90.7642937  82.4240494
  22.9497552  91.2844372  83.2196045  23.2981062  91.4034081  81.7514420
  96.2224865 105.7099152  66.9485807  96.0572529 104.8209381  66.6344881
  95.5102730 106.2311172  66.5779972  28.6190295  78.4764814   4.2773318
  28.9117289  77.8908443   4.9756041  28.5193062  77.9078054   3.5138577
  78.6935902  24.1106558  88.7051678  78.1953859  23.7038040  87.9963017
  78.5619307  23.5297894  89.4544983  40.8252668   9.7292763  74.5683479
  40.2213430  10.2602673  74.0491581  40.5592203   8.8261414  74.3957233
  18.7616313  16.7430854  82.8005600  19.0425968  17.6454902  82.6490498
  18.4800947  16.4322233  81.9401360  76.0270929  56.1106110  32.1986699
  75.3694725  56.4232635  32.8199768  76.7165327  56.7740726  32.2255468
  58.5609341  21.9919848  64.7255850  59.3471384  21.6348076  65.1385450
  57.9481888  21.2570119  64.7012901  52.4998951  11.7324817  42.0672560
  52.9377317  11.1546230  42.6922417  52.9501677  12.5719273  42.1611309
  42.8240061  10.3288627  93.1309032  42.2309589   9.7894156  92.6079082
  42.2474480  10.8212638  93.7151623  57.9127121  28.9674449  68.0584383
  58.3395147  29.8213243  68.1288671  58.5327244  28.3562350  68.4562302
  42.4768209  30.3953910  46.4339256  42.9860783  30.1296949  45.6682253
  42.9580116  30.0345659  47.1785736  22.3839808 101.3636589  71.2695408
  22.9614973 101.8249226  71.8777704  22.2269344 100.5156517  71.6848230
  41.2520695   5.7321799  93.3837509  40.8005762   4.8883358  93.4014893
  42.0444345   5.5908048  93.9018250  54.9187136  22.9544592  68.7024450
  55.4796839  22.1940470  68.5497522  54.7552013  22.9459572  69.6455383
  90.6933594 100.4895115  80.0056934  91.1698723 101.3091946  80.1371861
  90.2924728 100.5815220  79.1413689  72.8896379  93.2956314  54.3409777
  72.7950621  94.2467117  54.3932629  72.4348307  93.0537033  53.5342264
 107.0835590  96.0543442  60.0150299 107.0785236  95.2763081  59.4574738
 106.8275261  96.7687225  59.4316530  61.3708830  35.1499629  21.2527633
  60.8192158  35.4896760  20.5481410  62.0088720  35.8451366  21.4137936
  97.1230507  76.0033989  50.5137014  96.4788342  76.6290855  50.8449602
  97.1227741  76.1384106  49.5660686 103.8360596 108.1671810  85.3138161
 103.6913586 108.6341286  84.4908619 103.6802292 108.8239765  85.9924698
  31.0743141   8.0347902  47.7019215  30.5331492   7.4025178  47.2290564
  31.5984797   8.4575236  47.0216465  37.0834255  29.9011731  46.1932993
  37.2299719  29.6197844  47.0963907  37.9189324  29.7418857  45.7542229
  17.4915469  23.0276942  23.8361073  16.7943907  23.1877041  23.2000256
  17.6751018  23.8886738  24.2119431  68.2375240  63.4319210   6.2099826
  68.0943155  63.1852770   5.2962601  68.5152721  62.6211166   6.6362256
  17.2440898  93.4253693  59.1211367  16.3654876  93.4965992  59.4942570
  17.2120607  93.9616299  58.3289051   3.3350280 107.6693344  74.8537111
   3.0892646 106.7861080  75.1289177   2.7410096 108.2444668  75.3359890
  52.2582388  37.6108885  89.9732780  52.4052048  37.8374243  90.8915997
  51.3219595  37.4188781  89.9208355  65.6403637  60.3573513  21.1570454
  65.7578611  61.3047361  21.2269616  66.0666275  60.1233387  20.3325629
  63.5886431   8.9528656  36.7944360  62.6962900   9.2686063  36.9367242
  63.5080338   7.9990661  36.7941475   9.6454483   9.4610333  54.9996138
   9.8045385  10.0962830  55.6977415   9.0436071   8.8253433  55.3868055
  34.0477562 104.9701786  46.6221619  34.4304442 105.8472538  46.5991449
  33.5901713 104.8864937  45.7855940  10.5217612 104.3200779  80.5169296
  11.0282314 104.9268055  79.9769306  10.8704865 104.4375801  81.4005756
  12.9923785 101.0129166  76.7338705  12.3481417 101.6446304  77.0534468
  13.7980306 101.2356758  77.2002792  79.4583368  12.9588103  90.1752758
  78.6310577  12.5678420  89.8942280  80.0564480  12.8053892  89.4438648
  65.9946156  30.5403304  60.8172226  66.7867756  30.1140952  60.4900455
  65.2793503  30.1045966  60.3538036  68.6762002  26.0792316  94.3367075
  68.7447217  25.3500427  94.9530006  69.4296601  25.9735359  93.7558822
  30.4065585   9.1740704  68.0067205  29.8290443   9.8067421  67.5795984
  31.2877822   9.5190501  67.8629684  21.0102987  94.4359112  68.3105135
  21.7901707  93.9715862  68.6145401  20.7381821  94.9640369  69.0610266
 114.1354179  98.1447983  33.0649614 114.2096710  97.1928406  32.9979086
 114.1362572  98.4496021  32.1575904  61.2487602   8.9257044  63.4100103
  61.1202955   8.1306535  62.8926849  62.1955824   9.0660596  63.4023523
 113.6540794  99.4719505  69.5394707 114.0577602 100.1535320  69.0021467
 114.3613911  98.8493633  69.7077847 101.3889313  69.1341352   1.3029380
 102.0269871  69.7345400   0.9173958 101.6764355  68.2657433   1.0210375
 114.9230480  94.1896057  90.3114319 114.8831177  94.0273666  89.3689346
 114.0082455  94.1912270  90.5931664   6.8646878  16.0916078  43.2525539
   6.1917639  16.4211416  42.6568937   6.8761289  16.7216539  43.9730692
  48.6464643  41.7952967  42.3424101  47.9079819  41.5933990  42.9169655
  49.4133759  41.7507648  42.9134607  77.6922703  13.3776557  92.2462749
  78.6109781  13.3122563  91.9856358  77.2395802  13.6727262  91.4561844
  96.1021137  44.3698549   1.4395688  96.7004013  45.0300980   1.0897601
  96.6475487  43.5926771   1.5609369  46.3101912   1.2797359  49.4397211
  46.8488741   1.9740573  49.8191595  45.4984045   1.7184392  49.1852140
   1.0591486  98.4118652  77.1811247   1.0815887  99.0659428  76.4826250
   0.1324467  98.1899738  77.2717953  41.7672968  51.2724257  10.8541381
  41.7690849  51.1288404  11.8005049  42.1857738  50.4911661  10.4925585
   3.8728651  11.4940953  47.7740192   3.6202994  11.8953621  46.9425011
   3.8526925  10.5527675  47.6016045  37.9225683  88.0918789  63.7271404
  37.7838469  88.9182949  63.2645226  37.1222401  87.9653931  64.2367601
 111.2145615 107.2226524  63.9678669 110.8475018 107.2705936  64.8505926
 110.4506111 107.2060680  63.3913755  32.3639703   6.5116841  61.9152212
  32.2073841   6.4777577  62.8589153  33.0410862   5.8529383  61.7609501
  56.5281057   5.6844133  61.4193249  56.1196756   5.0168908  61.9705343
  56.5433979   6.4699650  61.9660521  58.8755322  15.9114420  58.9615774
  58.9164066  14.9651635  58.8233137  59.7082806  16.2392974  58.6220551
  39.8952484  31.5416574  81.1285114  39.6576428  30.8045530  80.5659676
  40.8455706  31.4751625  81.2217903  36.6053247   4.3160689  84.9893951
  36.2862659   3.8135454  84.2397976  37.5055528   4.0154204  85.1136208
  50.4146290  19.5501816  59.7533846  50.3441191  19.8182762  58.8372040
  51.0629320  20.1463795  60.1281881  33.1537604  82.1405125  81.8976116
  32.7388597  82.0053482  81.0456657  34.0833139  82.2492504  81.6967678
 110.3646946  25.2191663  14.2022097 110.6538868  24.4615245  14.7107124
 109.8389816  24.8461676  13.4945858  64.8151636   7.7579963  86.4048767
  65.4296494   8.3676904  85.9963322  64.3819427   7.3254985  85.6690121
  25.3248906   5.0483739  44.9423122  25.9301496   4.3246895  44.7805214
  25.2989769   5.5285287  44.1146564  57.4640369  24.9109077  56.7923164
  57.8160048  25.2823663  55.9833860  56.5854311  24.6130109  56.5566540
 116.1583989  97.1942806  45.0122499 115.8633300  96.9182301  44.1445160
 115.4507857  97.7489853  45.3406096  93.9989662  49.2616653  17.5962019
  94.6381664  49.0523148  16.9151580  93.3310604  48.5807896  17.5152624
   8.6085701 107.4982166  52.7295685   8.2403594 106.6217804  52.8414440
   8.3649659 107.7483749  51.8383265   9.8916036  97.3848248  72.5424433
  10.5724776  97.5595093  73.1921577   9.4430637  98.2234573  72.4341488
  82.9255676  23.1195664  41.2015295  82.7750301  22.1808171  41.3125086
  82.4592113  23.5249949  41.9325399  36.1872578  23.3785033  71.7139578
  36.3813901  23.7910271  72.5556040  36.6819263  23.8923502  71.0756063
  98.9665318  34.6898055  10.6982601  98.0341816  34.8964977  10.7633018
  99.2433071  34.5444059  11.6029632  40.5058098   6.2007618  49.7600508
  40.4441404   5.2913421  49.4678402  39.9783039   6.6911948  49.1296148
  13.5648620 102.2222710  68.6784887  13.6880434 102.5809956  67.7996349
  13.6696792 102.9744911  69.2610788  25.3186107  88.1731224  61.5451050
  24.8939323  87.3362350  61.7335033  25.0022864  88.4114170  60.6736755
  63.8228559  24.0509224  73.7424469  64.7631311  24.1066813  73.9127398
  63.4528303  23.7022233  74.5534468  58.6372995  20.9014368  84.5689869
  57.6875734  20.8330178  84.4711685  58.9066410  21.5043306  83.8760185
  11.0490346 108.9214420  73.5806656  11.3638532 109.5078373  74.2686081
  11.7145514 108.9776039  72.8949833  64.1530275  14.3776119  73.0783033
  64.6571493  15.1435566  73.3529329  64.8139620  13.7403786  72.8075123
  29.4600320 100.5554295  44.0051651  29.1446328 101.3118649  44.4997072
  29.9365330 100.9340477  43.2663631   9.3914741 105.0518513  75.5721855
  10.0742626 105.1713753  74.9120760   8.8709491 105.8538342  75.5262995
 109.0974522 102.1897507  76.1217070 108.7701321 102.3937225  75.2456427
 110.0487804 102.1583462  76.0206509  54.8134422  33.4104538  59.2981863
  55.2292156  32.8526950  59.9556589  53.9021349  33.4780407  59.5831203
  29.3680882  95.8498001  44.4938421  29.4688511  96.7640305  44.7589254
  30.2401042  95.4708576  44.6044016  64.5197582  26.3169742  61.0450840
  65.3296137  25.8484888  60.8428955  64.2700768  26.0000968  61.9131184
  61.5678072  13.5138881  56.8429470  60.8110714  14.0614903  57.0520353
  62.2820616  14.1356134  56.7032146  23.2911396  98.3335781  58.6720800
  23.5148358  98.5541058  59.5762730  22.4062443  98.6786556  58.5532904
  57.9007292  21.6552424  40.5600405  57.7263355  21.6859651  39.6193624
  57.9894400  22.5729513  40.8172846  46.3421917  10.9176373  87.8115654
  46.1720514  10.7907724  88.7449455  47.0788336  10.3367972  87.6212692
  60.3905106 109.1579437  56.7690945  59.6929264 108.8960361  56.1682558
  60.7887125 109.9234009  56.3546753  47.6562405  19.3338931  45.5458117
  46.7404318  19.2135298  45.2947283  47.8773785  20.2107263  45.2319765
  54.4304037  92.0800304  50.5109167  53.6876774  92.5384045  50.1178837
  54.9353027  92.7687454  50.9433317  74.3412733  27.7474618  56.2332726
  74.8065567  27.1552801  56.8240833  74.3489933  28.5913420  56.6849804
 114.6998119  81.7579174  67.3380899 114.9866581  82.6420021  67.1092987
 115.5007839  81.3084888  67.6076889  18.8329017  12.2900426  57.9756165
  19.7782230  12.1400321  57.9853344  18.6154521  12.5067782  58.8822460
  47.1300888   7.4004173  30.3020716  47.3599148   6.6611189  30.8649659
  46.1792707   7.4760848  30.3823757  25.3055739  96.0525990  78.9872074
  25.8382130  95.3243256  79.3068027  24.4660544  95.6533241  78.7591457
   4.3904752  56.6293240   4.5823324   4.4682384  57.4720383   5.0295687
   5.2621937  56.4685440   4.2211014  81.1902046  27.3531222  92.4346161
  82.1024132  27.1146250  92.2696209  80.8770561  26.6906214  93.0504608
 114.9545956 101.5241051  42.1314144 115.6853580 101.7485332  42.7074814
 115.3699303 101.2421894  41.3163996  13.3068144  97.9182529  72.9298353
  13.1561720  98.7712955  73.3370829  12.8877413  97.2931290  73.5212946
  49.5251179  17.6271272  65.6462240  48.8953781  17.6301885  66.3670874
  49.2639256  18.3661997  65.0968742  64.9735785  32.8055429  40.6200218
  65.9168339  32.8293538  40.7810783  64.8156357  31.9370031  40.2499866
  63.3894253  20.3743839  57.2885847  63.7336111  20.9605432  56.6146517
  63.4068012  19.5073032  56.8834925  60.1754189  31.0237575  46.7866993
  59.9317980  31.4501500  47.6083231  60.3250313  30.1092696  47.0266104
  28.3557081 100.3025436  83.1449509  27.4875927  99.9021244  83.1925964
  28.2106352 101.1364460  82.6979637  80.0005054   6.9872421  67.0085335
  79.0947485   6.9819319  66.6989899  79.9682570   7.4685705  67.8352833
  29.4077182  45.6140232  77.5514793  28.8591695  46.1941862  78.0794382
  28.7929726  44.9926710  77.1613026  41.3287544   8.1180888  86.4745712
  41.4551735   8.2941622  85.5422401  40.4631996   7.7126896  86.5265465
  51.4933920  14.8869646  84.6098042  51.9400072  14.5797813  85.3987217
  52.1881008  14.9636889  83.9557934  23.9083266  84.7322178  69.4992256
  23.2242441  84.5569897  70.1454163  23.6177611  84.2717552  68.7119675
  38.5165453   2.2913115  59.7842216  39.0118003   1.9689785  60.5372524
  38.3320832   3.2070559  59.9930668   1.0057349  73.8053513  19.2323661
   1.1068230  73.7912893  20.1841092   0.7822886  74.7135353  19.0286338
  43.8853121 109.5771313  76.0610771  43.3746862 110.3861713  76.0303688
  43.3887100 109.0024376  76.6436100  45.2423000  21.2124467  41.4507484
  45.1921463  21.5115261  40.5428553  44.3543196  20.9198236  41.6559219
  34.5327115  97.3947811  84.6471500  35.0634694  97.3247051  83.8536644
  33.8165021  97.9819012  84.4051552  46.9200802  15.9012413  86.7850113
  46.7652321  15.0524235  87.1994495  47.6370382  15.7409489  86.1714077
  26.1414909   0.4262577  57.6766300  26.1258101  -0.2787525  58.3238935
  26.5387392   1.1654095  58.1371546 109.5698071  97.8304482  70.5298185
 109.9172020  98.7221622  70.5496740 109.4649506  97.6349258  69.5986843
  58.8466263  22.0802069  61.8788433  58.6944914  21.2050056  61.5223169
  58.8121414  21.9614863  62.8280258  83.1183147  64.5521784   7.8882754
  82.5187874  65.0751448   7.3560089  82.7942276  63.6555529   7.8030831
  52.4306917  19.8255980  76.5941429  53.1106949  20.4688668  76.3940716
  52.9116488  19.0532112  76.8913460  76.8445444 105.9364033  56.0526133
  77.3399830 105.1175880  56.0703278  75.9688091 105.6930161  56.3527441
  74.5404959   4.4804490  55.6017351  75.0925398   4.0792996  54.9305010
  74.3211746   5.3423476  55.2478123  33.5687542  10.1940751  67.6517200
  34.4939470  10.3241420  67.8598833  33.1088352  10.8347082  68.1942129
  44.8277950  16.8550813  81.4714527  44.2890596  16.0876763  81.6640186
  44.9648666  17.2711647  82.3225212  49.4259691  24.8896861  53.0820274
  49.4815779  25.7715464  53.4500790  49.6744442  24.9972224  52.1639156
  10.7649088  84.6259212   9.0381223  10.1611495  85.2891731   8.7037385
  10.2990878  83.7977886   8.9222276  77.9423952  11.1154962  84.8010921
  77.4019289  10.9340501  85.5699921  77.9710150  12.0708203  84.7484875
  19.7239459 106.1040401  69.2664003  20.4318357 106.2144279  69.9011755
  18.9324379 106.3501835  69.7451067  44.3823671  34.9302578  82.3914909
  43.4359407  34.9314570  82.5347137  44.7491980  34.6148372  83.2174301
  33.5866022  91.8096161  86.2387562  32.8526640  92.4153233  86.3420963
  33.3791399  91.0801029  86.8227100  26.2636209  90.2224445  63.0815792
  25.8952618  89.4944763  62.5809860  25.7450676  90.2467537  63.8857841
  15.5978382  95.9610367  65.4038572  14.8427677  96.5020657  65.1727915
  15.7558882  95.4257393  64.6262264  41.0072708  35.3415608  86.9047356
  41.7702961  35.6189680  87.4117565  40.4990768  36.1429000  86.7789173
  85.4463768  62.0313168  11.4718604  85.1441860  61.8645668  10.5790496
  84.6445274  62.1865320  11.9710493  83.7628460  83.8253498  11.2018454
  83.5744381  82.8902912  11.2818718  83.0741596  84.1601467  10.6275272
  56.9869900   0.4741563  75.2006721  57.0862484   0.2256728  74.2816353
  57.8603601   0.3598599  75.5753613  98.6936760  64.1714382   5.7916510
  98.6362267  63.4229612   5.1977539  97.8585529  64.1707039   6.2593997
   5.1853174  18.3020878  66.0149431   4.6312088  17.6345503  65.6104851
   5.1638806  19.0356636  65.4004192  20.3066278  70.6216860  65.3765392
  19.4679403  70.8254576  64.9626446  20.1589942  70.7820988  66.3085794
  92.9911423  92.6943398  11.7258120  92.8217602  93.6285019  11.6038215
  93.8175392  92.5390339  11.2684524  71.2847710  62.3985386   2.6305205
  70.7322884  61.7948914   3.1271172  71.0613155  62.2298336   1.7151852
  12.0296955  97.1617794  36.6852832  12.6323295  97.8978443  36.7914677
  11.1883330  97.4940014  36.9982839 112.8619099   1.3807262  59.5015144
 113.1877995   1.5027672  58.6098146 112.3408890   2.1646304  59.6754885
  25.4581571  92.4720287  73.6311054  26.1358428  91.7961121  73.6211967
  25.9154797  93.2656574  73.9090538  36.6172385  18.9936769  87.0483971
  35.7379055  18.6678231  87.2402859  37.1998405  18.2833600  87.3171997
  58.6079693  10.4079545  58.0678034  59.1826963  10.5665445  57.3189592
  57.9101467   9.8522568  57.7207041  16.3492250  93.3185959  42.1267128
  16.2184441  94.2131710  42.4411440  16.9711423  92.9357529  42.7454853
  98.1107712  95.6319904  88.9623451  98.6542034  95.4644775  89.7323132
  98.4580994  96.4454460  88.5964298  17.1342635  93.4507465  22.4399877
  17.7651834  92.7517605  22.2679853  17.4930990  94.2140102  21.9873357
  29.5339465  16.0843635  33.3483505  30.2963853  15.5943704  33.6562896
  29.6540213  16.1434400  32.4005508  87.8171539  67.5126266   7.1578097
  88.0726337  66.7349386   7.6539522  87.0216179  67.2505045   6.6945070
   7.9746735 107.1108437  69.4115162   7.3630160 107.1492195  68.6762381
   8.7716210 106.7320061  69.0405846  63.2631826   6.8960118  77.2240686
  63.7701654   7.5626934  76.7606688  63.5491323   6.0673976  76.8395376
  92.4880886  54.1155243   7.0019519  92.2955513  54.1661072   7.9382223
  93.2473946  54.6859598   6.8824160  62.9811001  12.0159781  82.0768070
  62.6797915  11.2815821  81.5419197  62.2517157  12.1952260  82.6701832
  32.4414468  28.4011960  41.5161991  32.2184157  27.7249694  40.8765078
  32.4880195  27.9351711  42.3509979  23.0271387  93.6031342  92.8630447
  22.5054240  93.4974670  93.6585808  23.2877994  92.7127361  92.6275349
  33.0270505  39.3236542  55.6707430  32.2699451  38.8702536  55.2999973
  33.2253766  38.8416457  56.4735889 108.5519409 106.0013771  75.4237890
 108.7509441 106.7926407  74.9232578 109.4056416 105.6814098  75.7154226
  62.0115566   3.6008355  64.0427732  62.7396488   4.1716459  64.2883205
  62.4281120   2.8493482  63.6208916  83.9038944  17.9755294  93.3287334
  83.4471416  17.1368039  93.3931351  83.8076210  18.2308507  92.4112511
  93.3393288  65.2450180   5.0589800  94.1401577  65.7221270   5.2763855
  92.6581383  65.6706381   5.5796129  60.3888083  70.1845026  23.4056592
  59.9505854  69.3846703  23.1150460  60.3807306  70.7548571  22.6369834
   5.2995199  16.1690259  92.6954174   4.4329777  16.0022044  92.3246002
   5.6261992  15.3031278  92.9398251  74.1451216   2.6914802  57.9035282
  75.0616312   2.4155988  57.8921509  73.9904213   3.0446929  57.0274353
  47.2401762  25.0478196  64.6291924  48.1661320  24.8986483  64.8204708
  47.0419168  25.8869767  65.0448132  40.7708406  22.8526473  58.2645702
  40.2013540  23.4289908  58.7742233  41.0744381  22.1983838  58.8938522
  44.5922995  17.2897649  87.0490074  44.2500639  16.9978690  87.8939438
  45.4790640  16.9311810  87.0129776  55.9765387  15.7938802  38.6072707
  55.8368397  15.8603930  39.5518827  55.3223133  16.3797855  38.2265615
  47.5539064   4.0694600  74.7210741  47.7489805   3.5760424  73.9243793
  48.4115267   4.2577285  75.1022291 104.9031162  43.5930777   0.9807585
 104.5711517  44.0505934   0.2082859 105.1753616  44.2925215   1.5748078
  49.9827051  63.4377623  69.7516012  49.9120998  62.4865580  69.8320007
  49.1565371  63.7698030  70.1029253 107.0729773 108.7507096  75.1954269
 106.6281192 109.5750394  75.3924417 107.2165792 108.7761859  74.2494011
 100.1776028 106.3989639  66.3164568  99.9826717 105.5415058  65.9383011
 100.1897526 106.2468243  67.2614098 111.0674953  82.7326393  48.4627581
 111.7539597  82.7708626  47.7967739 111.0753632  83.6012077  48.8649559
  44.3645716   5.6996530  62.1089029  44.7605324   5.2015829  62.8240061
  44.4389582   6.6135538  62.3836470   8.7756073 104.1884804  78.2585192
   9.4158691 104.0657139  77.5576448   9.2941934 104.4804573  79.0082216
  45.0298834  15.1521897  45.7805490  45.5900145  14.6354270  46.3597250
  44.1388750  14.9496675  46.0657167  29.2821884 107.7400494  70.3701639
  29.3749142 107.7094746  69.4179535  29.5070410 108.6406231  70.6039095
  60.4320097   4.8584554  33.3388996  60.1093245   5.5797625  33.8791060
  61.3711357   5.0235164  33.2550812  66.6619587   6.7157072  92.4182892
  67.2394228   7.1748203  91.8083858  66.3014650   5.9909987  91.9073296
  72.6048708   2.6104432  50.1118422  73.5356760   2.8316712  50.1417398
  72.2529173   3.1505814  49.4043016  77.4336863  28.6911106  90.4538536
  77.8118801  27.8128457  90.4968929  78.1797314  29.2648554  90.2793121
  75.0121880  21.6695738  60.2587366  74.9292803  22.6230383  60.2749109
  75.0942326  21.4520073  59.3302107  30.6810904  80.8238506  64.5503235
  30.1218963  80.8123207  65.3271151  31.4297247  81.3645554  64.8021364
  17.3494661  39.3501639  92.3741722  17.5693762  39.0581512  91.4895248
  17.1067464  40.2701235  92.2693157  79.1927481  12.3492742  80.1447868
  78.3329868  12.4506187  79.7364044  79.4797468  11.4739275  79.8847246
  66.2373161  93.8814163  15.9355152  65.5263042  94.4160271  16.2889123
  65.8001661  93.1110477  15.5726695  98.4068394   9.3181485  94.0253544
  98.6305714   9.3959993  93.0979347  98.1610870  10.2052736  94.2877388
  56.8666029  21.1655569  69.1557598  57.2392845  20.4874372  68.5922909
  57.4320698  21.1726952  69.9280453  78.2481718  82.8551388   1.7534222
  78.1283569  81.9283295   1.5462923  77.7137232  83.3161068   1.1068065
  41.3606977  41.0421324  73.3214474  41.6248226  41.3961649  72.4722528
  40.4329348  40.8318901  73.2152081  62.3685932  98.7812233   1.8865564
  62.5892353  99.6497726   2.2229654  63.1874132  98.2884026   1.9403940
 114.3153000  73.8476658  21.7988896 113.9589596  73.5186577  20.9736562
 113.7503147  74.5861292  22.0262527 106.5292645  96.2948418   7.3663473
 107.1065140  96.2536240   6.6039062 105.6907368  95.9582806   7.0503801
  37.6244473  81.8149567  69.8194456  36.7532563  81.4198780  69.8536730
  38.2009840  81.1576748  70.2090788  53.3834410  11.6878498  66.4062881
  54.3254805  11.5302265  66.4691544  53.2505083  11.9894290  65.5076170
   3.0826384  80.1488304  51.9862413   2.2300115  80.5756569  51.9020891
   3.2694992  80.1700211  52.9247856  58.9003181   2.1239029  83.6458397
  59.0053129   2.7093688  82.8958797  57.9876423   1.8388350  83.6012173
  54.2844439  91.3992023  54.3623734  55.2309275  91.3290501  54.4867754
  54.1759014  92.1354866  53.7604284  51.6499710  46.3388014   5.4828358
  51.9640589  47.0357323   4.9067563  52.3912573  46.1519003   6.0588533
   6.6654307 107.4743938  67.0590162   6.7232925 107.4634933  66.1036253
   5.7759345 107.1758747  67.2485161  75.8732367  30.8496165  51.0469580
  75.3888893  30.4259396  51.7555761  75.2091932  31.0432386  50.3853083
  61.0299969  25.4770994  56.0113478  61.3070822  24.8905015  55.3075314
  61.7218304  25.4056621  56.6689920  37.9820466 101.5204620  38.5658240
  37.2313786 100.9279442  38.5252118  38.2312703 101.5283012  39.4899774
  14.7753012  66.4879084  71.8926287  13.9844000  66.4089727  72.4259949
  14.9861538  67.4213648  71.9136047  62.7159405  11.7709267  33.1921840
  63.2144070  10.9610593  33.0832028  62.2893190  11.9053066  32.3459148
  37.0250726  76.0022926  89.8094654  36.3296032  76.2127686  89.1863632
  37.1694469  76.8166590  90.2913380  21.4893842 103.6903381  83.5409737
  21.5551138 102.7978230  83.8805580  20.8974671 104.1345882  84.1480255
  23.9214492 106.0832310  59.9535561  23.8915038 105.2582932  60.4381371
  24.3863916 106.6854668  60.5343914  48.7959814  92.3256397  36.7623901
  49.2632294  91.5034389  36.6144156  48.9308262  92.8259563  35.9575725
  49.8023748   8.6544490  75.4446459  49.7414923   9.0955657  76.2919569
  48.9097977   8.6745048  75.0994921  35.6465006   7.0007360  70.0717354
  36.0848761   6.2926793  70.5436659  36.3492155   7.4408066  69.5934439
 103.7331867  93.3403969  64.7683382 104.1335773  94.0536690  64.2711830
 104.3475819  93.1720734  65.4827833  36.9347644  26.6022062  89.4931602
  36.9784904  26.1629462  90.3425026  37.6710582  27.2137880  89.5016289
  89.5648953  67.7065276   0.2076781  89.5044562  66.9480167   0.7884086
  89.8142716  67.3395501  -0.6404721  61.6654825  25.7590342  59.1606569
  62.2572899  25.0195527  59.0222406  60.7890844  25.3784275  59.1032314
   0.7315335  75.4189587  38.6055112   0.7239469  75.8960724  37.7757287
   0.3816352  76.0414600  39.2429256  37.1086740   1.0161404  62.7084208
  37.8878427   1.1920881  62.1810007  36.5874839   0.4174957  62.1734285
  79.0872240  56.3087463  29.0831900  79.4871902  55.9799767  29.8882818
  79.1711092  57.2602367  29.1453028  53.2943487  14.8731387  62.0780373
  52.8709555  15.0055051  61.2298346  54.2236757  15.0275898  61.9085503
  60.8863640  12.2490036  71.4548111  60.3969049  11.9935167  72.2367239
  60.2322960  12.2608376  70.7560349  56.9143200  23.0782247  71.7754364
  56.5272665  23.9396381  71.9316006  57.2289181  22.7976394  72.6348162
  22.0545292  17.7664185  59.2529440  21.6642666  17.3713005  58.4733248
  22.7549982  18.3237576  58.9139032  50.3911638  21.6591740  91.0341072
  50.8441353  22.4154282  90.6611061  50.8803892  20.9030485  90.7098198
   0.8658386  87.8199196  52.0791388   1.6423495  88.1658649  52.5191212
   0.1720637  88.4442329  52.2916174  78.1376553  18.3069670  76.6892672
  78.8025284  18.9295936  76.3951397  77.3989010  18.8538516  76.9564629
  19.3120956  96.1000061  45.4925346  19.5606613  96.5256310  46.3130808
  19.0427518  96.8194675  44.9215269 103.0274391  71.2785625   3.2979718
 103.9676952  71.3728762   3.1454360 102.9302502  70.3963327   3.6563745
 110.2859020  65.4631042  67.1753454 111.0780144  65.4236412  66.6393995
 110.5286884  65.0301981  67.9938078  70.4091358  13.5692465  28.6841750
  70.8240271  13.8991165  27.8871274  70.5868578  14.2411125  29.3423867
  69.2727232  19.9890721  64.4330692  69.5062351  20.6426120  65.0923061
  69.4119406  19.1485035  64.8692989  46.1404228   0.3691321  58.2899857
  46.4327621   0.8396129  59.0706348  46.5069008  -0.5096093  58.3886623
 102.3917675  52.4328756   0.7985897 102.4577999  52.5075102   1.7505889
 101.4810848  52.6539087   0.6036033  64.2697620  28.6460972  59.4682789
  64.5562696  27.8220677  59.8621368  63.5565519  28.3956575  58.8810444
   2.5753897  99.5743084  79.2061996   2.0587735  99.0110779  78.6299086
   2.0926487 100.4005432  79.2292738  41.5736008   5.5688471  82.7770329
  40.9349775   5.4149908  82.0808125  42.3925877   5.2112043  82.4341297
  43.2146168  16.2120378  90.7376194  43.5669804  17.0577121  90.4603100
  43.2967567  15.6532836  89.9647808  52.3053837  13.6142790  86.7971611
  53.2061243  13.5003006  87.1003246  51.7714214  13.4951496  87.5826168
 104.6471405 107.8453827  21.2941742 104.4142056 107.9805565  20.3756428
 105.2850914 107.1319771  21.2770009  42.3987675  20.2552176  91.2419319
  41.6915560  20.8230352  90.9358883  42.1642113  20.0467300  92.1462250
  60.7276630  16.9993865  89.2930222  60.4669189  16.6339481  90.1384163
  61.6231346  17.3079598  89.4314098  80.6914997  71.3696194  20.8309531
  80.2968407  70.9126139  21.5736675  80.7341385  72.2848320  21.1080766
  48.0253506  30.7689404  72.9616547  47.9693508  31.7097211  73.1290674
  47.9533339  30.6902361  72.0104218  67.7260733  31.9882369  83.2402325
  68.4094381  31.3682532  82.9855442  67.5788736  31.8138885  84.1698360
  61.7792654   1.3481744  51.0709810  61.0826206   1.0925315  51.6756010
  62.3404646   0.5750310  51.0115194  63.0457830   1.2624016  71.3332224
  62.5827932   1.7348796  72.0250607  63.9495802   1.5714104  71.3956451
  52.6957464   9.0382290  90.5045033  52.1630573   9.2940128  89.7514725
  53.5917377   9.0181416  90.1683140  58.0851221  14.2621374  75.4568672
  58.3739662  14.4690144  76.3456869  58.7886143  14.5867419  74.8947620
   8.6162263  95.4314709  27.1796894   8.1465197  96.2559414  27.0538163
   7.9319137  94.7952843  27.3875809  33.0408788 105.1748466  72.5737000
  33.3925080 105.1112938  73.4617043  32.2761440 105.7441616  72.6590824
  60.0270510  36.0577536  67.8125000  59.7630882  35.5084085  67.0744085
  60.6845856  36.6497970  67.4473095  69.8225641  31.3379717  85.6267834
  69.6503258  30.6597757  84.9736214  69.9470806  32.1372461  85.1150322
  66.7040491  99.7422791  90.4601002  67.0804024  99.2078686  91.1593819
  66.4993572  99.1171741  89.7646904  75.5155993  20.4376936  37.0576978
  74.9818850  20.3862119  37.8506255  75.9584999  21.2838507  37.1216178
  65.6691313  15.2770758  49.4829655  66.3304186  15.6604075  48.9067841
  64.8810577  15.7958269  49.3215084  58.1700325  84.1418076  72.8795767
  58.9270592  83.9678574  73.4389305  57.5064182  84.4888115  73.4757566
   0.2053834  64.9664688   6.3806617   0.5363018  64.7834444   7.2599947
   0.3270216  64.1457415   5.9033364  67.7123117   9.4198990  61.4378405
  68.3559799   8.8041794  61.0873938  67.2401953   9.7369331  60.6678867
  46.5161419  31.8192315  79.1212177  47.2400379  31.1932373  79.1395760
  46.5104151  32.2045374  79.9974251  46.0118628   6.3931805  51.4286184
  45.2077723   5.8738840  51.4288902  46.6324139   5.8735204  50.9176397
  55.3690863  30.4747057  52.1878672  54.6301794  29.9133062  51.9531822
  55.2814579  30.6036186  53.1322908  42.2854567  18.3099949  56.0374689
  42.9898405  18.4339643  55.4013014  41.6029692  17.8466856  55.5518961
  59.0779495  18.9526415  45.7525158  59.2163181  18.0149198  45.8857918
  58.3695745  19.1782939  46.3554430  53.0863857  43.5164499  87.3934364
  52.6064301  43.2094526  88.1626034  52.8813028  44.4498920  87.3399639
 114.8060417  88.2318878  47.3068762 114.9840164  89.0573597  47.7576065
 115.5781460  88.0861855  46.7602015 107.9382992  68.7246609  11.1569679
 108.5531044  68.9475775  11.8559384 108.4883213  68.3708954  10.4580021
  53.1467819  15.9135437  71.9668818  53.9833498  15.7400298  72.3984861
  52.7690554  15.0465012  71.8192673 103.7399387  84.5999432  26.9574404
 104.6568680  84.3423176  27.0527864 103.3835030  84.5494747  27.8443646
  61.7892265  13.3643067  30.6787920  61.1140394  12.9978657  30.1077676
  61.3339376  14.0344071  31.1886048 112.5926876  88.6184788   2.5922868
 112.4928379  88.9505482   1.7001046 113.4525013  88.9340115   2.8704688
  64.7460508  35.9220028  34.3005872  65.5727816  35.7504392  34.7514915
  64.9321365  36.6726661  33.7365770 100.2034664  21.3008165  91.8992615
  99.7207451  21.6188979  91.1363506 100.8205509  20.6617427  91.5428638
  63.1789303  19.4965088  72.4944067  62.2427845  19.3480861  72.3608971
  63.3705378  19.0777850  73.3335686  62.7128887  23.7353301  81.2820053
  62.8525448  24.0463686  82.1764278  62.6191854  24.5338821  80.7626152
  64.3427420  23.6338472  67.4235916  65.1664829  23.1471109  67.4513817
  63.7610483  23.1540823  68.0132437  51.4045715  16.9090664  78.0706549
  51.4958143  16.1933267  78.6996412  50.9233093  16.5243030  77.3381424
  33.5097051   9.0762931  53.9248657  34.0631247   8.8866103  54.6824789
  33.0100369   9.8514044  54.1813135  47.1421719  28.1794810  65.1422119
  48.0729055  28.3918166  65.2120638  47.0030975  28.0162621  64.2093420
  75.5754614  15.7479191  62.2494984  75.8877897  16.2381721  63.0099821
  76.3060474  15.7733750  61.6315699  64.1886187  15.3678286  52.1421671
  64.8110485  15.2011490  51.4343357  64.7344017  15.4707646  52.9217577
  26.5020514  26.6519499  73.7368631  26.7796087  27.2449279  73.0386019
  26.2171459  27.2310710  74.4437456  45.6962919  40.7169724  51.4581537
  46.6137457  40.5282879  51.2609100  45.2178860  39.9604869  51.1189079
  60.2253771  34.3800759  93.5914803  60.2707672  35.3302288  93.4848022
  60.4522228  34.2310166  94.5093918  60.6577921   5.9768128  73.8307810
  60.7006407   5.6081420  72.9484653  61.1953974   5.3895366  74.3621206
  19.0601051  23.0618191  69.0777969  18.2959557  23.6325574  68.9967728
  19.3322897  23.1541610  69.9908257  12.7586138  26.7836332  75.4793882
  13.1582499  25.9139776  75.4645538  12.7167964  27.0122027  76.4079571
  60.3681755  32.8313708  69.9446726  61.0933733  33.4362340  70.1010561
  60.7493830  31.9625401  70.0713348  82.5785065   7.3860121  80.8705044
  82.4547291   6.5375262  80.4450798  83.4659195   7.3478842  81.2272453
  59.3570852  33.6568308  75.3572130  59.8798227  34.0047431  76.0796642
  59.5346308  32.7162671  75.3643608  52.4706602  34.3286920  60.4154587
  52.8662348  34.8271465  61.1305094  51.6270161  34.7549415  60.2644157
  79.3305016   5.7749945  53.9305687  79.8758888   6.3845313  53.4333229
  79.5426178   5.9560627  54.8462391  89.3007374  13.8180149  89.3466282
  89.0264988  13.8142693  90.2636909  89.7159958  14.6717274  89.2242908
   6.5059644 104.0355110  59.6695280   7.0856661 103.7882614  60.3899813
   5.7675403 104.4712925  60.0950289  92.1138668  13.1352139  68.5580635
  91.6173840  12.4943972  69.0670776  92.5343990  13.6894035  69.2155266
  38.2224107  12.0887530  60.3841734  37.6516724  11.6039717  59.7879553
  39.0741634  12.0959568  59.9474859 101.5307140 101.8869686  65.3069925
 101.2382698 101.0934925  65.7554436 101.6979218 101.6058540  64.4074059
  78.8532639   6.6495568  73.2969666  78.7260723   6.3368851  72.4012566
  79.1926479   5.8897394  73.7699652 102.6648426   7.0704877  62.0067501
 102.4626923   6.1657470  62.2450972 102.5534058   7.0984453  61.0564709
  74.0366364  15.5545425  52.7659941  73.0916786  15.7061982  52.7828026
  74.4173193  16.4264882  52.6610041  50.2611971 103.5199928  53.2611561
  50.6038618 104.3877602  53.0471754  50.7779646 102.9193115  52.7241564
  46.0481215 103.9498615  44.9125385  45.7093239 104.3175602  45.7287788
  46.6851664 103.2924557  45.1922369  19.7744763  95.4251766  76.2463665
  20.3491640  94.6599388  76.2268305  20.1139355  95.9614086  76.9629192
  51.4762449  17.5134110  57.6226902  51.9027185  16.7763937  57.1854734
  50.9384441  17.9173136  56.9416094  13.3006036  42.4146843  68.5908175
  14.2129087  42.5829840  68.3550072  13.2707942  42.5425243  69.5389700
  51.5057373  28.5369444  72.2323799  51.4333630  29.4855618  72.1269417
  52.2715235  28.4160948  72.7938128  30.2027559  25.1401258  50.3296661
  29.9053717  25.7780743  50.9783697  30.1746964  25.6132936  49.4980669
  72.8562164  19.9876046  55.6924868  73.6571217  19.7712553  55.2150202
  72.7183723  20.9188867  55.5194426  50.4683018  17.8852451  23.3158422
  50.9486437  17.8488350  22.4886918  50.3403807  18.8199699  23.4775805
  58.3139801  28.0226660  44.3714619  59.2021990  28.2911921  44.1365194
  58.1657171  27.2207761  43.8702393  77.9455948   9.8707557  61.0654974
  78.8825226   9.7545201  61.2232399  77.7716637  10.7785845  61.3141441
  90.8786678  99.2040253   1.5321280  91.2872982  99.9182129   1.0430526
  91.5871620  98.5769272   1.6771033 107.9066944  44.5875788   1.6915587
 108.5228634  44.3551683   2.3862192 107.1152210  44.8612595   2.1551324
  61.6140604   8.0414891  34.2249918  62.1626472   8.7671411  33.9271450
  61.8966866   7.2950268  33.6966467  67.7261591  16.5820658  47.7783966
  68.4425449  17.0684326  47.3703957  67.5695419  15.8455849  47.1873808
  32.4401641   5.6150675  92.3439503  31.9497108   4.9688014  91.8359947
  33.3471847   5.5061001  92.0581722  77.9234838  74.9315214   4.9778157
  77.2423077  74.4795942   4.4798282  78.4122181  74.2292500   5.4069853
  51.1627436  27.2512674  45.1428366  51.7647028  27.9434633  45.4162312
  50.6014919  27.6667261  44.4881439  63.9469290  33.7375140  54.9506998
  64.6661901  34.0182614  55.5164528  63.9474344  32.7827263  55.0186253
  60.7430983  39.5660424  76.9373846  60.8099413  40.4565430  76.5927505
  59.8919773  39.2536664  76.6303968  61.5525913  39.8634744  38.2696843
  62.2343683  39.2310905  38.4966159  62.0114183  40.5438519  37.7769399
  36.9815135  46.0877705  48.7607098  36.4455795  45.6506252  49.4224548
  36.3477540  46.4871883  48.1648493  34.8458242 100.7683754  70.4248762
  34.6670604 100.3350735  69.5902920  34.4873786 101.6495705  70.3188515
  54.5086432  16.0131776  54.6796942  53.9582348  16.4166021  55.3509092
  54.7584820  15.1672363  55.0514412  72.3202038  23.5975575  79.4869089
  71.6550779  24.2264080  79.2069292  73.1519985  24.0491295  79.3439770
  53.3101940  37.1359348  34.4222164  53.1515789  37.9684162  34.8672414
  52.6754618  36.5328312  34.8090124  72.7971506  22.7987647  52.9585743
  72.7805376  21.9476175  52.5209618  72.3403978  22.6512456  53.7867308
  39.7131968  31.0085130  57.7842331  40.3455353  30.9319520  58.4987402
  38.8694954  31.1210752  58.2221031  75.2702808  27.6389289  91.2808228
  75.9776115  28.1901383  90.9460354  75.6410694  27.2184181  92.0566559
   2.5229192 104.3551350  67.8413486   2.2518766 104.1018200  66.9589663
   3.0867106 103.6389256  68.1336021 107.7326488  84.0250587  11.7855978
 106.9555187  83.6784267  11.3472521 107.9366589  83.3767319  12.4596024
  46.1277056  13.0578780  70.7576036  45.4345036  12.7013814  70.2020741
  45.9310389  13.9928532  70.8157015  55.6837845  36.3639951  67.8048944
  55.7110453  37.0597839  68.4616804  55.8711433  35.5638528  68.2957077
   9.8585135  20.3736949  51.0121250   9.5520329  19.6994603  50.4057407
  10.4083657  19.9014783  51.6373491  52.7147913   3.9179572  61.9059896
  52.4718189   4.6905729  61.3958311  53.6685896   3.8757783  61.8372345
  88.6095047  84.8708248   9.0473282  89.4067860  84.6472645   9.5275348
  87.9752254  85.0961113   9.7278851  61.4452505  25.4124928  64.8115635
  60.8838129  25.0410342  65.4920292  60.9050751  26.0844827  64.3957853
  70.4780912  23.4343648  83.7303638  70.3532839  22.8289509  84.4612026
  69.5904827  23.6626124  83.4541607 105.3477669  65.9070539  16.1745381
 106.2874413  65.7297564  16.2170863 105.2680016  66.8327093  16.4048290
  11.2682652 106.2548351  73.8539457  12.1007597 106.1611748  74.3169975
  11.0851419 107.1940422  73.8780355  30.0947690  44.1873837  37.6316762
  30.8418131  44.7855282  37.6121545  29.8328543  44.1012955  36.7150402
  61.2847281  11.3238406  87.4392414  62.0103168  11.3628864  86.8161583
  60.7897282  12.1277106  87.2811222  60.4501867   7.4504888  77.6670694
  61.3375902   7.1022207  77.5806808  59.8810339   6.7136717  77.4448252
  11.1569214 105.4230690  63.6352301  11.6319418 106.1868763  63.3078384
  11.7811108 104.7015285  63.5577822  46.9086456  32.3189092  69.3014431
  47.3036289  33.1838465  69.1914368  46.0072565  32.4994040  69.5681858
  60.9326029   6.9792426  61.6252565  61.2418890   6.1516589  61.2569094
  60.6409931   7.4849290  60.8666515  20.9148455  92.1237087  72.4486113
  20.1918411  92.2255516  73.0675840  20.4936910  92.1057892  71.5892315
  55.4455996  37.9202247  73.1066084  55.6119299  37.0982361  73.5680199
  56.2173128  38.0452514  72.5542879  62.4156189  27.4804354  73.3220816
  61.8155670  28.2253051  73.2854843  61.9244337  26.7995524  73.7818289
  59.0178871  13.7985992  67.4677563  59.7082138  14.4614625  67.4848890
  59.1867065  13.2975411  66.6698408  61.1727095  20.7226133  41.8528652
  61.6875696  21.5228581  41.7491484  61.3291836  20.4527330  42.7578020
  75.9781885   6.9637388  86.1201954  76.2838507   7.5795019  85.4541302
  76.5494061   7.1210724  86.8719864  49.3938589  27.7462149  80.3571510
  48.7572336  27.3109460  79.7901630  50.2122736  27.7217722  79.8613405
  46.9199753  24.0000677  77.3499489  47.3332453  23.8846922  78.2055950
  47.6519775  24.0502048  76.7352200  49.3165493 108.5334873  68.1755257
  49.2728519 107.8541470  67.5026035  49.9275541 109.1806316  67.8232336
  41.0639954  58.2831144  27.4853301  41.3688612  57.4674416  27.8827810
  41.0978603  58.1177425  26.5431333  77.8095055  29.2173338  55.2362061
  77.4444199  28.4542489  54.7882652  77.2891092  29.9543834  54.9165535
  54.1177225  44.2526388  56.3820648  53.2298756  44.5321894  56.6052389
  54.5476103  45.0482750  56.0683870  81.0301495  13.8252330  76.1464548
  81.5356159  14.3942976  75.5660200  80.2922249  14.3656516  76.4286566
  91.3770580  93.1813717  19.9289095  90.4993343  93.5607529  19.9725282
  91.9012928  93.7219810  20.5198002  81.1298275  25.9630108  88.2921696
  81.1570072  25.4266167  89.0844917  81.5451050  25.4208040  87.6215076
  49.7294998  24.2860699  77.3532581  50.5122995  23.8994145  76.9608831
  49.7903013  25.2174640  77.1410322 114.6580124  67.3303366   7.9310095
 115.3090096  68.0273390   8.0123568 114.9199486  66.8483019   7.1466261
  73.0386400   4.0247929  84.7218704  73.3016872   4.6314263  85.4139900
  73.8525534   3.5964739  84.4567013  38.8513350  13.6429167  65.1032495
  39.1986418  12.9843771  64.5016384  39.6151638  14.1597474  65.3595400
  52.1928930   3.7813038  38.0864763  52.1843719   2.8588566  37.8310347
  51.5762568   3.8333118  38.8167405  88.2706070  56.1445427  15.4355323
  87.9941559  55.2550125  15.2152240  88.9436245  56.0270691  16.1059654
  73.9079189  19.5914304  83.7593079  73.7241983  19.8933542  84.6488667
  73.2012939  18.9758050  83.5645962 112.4118805   9.6511763  70.3183031
 112.7461243   9.9806052  71.1525631 112.3803329   8.7011886  70.4312611
  53.9641762  89.3708706  77.2326994  54.4083500  89.2684937  76.3910007
  54.6728611  89.4006729  77.8754377  72.8049564   5.9555435  61.5971470
  72.1237421   6.6256154  61.6535902  72.9058170   5.7949680  60.6589174
  45.0687456 105.2607632  42.6589584  45.9231424 105.1148891  42.2528076
  45.0083971 104.5886898  43.3378553  91.4705658  28.6169910  77.0569754
  90.6012726  29.0100479  77.1348858  91.9961166  29.0645957  77.7200556
  35.2114296  60.9191942  10.2531147  34.7929549  61.6012335   9.7278219
  34.8142147  61.0066843  11.1196005  68.3323812  36.5272713  55.8672094
  67.9011393  35.6870818  55.7111835  67.8494310  36.9122148  56.5985155
  59.0373993   5.6738108  84.2922115  58.8284779   4.8205665  84.6724224
  59.6119213   6.0885835  84.9357319  49.1862631   9.5714629  71.0358620
  48.2953310   9.4060475  70.7274580  49.1612148  10.4677820  71.3708496
  49.6470785   1.0102103  58.1796265  50.1166868   1.3306847  58.9496899
  49.5854616   0.0643689  58.3131170 112.0386028 107.0178223  38.7973666
 112.0391750 106.6216087  39.6687150 112.9636860 107.0687962  38.5568285
 109.7765446  69.6268511  13.0700719 109.8393822  69.0178919  13.8059056
 110.6855392  69.8239517  12.8440011  65.5770588  39.9687147  49.2722559
  66.0376549  40.3164339  48.5085964  66.2714291  39.7672629  49.8995495
  42.0529652  28.8157272  58.8747549  41.9977617  28.3665514  58.0312967
  42.8671551  28.4960532  59.2635155  68.9365005  11.1523783  85.6554604
  69.6214533  11.2940943  86.3088989  69.3997192  10.8002567  84.8954105
  17.9406571 106.9199371  71.1653042  17.9196298 107.0829391  72.1082878
  18.4067118 107.6731396  70.8023787  57.8880644  31.2594819  52.0042706
  57.9996777  31.2644196  51.0536098  56.9492245  31.1258817  52.1345091
  52.5973463  35.5428720  83.8501358  52.7722263  36.3405776  83.3508205
  52.3322582  35.8551073  84.7152710  71.7327166  22.4146795  55.4898691
  71.9703722  23.3417416  55.5074787  71.2901926  22.2649550  56.3253260
  21.8938041   5.5472159  15.8237469  21.2615108   4.8364681  15.9299409
  22.4754572   5.2479208  15.1249397  88.5809040  23.7426043  87.3264980
  87.8088951  24.2936015  87.4554539  88.4357357  22.9891753  87.8987694
  46.0834646  46.1679888  28.5237384  46.7555285  45.4909325  28.4452415
  46.5733957  46.9740725  28.6862993   8.7432206 104.3897343  87.6994610
   8.9392072 103.8885021  86.9078922   7.8816009 104.0761948  87.9743004
  36.7260075  27.0233059  82.7192211  37.6735926  27.0439386  82.5854778
  36.3580418  27.1122146  81.8400574  45.6802034  10.5044389  53.3815145
  45.8405924  10.0868714  52.5352621  45.9931850   9.8689759  54.0253019
  55.4270267   3.5954645  62.6558447  55.5188036   3.1325641  63.4886312
  55.6977701   2.9571661  61.9959164  53.3452749  28.3356881  88.8368893
  54.1338539  28.7073064  88.4415722  52.6545620  28.9656377  88.6311817
  27.2306418  41.0781097  78.9975548  27.9939699  41.4466143  78.5528421
  27.5647020  40.2976942  79.4398022  18.6684370  31.9998217  76.9405270
  18.7037981  31.1223531  77.3213577  18.0729389  32.4849892  77.5116920
  72.7298880  17.0006073  89.3896389  72.2921705  16.2357473  89.0159702
  72.0196962  17.6129866  89.5816135  78.6358070 107.1079445  57.7292013
  78.1717968 106.9100475  58.5426903  77.9415178 107.2442532  57.0845175
  19.7428071  90.1292229  51.8960619  18.9510286  90.6556034  51.7853928
  20.3869843  90.5416679  51.3206005   1.5227160  63.3757639  39.9245453
   1.3588156  64.0888739  40.5416679   0.7348771  63.3427906  39.3819070
  85.0761318 106.3308525  82.9294109  85.6753159 105.6295586  82.6736641
  84.9007702 106.1698437  83.8565254  50.2374363 100.7490349  54.1181469
  49.7194338 101.4934254  53.8119078  51.1105108 100.8995056  53.7557459
  75.1525259  38.9321542  61.2956333  75.9400368  39.4735742  61.3496590
  74.6506119  39.3107820  60.5738640  75.1923370  53.5922527  74.8780537
  74.5911789  53.3137465  74.1872025  75.8789730  52.9253531  74.8812675
  74.0963554  64.4708157  48.3446550  74.0363693  63.5752010  48.6770868
  73.1886864  64.7717333  48.3019304  75.5302763  72.3198462  91.1765862
  75.4406595  72.6600933  92.0667744  74.6569681  71.9969463  90.9545422
  10.3373480  39.6739912  69.7175837   9.4587606  40.0113487  69.8922396
  10.2223217  39.0780473  68.9774132  96.5459919  69.5043850  29.9255824
  96.7189980  70.2215004  29.3156290  96.1255074  68.8311338  29.3906450
  17.1811855   2.0978807  68.3357430  17.0251608   1.4825031  69.0521240
  16.4503264   1.9555093  67.7342367  64.3700361  69.1273737  53.7760162
  65.0619459  69.1763210  54.4356394  63.5934210  69.4710588  54.2175817
 110.7472038  91.5156174  62.1967459 110.0381470  91.0115528  62.5959778
 110.8670807  91.1185551  61.3340712  75.4693890  11.8251610  93.1187057
  76.2949133  12.2815621  93.2812977  75.0264311  12.3590112  92.4591351
  12.5759339  74.7056580  62.0360565  13.3841705  74.2806625  62.3230457
  12.7438354  75.6411409  62.1496916  34.6558309  92.3709488   4.1146249
  35.5047059  92.7608395   4.3234977  34.2791009  92.9555035   3.4569067
   7.4757415  49.4211721  91.9252110   7.3852581  49.8475742  92.7773952
   8.3410180  49.0127707  91.9524002 115.5169057  62.2331858  95.0781345
 114.6992867  62.4413681  94.6260357 116.1424563  62.8800392  94.7517967
  58.7434864  14.8665369   9.6071869  58.1730556  14.3673635  10.1917100
  59.6276331  14.6951878   9.9314684  88.9738464  85.3430462  56.0833406
  89.2450237  84.4267654  56.1391354  89.0731621  85.5662918  55.1578522
  74.4258928  65.2711487  68.4381485  74.4305849  65.3826761  67.4874783
  74.6398926  64.3478346  68.5720444 103.5001183  58.4243202  78.2061386
 103.6652088  57.8868961  77.4314404 104.3707657  58.6837244  78.5076523
  11.6880310  82.3964214  15.2186990  11.9344354  82.0499706  16.0763049
  11.3346887  81.6415882  14.7479582 107.6718903  87.2442341  53.8826895
 107.9978275  86.4170456  54.2373180 108.4274578  87.8312111  53.9109325
  83.9595604  73.5927010  54.2318869  83.6137581  72.7040720  54.3155241
  84.8823929  73.5143375  54.4736958  62.3895264  82.3030853  67.5428486
  61.4480734  82.1916485  67.4106312  62.7617741  82.2606373  66.6620207
   9.6101534  74.7214174  68.6612225   9.1261548  75.5456448  68.7124443
  10.3662694  74.9215555  68.1094408  44.5367384  77.9024076  81.7563343
  44.2492437  77.9165506  80.8434391  45.1578331  78.6276770  81.8231106
  98.1474209  98.5394287  53.4106016  98.7617207  98.3334732  54.1151953
  98.7003899  98.6620235  52.6389599  61.0057688  99.7469044  54.4648647
  61.1892414  99.5533371  55.3841591  60.5436754 100.5849552  54.4841671
   1.6782397  45.3991985  72.3241472   1.8624514  45.8885765  73.1259012
   1.5429853  46.0730791  71.6579485 104.5545006  88.8537788  81.7489529
 104.6809006  88.4146309  82.5900269 105.4201317  89.1952038  81.5245438
  94.9325752  71.0857153  74.2535067  94.2639065  71.7015886  73.9538193
  95.5244255  71.6158009  74.7873116  58.9884429  15.8670449   0.3665984
  58.0995230  15.8248210   0.7191241  59.1113333  15.0264954  -0.0745522
  90.0555134  78.6464548  87.0917225  90.6087303  77.8794718  87.2397709
  90.6430054  79.2938900  86.7019653  95.3438187  73.9247370  73.1786871
  94.6334267  74.3663406  73.6440563  96.1310863  74.1493654  73.6746597
  89.3688393  70.0821733  73.4540892  88.8844967  70.7005596  74.0011120
  89.6231937  69.3804979  74.0534067 102.2678375  91.3905907  63.7014723
 102.0985317  91.8900299  62.9026413 102.9407406  91.8935108  64.1602802
  82.3121452  93.0798149  75.5571556  82.8662395  93.8046551  75.2676392
  82.8189945  92.6516628  76.2471008  99.3884087  94.5469761  92.7159691
  99.2511463  93.6187744  92.9052925  99.1705990  94.9931049  93.5343552
  75.3879595  54.0103245  54.1762686  75.6161070  54.7788048  54.6993494
  75.3290796  53.2969284  54.8117495  99.9997520  84.6502399  82.6175308
 100.3147602  83.9040089  83.1275654  99.7173214  85.2869701  83.2740593
  89.5727158  63.2356215  45.6906939  88.7365723  63.2953596  45.2286100
  90.2314377  63.4015083  45.0163126  87.1694374  82.5115681  50.6670952
  86.9859314  81.5723610  50.6881046  87.1487331  82.7389145  49.7375202
  68.0322123  57.4489403  66.5450430  68.1480837  58.3058691  66.1345768
  67.2736835  57.0708704  66.1001539 102.0926189  67.5322819  75.5288744
 101.7268372  68.2167912  76.0891199 103.0403423  67.6482248  75.5967665
  84.6131992  74.3121672  67.9164934  84.7206974  73.4942245  68.4019279
  85.2794170  74.2727900  67.2303247  93.3265781  99.5759773  62.3345470
  93.6694622 100.3517342  62.7782393  92.8929520  99.9190044  61.5531826
  75.4327106   9.3591827   3.7772712  76.3801813   9.2246073   3.7978390
  75.0638962   8.4911817   3.9409286  96.7324257  61.4106274  51.6939020
  95.9877300  60.8149433  51.7764425  96.9679737  61.6260672  52.5963116
  98.2221508  70.5170631  75.5194712  98.1176472  69.9267292  76.2656736
  97.5597191  71.1945105  75.6554079  98.9316368  54.6743298  66.8696594
  99.2041397  54.6013498  65.9549761  98.0107784  54.4130993  66.8667984
 114.8913288  96.9071865  42.6597166 114.6268082  96.1892414  42.0845556
 114.0824032  97.3910141  42.8264141  86.0117340  67.3300362  57.7203417
  86.3017845  67.4566889  58.6237001  85.6489277  66.4443541  57.7072191
  66.1040211  18.9960873   5.2318937  65.9604216  18.5505843   4.3969464
  65.4853535  19.7264349   5.2231866 102.1148300  82.1952248  65.1885939
 102.9638958  81.9261551  65.5391932 101.4903831  81.9792461  65.8811617
  79.3051767  16.7230737   1.6439688  78.6919165  17.2652161   2.1401796
  79.7742271  17.3424792   1.0848986  19.0186179  14.7737706  72.1576595
  19.2337263  15.5157983  72.7227736  18.3608186  14.2814815  72.6487637
 113.9237881  45.4681301  60.2831411 113.6956882  46.1907673  59.6983337
 113.7203979  44.6795750  59.7801018  69.6759987  78.7736464  59.1258240
  70.2082443  78.3121634  58.4777641  69.5462704  78.1355619  59.8274279
 102.6322556  38.6401367  78.2843828 103.4905624  38.4836197  78.6781454
 102.5852203  38.0188560  77.5577307  62.6762390  76.5030575  70.9519100
  63.5147715  76.1553049  71.2554979  62.0476246  75.8041382  71.1324358
  96.9775772  68.7544346  67.2779846  96.2395096  69.2814541  66.9718170
  96.9972134  68.8966990  68.2243490  98.5339165  68.9643478  39.5997095
  98.4566212  68.1410551  39.1175818  99.3145275  69.3823862  39.2362356
  76.0212708  21.4673352  11.4265895  76.4597607  20.6637383  11.1469698
  76.0100365  21.4139724  12.3822355  83.0631351  26.4856648  31.5660858
  83.1624699  25.5888772  31.8856764  83.9517212  26.8415070  31.5710545
  78.8125753  73.6721897  73.7295389  77.8943825  73.5418081  73.9665127
  79.2828846  73.6320019  74.5622587  78.9826584  35.0875521  35.1475286
  78.3528233  35.7971811  35.0211644  78.5452747  34.4830465  35.7471085
 112.9111958  89.8110008  65.7904816 113.3909035  90.3654003  66.4059067
 112.9052734  90.3096008  64.9734163 107.6355171  59.9483109  32.2362351
 108.0904198  59.4653893  32.9262209 106.7211246  59.6769810  32.3169231
  49.2109156  54.4005394   4.8980895  49.4683790  54.6868467   4.0217486
  48.9103842  55.1989269   5.3322446   2.2498891  56.2959146  88.8655567
   2.7609801  55.5641222  88.5198689   1.8757653  56.7142057  88.0901241
  98.0635357  38.9315176  61.0649538  97.1245766  38.9628744  60.8816576
  98.3282566  39.8499250  61.1167717  72.4718571  95.1475811  68.4638596
  73.3248234  94.9757576  68.0649090  72.5824833  94.8997402  69.3817759
  85.2809143  73.7190056  85.7929707  85.4185772  74.3951702  85.1295853
  85.7316780  72.9487228  85.4469776  94.4622803  23.7203741  48.6381769
  93.7333679  24.3205285  48.7954664  94.9622822  24.1305780  47.9325151
  36.8584728   2.0905837  67.9671621  36.0749626   2.0097061  68.5110426
  36.5915942   2.6605123  67.2459221 111.1654091   8.2326710  82.3784733
 112.0495701   7.8677166  82.3423576 111.2600899   9.1235888  82.0415211
  69.7804022  12.5960946   4.3120328  69.2887640  13.2188237   3.7765568
  69.6825600  12.9204881   5.2072579  67.1312428 102.0244312  68.7766552
  66.9296360 101.2531662  69.3065071  67.8842735 101.7613506  68.2475424
 108.4078217  89.4034672  42.1647406 108.0270767  90.2690601  42.0163774
 109.0105534  89.5293522  42.8976107  80.1434231  72.4864292  53.4430933
  79.7643375  71.8049049  52.8880692  80.0943947  72.1282864  54.3294096
  80.9062576  67.3127985  74.7154617  80.4142284  67.4381971  73.9040422
  81.0881233  66.3734245  74.7425556  87.9522324 100.1542568  77.9742050
  88.7539673 100.4854870  77.5695467  87.3182297 100.8629704  77.8647423
 101.2436676  49.4478989  74.6946239 101.0045910  50.3614855  74.5383215
 101.2452984  49.0485477  73.8247108   0.3735314  64.4223785  75.5983543
   0.8079110  64.1729403  76.4140272  -0.2121581  65.1372099  75.8477926
  64.0897703  76.5467405  65.8409834  64.1942644  76.6944027  66.7809343
  64.1323900  77.4215889  65.4549026  80.9366322  73.9653778  64.5703030
  80.4226685  74.6757221  64.1862774  81.2228489  74.3075609  65.4171944
  87.2128582  79.9992847  50.3095531  87.1121216  79.4600677  51.0939789
  87.6332283  79.4205666  49.6734619  87.6078320  30.9634066  10.1934791
  87.1421051  31.4290690   9.4988662  87.3017406  30.0592375  10.1226163
 101.4301491  65.8677435  83.4297085 101.7610645  65.2235651  84.0556145
 101.3547039  66.6766691  83.9358521  79.9326181  83.1961441  69.1902447
  79.6763659  83.0373669  68.2817507  79.1067362  83.2046413  69.6740627
 104.4502449  56.5940762  49.6575499 105.2440262  56.0820532  49.5027161
 103.7477684  55.9444571  49.6851587  88.7030220  55.6093454  88.7089252
  89.6120358  55.5735159  89.0066719  88.3924484  54.7066021  88.7784767
  70.3689146  84.6465206  86.4131260  70.4270315  85.5365944  86.0658264
  69.4896936  84.5925045  86.7876816  94.6302605  62.4156570  77.3709536
  94.0946960  61.6918564  77.0461321  94.2938423  63.1864595  76.9138861
  99.7309399  58.3074331  63.4932756  99.1703796  58.7876511  62.8838491
  99.1977501  58.2086420  64.2820597 110.0529861  56.6930962  81.7763805
 110.9020519  56.3938951  82.1016693 110.2629280  57.2081661  80.9973717
   0.0144730  72.5482416  74.6728659   0.5976067  71.7901516  74.6342707
   0.1053773  72.8750134  75.5679560 109.0564919  60.6255484  88.6976814
 108.9854336  60.5780697  89.6510601 109.6713066  59.9286747  88.4683228
  94.1627693  65.3841496  93.0288410  94.8504829  65.4953861  92.3723984
  94.4884682  64.6898603  93.6016560 102.6725292  62.7698898  67.7792454
 101.9326591  62.5206375  67.2254419 102.6210213  63.7242174  67.8325033
  76.6651917  76.7405033  54.6986818  77.2281027  76.1788321  54.1658688
  76.7210817  77.6002789  54.2816734  71.1819601  68.9068079  59.2977047
  71.3790274  68.8935137  60.2343035  72.0347118  69.0083790  58.8749409
 102.4024391  55.0869560  65.7244730 102.1564388  54.8745346  64.8241425
 103.2639408  55.4968882  65.6470013  86.4872646  55.4541302  72.0355463
  86.7180824  56.3517237  72.2748804  85.5419731  55.4812765  71.8874884
  85.9456825  74.4127321  74.0689850  86.7406368  74.6317911  73.5828829
  85.9154034  75.0531912  74.7797108 113.4233093  53.2700872  82.4391842
 112.8820515  52.9966116  81.6985798 112.8734207  53.1162643  83.2074165
   2.0678028  69.6809340  76.0353374   1.8647149  68.7815428  75.7782650
   2.3414938  70.1063108  75.2227020   8.9086843  55.7712650  69.2613411
   9.0702409  55.9716797  70.1832771   9.7311276  55.9869146  68.8216686
 100.7214165  80.4996777  48.4379482 101.3571262  80.8722115  47.8269482
 100.0565243  80.0996494  47.8774834  78.2625103  88.7774181  60.3894520
  78.1267357  88.6928558  61.3331890  79.0911436  88.3272076  60.2253962
  12.4346817  92.0275211   5.2151287  12.2926879  92.3345757   4.3197036
  13.2057869  92.5094223   5.5141348 115.5057526  87.7586555  64.8318768
 116.1536217  88.4403133  64.6534491 114.7633457  87.9808712  64.2700243
  69.9693537  47.9242420   1.2687905  70.0022459  48.4695482   0.4827931
  70.7345915  48.1915045   1.7779168  95.2354908  68.8336039  83.8174057
  95.9229946  69.4586945  83.5875607  95.6301785  68.2806921  84.4917488
  18.5749865  88.1499195   4.2617795  17.9338980  88.6424160   4.7743011
  18.1859684  87.2809410   4.1628885   2.6001906  69.9520636  94.5661068
   2.6067349  70.8744240  94.8219299   2.6037979  69.4735575  95.3951168
 113.6793995  59.9806833  88.5531330 113.0565739  59.2975521  88.3048248
 113.1358051  60.7498026  88.7239742  84.4986248  58.2743454  56.6880322
  84.4913387  58.6467361  55.8062696  85.1779842  57.6006937  56.6579199
  49.7145414  23.6660504  28.3452535  50.3919411  24.2328477  27.9763365
  48.8903856  24.0644073  28.0654144  81.0184383  90.0194550  91.5054989
  81.5347004  89.5124722  90.8788586  80.8436298  90.8471775  91.0576725
 104.7756195  94.2863464  71.8867159 103.9834976  93.9213943  71.4922714
 104.6920586  94.0878582  72.8193760  15.9211862  23.2001448  65.9958744
  15.7731020  24.0528417  65.5869627  16.1260355  23.4044147  66.9083118
   4.2462403   4.1702518  75.7641029   4.1298410   4.9997330  76.2273979
   3.6110866   4.2042542  75.0487995 111.9356918  55.9369755  79.5858717
 111.1701965  55.4926300  79.9502945 111.6194248  56.3310432  78.7729073
  73.3098412  74.2132139  67.6531506  73.5483885  73.6319637  66.9310188
  72.3527384  74.2244339  67.6454258  71.5062761  89.5496559  64.3219233
  71.0914755  89.9166489  65.1026201  72.3423338  90.0109959  64.2556047
   0.5646354  91.3869762  59.4356823   0.0970065  90.7119656  59.9275351
   1.3700959  91.5306282  59.9325037  80.5930901  87.6496696  62.1898174
  80.3365421  86.7440510  62.3638105  79.9199247  88.1763172  62.6207590
  95.7987213  69.7431326  46.7709446  96.3367558  70.2135324  46.1341810
  96.3649559  69.6441603  47.5363255  94.8911285  34.5531178  30.5927539
  95.2201462  35.1238275  31.2872148  94.5125389  33.8059354  31.0560274
   1.1027457  55.4863977  91.1505222   1.4806215  55.8937550  90.3710938
   1.6734028  54.7393703  91.3309002  56.3544989  23.1870604   3.2980987
  55.5820656  23.0272746   3.8403592  57.0938253  23.0770063   3.8960281
  72.8895521  69.7966909  87.1691895  72.9433727  68.8606501  86.9764233
  73.7785482  70.1219511  87.0273304  57.0871973  20.2460551  19.9492002
  56.6121483  19.5072031  19.5688593  57.9789639  20.1559162  19.6132588
  11.2587571  56.7558527  93.1476498  11.4695060  57.6360226  92.8360176
  10.9100389  56.3063288  92.3778725  92.9271221  91.3492966  34.8868799
  92.7883434  91.9785023  35.5947495  93.4077740  91.8405151  34.2206144
  92.4169064  65.2202702  90.7558060  92.2702408  66.1529970  90.5984974
  93.0982876  65.1949167  91.4276028  84.2510605  67.5192738  63.7939405
  84.2964649  67.0369291  64.6194744  84.4961929  68.4149599  64.0260792
  97.7052784  71.2390471  61.2640572  97.3735809  71.0960007  62.1504784
  97.2256374  72.0054007  60.9496069  38.3078599  94.0173149  55.7183790
  39.1733646  93.6084938  55.7182407  38.1500626  94.2437267  56.6349316
 107.7922630  74.8315716  92.7559662 108.3984947  75.1045418  93.4445953
 107.1776485  75.5609083  92.6749992 100.3088379  74.1110897  55.1357603
  99.5426083  73.7104082  54.7251701  99.9944496  74.9567080  55.4556274
 101.3692760  60.3986740  80.4922104 100.5802155  60.3727102  79.9509716
 102.0271492  60.8167648  79.9366570  36.9567275  98.9930153  17.6044428
  37.3167849  99.8773289  17.5367832  36.0515571  99.0794277  17.3053944
  91.3577271  77.0435905  93.6933517  91.7949677  76.5868187  92.9747295
  91.7481804  77.9175282  93.6944580   5.5972385  92.7169895  87.4830437
   5.9001982  92.7103519  88.3910084   5.1649344  91.8706799  87.3686028
  44.2659616  75.2066326  82.2623539  44.3164301  76.0796356  81.8730640
  44.6145725  75.3182554  83.1468010 110.3130913  62.4781513  69.6741486
 111.2304306  62.5875330  69.4236469 110.1830101  63.1042671  70.3863907
  90.6412220  87.0649624  63.9659786  90.1279640  87.4299622  63.2451582
  90.6957912  86.1293411  63.7714148  98.0275536  91.5199089  68.8046646
  98.0372238  92.3691940  68.3632421  97.1037674  91.3614941  68.9989996
 113.0057907  74.5148516  92.7201748 112.9363632  74.5596504  91.7665482
 113.9015007  74.7949409  92.9085350 110.2427101  67.3137188  65.0206995
 110.2805328  67.0576239  65.9422302 110.6749821  66.5977097  64.5551968
  58.0010939  22.3925567   7.2389048  57.6516628  23.2789087   7.3311663
  57.8824282  21.9972229   8.1025374  73.8888931  63.3231020  36.1913371
  74.4186020  64.1203594  36.1961532  72.9930973  63.6315441  36.0548019
  84.2432404  45.6477785  27.0341039  83.9738369  45.6465340  27.9526091
  83.6993694  46.3214207  26.6258931  77.9958057  29.1598725   3.4499288
  78.3798265  30.0212383   3.6136582  77.5553751  29.2506862   2.6049402
  93.2739449  70.5473900  86.4135551  93.4342098  69.6325016  86.6449165
  94.1475105  70.9270239  86.3187408  78.3201933  52.2906303  52.0003176
  77.6954699  52.8192472  51.5038157  77.7954674  51.8851376  52.6905870
 111.5989399  75.4294586  83.6942291 112.4236965  74.9595213  83.5710716
 111.8117714  76.1289167  84.3120480  66.6594315   3.3124462  16.4262342
  67.0582914   3.5705581  15.5952573  66.0242796   2.6372838  16.1875486
  76.6636562  79.9634552  74.8280096  76.5314436  80.7543278  75.3507614
  75.8602571  79.8786116  74.3146086  79.6608114  77.6521063  51.0361624
  80.3099632  77.0663118  50.6467056  80.1758099  78.3722115  51.4001036
   9.0444195  51.3531637  66.7165804   8.4070200  51.9182396  66.2799549
   9.5294654  51.9415998  67.2951174  81.8740749  61.2339163  65.4681635
  82.2964573  60.5050898  65.9227371  82.5997353  61.7759991  65.1586819
  99.8015118  60.4654884  43.9365005 100.2917480  59.7086716  44.2576408
  99.8375511  61.0967207  44.6551657  92.8901672  73.7825394  85.6047344
  92.2626019  74.4675064  85.3740406  92.5852776  73.4532595  86.4502239
  88.2375336  72.3561716  54.8823404  89.0007687  72.8002262  54.5128679
  88.5975647  71.7870140  55.5625343  93.1112194  83.5914421  69.2564058
  92.2865105  84.0768242  69.2787409  93.7798214  84.2616558  69.1148996
  38.5665727  21.0166144  10.5870223  39.1137743  21.6052508  11.1069381
  39.1890669  20.4417658  10.1417339  98.0294609  38.7486529  68.3969355
  97.8234386  37.8307605  68.5737371  98.9796734  38.7630701  68.2823610
 100.7618999  58.6003351  70.1609421 100.9494686  59.0804434  70.9675074
 100.2082062  59.1930389  69.6526575  14.7992730  52.9005432  59.0629435
  14.8308218  53.7152338  59.5644522  14.1064525  53.0429745  58.4180069
 103.8981152  66.2141275  55.4917097 104.0103340  65.3663349  55.9216928
 102.9711914  66.2415266  55.2544594  97.1834660  75.1400328  56.4726496
  97.5060940  75.4952860  57.3008633  96.9848633  75.9116745  55.9422207
  30.0344324  52.1296597  75.6272221  29.3083048  51.6662169  76.0445881
  29.8615336  52.0503998  74.6891069 104.7310638  62.2234583  75.6302404
 104.5239258  61.7346191  76.4267159 105.2873230  62.9429960  75.9286833
  21.9677687  36.9537759  79.5664644  22.7247787  36.3884330  79.4129801
  21.2489176  36.5220690  79.1048193  66.6868734  55.2776718  60.3883266
  67.5031853  55.5501986  59.9692822  66.6530180  55.7849264  61.1993647
  91.3107967  71.8397427  41.7732716  91.0766220  72.2356606  40.9338379
  91.6969967  72.5564432  42.2766781  94.5201206  74.3096781  77.3346853
  94.1025066  73.4589052  77.4689150  94.3537331  74.7888947  78.1464100
  83.0280972  72.3308039  60.3635406  83.6877823  71.7004871  60.6529379
  82.9084492  72.1419907  59.4328070   9.1655409  66.4309597  71.2083912
   8.3993840  66.3998175  71.7813349   9.5111763  65.5384445  71.2219191
  79.8276424  99.4716549  91.0490131  79.7195530  98.5313892  91.1920452
  79.5009708  99.8753452  91.8530941  76.3340664  88.2165623  64.7889376
  76.2480402  87.3765278  65.2396774  76.5517950  88.8393116  65.4824829
  58.6812592  79.3342018  65.0877857  59.4262362  79.1626406  64.5117569
  58.4691668  78.4807158  65.4656839 107.2445393  53.8635778  69.9810219
 107.7569866  53.0759335  69.7986984 107.1096516  54.2655420  69.1228485
  73.2095814  96.0791016  52.3000813  72.2836971  96.2727928  52.4465466
  73.6577415  96.4709473  53.0496454  99.7550583  80.7993889  73.5821438
  99.1025829  81.4804840  73.4189892  99.3930626  80.2896309  74.3069506
  88.2751179  73.1868362  93.6336136  88.8729572  73.0185318  92.9052639
  87.4019527  73.0782413  93.2567596  67.3493147  32.0627236  52.8362417
  68.0901718  31.6967487  52.3531008  66.7009401  31.3586974  52.8498268
  72.6526499  62.8413391  53.4640074  73.3634186  62.2386599  53.6826897
  72.9356909  63.2607079  52.6514530 104.3504524  54.2054129  74.4667244
 103.6940193  54.5951223  73.8892746 105.1030350  54.0423393  73.8981676
  89.6648693  55.8633995  81.0198498  89.2304420  56.6662407  80.7318401
  90.5991745  56.0513496  80.9305096  91.2684536  84.8991966  53.9805508
  91.7119503  85.5372047  53.4215450  91.6607761  85.0242519  54.8446560
  77.9032707  84.0429211  75.7925701  77.4595642  84.1692257  76.6312647
  78.7757492  84.4137192  75.9249544  21.2729478  87.8533840  40.5017090
  20.8389759  87.0007896  40.5332851  21.4723563  87.9864597  39.5750189
  63.9101124  26.8389869  10.9217906  63.8832855  26.1708641  11.6067171
  64.6006870  26.5452600  10.3275967 107.4474239  99.8375416  12.1998465
 106.6776180 100.1307297  11.7123258 108.0289841  99.4730854  11.5326250
   6.1026573  55.0067043  69.4004059   6.2501729  54.0662003  69.5000315
   6.9598258  55.3596401  69.1618061  92.3218632  80.4249859  52.5648022
  91.9072914  81.2712669  52.7326202  91.8243599  79.8046923  53.0976868
  39.3091345   2.4457109  54.3282986  39.1472769   2.3273978  55.2642679
  39.8011112   3.2648689  54.2719793  93.7568283  97.5279999  48.4414625
  93.8328362  96.7056465  47.9575300  92.8790665  97.5015259  48.8223410
  52.3988152  28.5694718  17.2290361  51.6266394  28.6891866  16.6761851
  53.1233215  28.4731579  16.6109371 109.7326374  77.2695351  65.8732700
 110.2043915  78.0683231  66.1090994 110.3857040  76.7275286  65.4305887
  93.2865810 109.4101620  94.1965294  93.0506706 108.6143398  94.6732426
  92.4490643 109.8335171  94.0079117  87.1582508  72.2172451  83.8739872
  86.5802479  71.5370798  84.2197132  87.9962254  71.7743206  83.7404156
 100.3025532  62.8175783  50.2701092 100.9659576  62.6472378  49.6014500
  99.8667526  63.6177349  49.9767590  19.2337143  51.3284111  72.0071077
  18.4990096  51.0636616  72.5605965  19.0635705  52.2489452  71.8073606
 114.2191410  96.6974449  51.5982199 113.3135605  96.5501595  51.8710899
 114.7309494  96.0840702  52.1255255 104.6915627 103.7759113  74.1589928
 105.5302429 104.0039444  73.7579298 104.3197441 104.6151924  74.4302797
   7.3014700  45.8350229  74.6077108   8.0556977  46.4232254  74.5704365
   7.0773470  45.6745529  73.6910582 102.8200722  87.3787022  68.1199551
 102.8906918  86.4244175  68.0956030 101.9145107  87.5452614  68.3815575
 105.6128120  33.9070415   9.6772283 105.7293797  33.0096793   9.3651652
 106.0215950  34.4500208   9.0032136 103.0069923 100.8582783  90.4059696
 103.2201290 100.0293541  89.9773693 102.5067902 101.3449764  89.7508717
  59.9401569  11.4729595   9.1306096  59.2420626  11.2605059   9.7500932
  60.6682396  10.9068573   9.3868518  89.8978996  80.6369305  58.8471651
  89.0706348  80.2726460  59.1620779  90.5064774  79.8982763  58.8634157
  67.1498823  93.9565468  79.3378401  66.6514730  94.2579937  80.0974178
  68.0119562  94.3593407  79.4418287  85.7578850  86.9808674  88.5202980
  84.8549652  86.7094707  88.6855793  85.7713413  87.9130268  88.7373543
  99.5499706 105.5238628  47.0972586  99.3055153 104.6047783  47.2057104
  99.6551418 105.8507633  47.9907370  11.2924421  70.8596420  62.1155691
  10.9326065  71.0205364  62.9878426  10.5625296  70.4881191  61.6201591
  78.3424854  80.5430317  81.0596943  78.1349134  81.4767170  81.0966682
  79.2929459  80.5045605  81.1663342  94.7610188  77.7541876  72.8863335
  95.5849552  77.7454805  73.3734608  94.2542458  77.0332193  73.2599831
 100.4745197  41.0260296  15.7357883 100.3715038  41.0543680  14.7845697
  99.5822239  41.0942793  16.0754752  82.5942135  67.3601484  87.3296165
  81.7223263  67.3173046  86.9369316  82.5228405  68.0421019  87.9975128
  42.1043444  14.1251922  70.0864792  42.9430008  14.4443452  69.7532749
  42.0788479  14.4231617  70.9957600  93.5163403 104.3315983  90.7621670
  93.9264679 104.9923325  91.3202381  94.0210629 103.5345650  90.9240818
  96.0419464  46.0121393  55.6766081  96.0675812  45.4212904  56.4292526
  96.4173412  46.8304682  56.0016251   1.8776488  99.9531460  68.6883640
   2.3061112 100.7175446  69.0735292   2.4200276  99.7304535  67.9317522
 111.4398861  48.7279320  84.6935368 110.9440517  49.5186615  84.9059677
 110.8565712  48.0078363  84.9331951  88.5391140  98.6817074  70.1282454
  88.5034943  99.6216869  70.3054476  87.9247761  98.5506821  69.4059849
   3.4369782  98.2394981  48.0881357   3.5733923  97.3526859  48.4216022
   2.4946952  98.2930660  47.9285574  77.1562386  91.3215923  44.6549892
  77.8790188  90.8361053  45.0526333  77.5394058  91.7272854  43.8772821
  99.5922470  63.3657503  54.6705103  98.6714363  63.1812954  54.8557377
  99.8437881  64.0137672  55.3285599   2.1594067  78.3890343  78.4623623
   2.6804924  77.7919436  77.9255342   1.2686141  78.3002758  78.1234789
  26.8321204  85.8697796  59.8144341  25.9234643  85.6239414  59.6408319
  26.8790269  85.9566307  60.7665348 102.6716137  92.8914165  70.8633280
 101.9921207  93.5612679  70.9396315 102.5274849  92.5011635  70.0012636
 106.6783619  90.8381748  82.4280548 106.9178295  91.7641449  82.3897457
 105.8393288  90.8266163  82.8886127 104.4928169  90.1220894  49.8187208
 105.2539253  90.0729370  49.2403412 103.8016415  90.4980755  49.2736101
  67.3975563   7.4856830  17.9702771  67.8992176   7.8995353  17.2679293
  68.0568647   7.2215044  18.6119556 107.8973389  29.2224646  76.9923306
 107.8091908  30.1569152  77.1801186 108.4912300  28.8971829  77.6688814
  75.7954550  66.2696886  59.5983410  75.3986311  65.7322311  60.2838326
  76.7157555  66.0066128  59.5903778 108.8220882  79.8208809  86.0294247
 109.7350979  79.5337439  86.0430145 108.8717079  80.7767677  86.0221577
 104.4355106  87.6884842  88.3678818 103.6329269  87.6524258  87.8474998
 104.1321373  87.8047371  89.2682648 106.2053776  69.3139648  88.8770103
 107.0084572  68.8459682  88.6483574 106.3851929  69.6918011  89.7379017
  16.7893469  10.7675993  56.5148735  17.0008600  11.3114524  57.2736359
  16.3509023  11.3636887  55.9076881  50.3560686   9.7688210  95.1964188
  49.5980263   9.8258823  94.6147442  50.9822273   9.2228234  94.7209835
  49.6155119  75.8140945  63.6837006  49.5507193  76.5769386  64.2582464
  49.2261314  76.1022711  62.8581333  94.7642708   2.9911652  13.1252086
  93.8198471   3.1259254  13.2035875  94.8602962   2.0508859  12.9739308
  19.5674849  90.8953285  89.0364265  20.0374198  91.6383743  88.6579037
  18.6641109  91.0073566  88.7404633  88.8688755  88.8291168  78.3462763
  88.2773685  88.1564903  78.6838150  89.5365143  88.3410168  77.8643703
   3.2639962  83.0656338  58.9597034   4.0746745  82.5971794  58.7607479
   3.4395564  83.5055828  59.7914839  17.9723001  74.9943542  55.5419111
  17.4800110  75.8149576  55.5642700  17.3027420  74.3156147  55.4568720
  23.4977746  60.9819937  80.5106449  23.0463243  60.7656670  79.6947813
  23.6122274  60.1401234  80.9515381  24.8119783  72.4670839  63.7940979
  25.2626872  72.7858829  63.0121374  23.8850856  72.4723721  63.5551929
 107.3306179  48.3148766  73.1943178 108.0239582  48.3533573  72.5355101
 107.4099541  47.4401045  73.5747194 113.7967682  65.4183102  93.3956337
 113.6871147  64.4990826  93.6390114 113.3106995  65.9024382  94.0631485
  56.1166716  11.2445426  69.7008801  55.8649158  12.1680212  69.7070169
  55.4285002  10.8053565  70.2006531   3.2243684  80.9780788  66.7462587
   3.0741942  81.8735409  67.0492649   4.1558725  80.8247471  66.9044399
  92.7170086  88.8479519  72.2624350  93.6420250  89.0918827  72.2294664
  92.5547314  88.4105206  71.4266396   8.8616592  64.2127752  88.2282925
   8.6110336  65.0516701  87.8414154   8.3072662  64.1317749  89.0043831
  76.6448212  85.2376270  93.1792831  77.4731445  85.3435040  93.6471462
  76.7449665  85.7715416  92.3911572  51.7293501  37.8137660  17.0755756
  52.4818993  38.0365753  17.6235342  50.9979773  37.7456450  17.6893258
   8.6401725  82.1376133  58.7223434   9.4620812  82.5646400  58.4807825
   8.5440320  82.3150730  59.6580219 103.8087654  70.6589842  68.5921097
 104.4267082  71.0877991  68.0000830 102.9464436  70.9120464  68.2625818
   0.5737519  37.0007849  79.1564941   1.2549555  37.4003696  79.6973515
   1.0044886  36.8250275  78.3199501 108.5241604 107.7136326  59.6446514
 108.7043762 108.3404350  58.9440203 107.7498245 107.2367096  59.3460321
   0.4948431 105.9387302  84.3352127   0.8483024 106.8201065  84.4555473
  -0.2163507 106.0499668  83.7042904  53.7476110   3.4708446  71.6734028
  54.3538475   4.2024893  71.5576220  54.2942190   2.6902777  71.5830421
 113.6655426  48.4087849  80.7204056 114.4228077  48.0499315  81.1830139
 113.0446434  48.6315584  81.4140129  82.8382587  15.8175242   5.5086088
  81.9191170  15.5711055   5.6119895  82.8487587  16.3855600   4.7382468
  14.1469610  55.6879711  53.5242128  15.0203371  55.3226280  53.6655283
  13.6960280  55.5603409  54.3588400  95.7056904  54.0477800  51.2161684
  95.9600925  53.2938004  51.7481756  96.0398388  53.8476419  50.3418016
  88.1231880 102.6713085  74.1178131  88.1523895 101.7327976  74.3037367
  88.4744453 102.7508259  73.2309484 114.3940449  65.7784986  76.1800337
 114.3214226  65.7857323  77.1344471 113.4926891  65.6843662  75.8719492
   0.7388936  55.6365919  57.6079512   0.3863583  54.7499084  57.6837635
   1.6845475  55.5122709  57.5272894  11.3720775  97.9995823  52.1201086
  11.2149286  98.2835484  51.2196064  11.0654283  98.7293148  52.6583290
  31.2988210 100.7155514  16.5093434  31.0798097 100.0665760  17.1779990
  30.5419016 101.3010406  16.4868093  18.3815861 100.6891346  90.4899979
  17.6796269 100.2836704  89.9809933  18.0411017 100.7217312  91.3839912
 109.2062378  84.5698452  65.4262495 109.6983910  85.3417015  65.1465321
 108.2907772  84.8485851  65.4042912  18.9151537  80.9460354  58.8522959
  19.5783067  81.5386200  59.2062902  18.5355175  81.4243412  58.1151867
   7.9913461 107.4535370  58.3836126   8.3810401 106.9416046  57.6748848
   7.0554286 107.2593689  58.3327341  72.3804855  22.2892547   2.6923361
  72.1804667  22.7856469   3.4859473  71.5480423  22.2439170   2.2220044
 116.0676174  60.7015944  54.5041752 116.5179070  59.9639750  54.9157429
 115.6024091  60.3145981  53.7625265   3.6985514  73.3472490  49.4093943
   4.3198839  73.7959576  49.9828386   4.1716531  72.5739765  49.1020584
 112.8341579  77.3901367  57.9600334 112.5184727  77.6342106  57.0899773
 113.7279320  77.7310038  57.9948664  26.8178630  62.5015259  87.9753208
  26.0761118  62.2767448  87.4136162  27.5573421  62.0254660  87.5974751
  90.5492115  84.4418621  44.9432898  90.6184959  85.0106239  44.1765165
  91.3211727  83.8780594  44.8938370  95.3773117  18.6785948   9.5545876
  95.3166962  19.5252955   9.9969167  94.4726086  18.3703279   9.5023990
  10.3537917  73.0309439  87.2279549  11.0935283  72.4546337  87.0358944
  10.7319736  73.7415791  87.7458477 110.1801872  57.3474407  85.6149673
 110.3917789  56.8277931  84.8394489 110.3271866  58.2535124  85.3435802
 108.7454987  88.3800793  89.2601109 109.5891571  88.8296700  89.3084049
 108.0966282  89.0807819  89.3250084   0.6090127  78.9005852  83.5210609
   0.3279648  78.0156279  83.2884789   0.3591500  79.4367838  82.7685356
  75.1841021 101.4489269  37.7946806  74.4951153 101.5890408  37.1451473
  74.9987698 102.0885944  38.4822178  55.9994459   9.3704474  57.4744749
  55.5540752   9.5787162  58.2957554  55.5844927   9.9392939  56.8260479
  70.1557016  24.9335504  18.5911036  69.2261791  25.0509405  18.7871468
  70.4906607  25.8229756  18.4772635   5.6118369  90.8592701  75.0028563
   5.0795013  91.1462307  75.7448149   5.7994705  89.9384117  75.1846361
   0.3066660 101.0434628  81.6533661   0.2900451 100.6513977  82.5264359
   0.5199742 101.9636822  81.8080711  95.1212406  79.5400000  52.7099228
  94.3939400  79.2350388  53.2523823  94.7796535  80.3159237  52.2655201
  74.8466825  98.1694412  61.4866066  74.4739771  97.4025059  61.9215012
  75.2097416  97.8284264  60.6692123 102.0202351  59.1228056  64.8648596
 101.2826157  58.7924480  64.3520117 101.7705631  58.9616776  65.7747698
   3.7817991  85.9733295  71.9688559   4.6732861  86.3210201  71.9932127
   3.8961858  85.0251865  71.9041777  60.5910730  42.7153301   9.6505743
  60.2259779  41.8397093   9.7779471  61.5247726  42.6147985   9.8358667
 110.8084679  77.8022051  72.2446680 110.1447105  77.9166746  71.5645552
 111.0238838  76.8700457  72.2146273 104.5123482  67.1209478  79.3715715
 104.0604305  67.9458237  79.1938353 105.1610470  67.0475817  78.6715460
  13.0544281 107.0985413  65.7141161  13.2513404 107.3452950  66.6177607
  12.1502709 106.7856503  65.7428741   4.1531032  50.4065990  56.1026192
   4.2847613  49.8321342  56.8568659   3.2754382  50.1907253  55.7874441
   5.2449268 100.2972889  55.7598591   4.9297807 100.3776646  54.8596048
   5.1947516  99.3601799  55.9484196  95.4351616  63.2469463  19.1296375
  96.0892391  62.5780249  19.3320012  95.9479046  64.0270996  18.9182508
  25.8496499 107.1144581  10.3502738  25.8802438 106.2058067  10.0508630
  26.7535353 107.3179817  10.5906975  16.9776618  75.8070040  91.5810776
  17.1766555  75.6065702  92.4956608  17.8121960  75.6983852  91.1250210
 108.1525421  65.6958961  83.2838535 107.8867531  66.5004492  83.7291431
 107.4430466  65.0783491  83.4613037  33.4250832   5.8208454  54.1329956
  33.5923171   6.4066726  53.3947086  32.5156045   5.5451220  54.0187311
  90.0022316  29.6333647  80.5759907  90.6024837  30.2830148  80.2100945
  89.4950581  29.3259120  79.8246765  73.8068819   7.1743631   1.9893324
  74.5836687   6.7457664   2.3486970  73.9208317   7.1202070   1.0404829
   6.5643501  51.8545246  56.4805031   6.3629913  52.5689602  55.8761263
   6.0279006  51.1233330  56.1742210  94.1401196  63.7949562  64.9878311
  95.0029278  64.2092419  64.9755669  93.5246277  64.5202637  64.8813343
  17.4891806  19.7599852  77.7759981  17.4743652  20.2217507  76.9376755
  18.2402384  20.1299405  78.2399797  42.7949762  73.7143326  80.3872490
  42.5831890  74.3887234  79.7418261  43.4814310  74.1064501  80.9269238
  85.1281834  83.3239269  74.2659426  84.9527073  82.4856281  73.8385057
  84.7804642  83.2186508  75.1515198  66.5965509  58.9355373  55.5222416
  65.7327700  59.3469191  55.4925680  66.5749741  58.2824850  54.8227501
 107.8286552  85.5925369  83.4262085 108.0310535  84.6682167  83.5707188
 107.8708267  85.7012749  82.4761391  52.7584219  98.9541817  82.7845097
  53.1723213  99.4365406  82.0688057  51.8899584  99.3479252  82.8679752
  95.4442024  92.4359512  82.2903919  95.0769424  92.9430580  83.0144119
  94.6817207  92.1494007  81.7876720 105.1930237  46.4956427  19.1540444
 104.5756912  46.0800362  18.5520411 105.4242897  47.3209715  18.7279296
  24.3633914   5.6112784  54.4687128  24.4477582   5.0803226  55.2606726
  24.9391842   6.3607454  54.6203566  13.5732436  68.7751150  32.9705048
  13.2502377  69.5400143  33.4467697  13.1076515  68.0355835  33.3610773
   5.6523621 101.1398125  72.6153135   4.9045852 100.6814384  72.9986620
   5.7172060 101.9529915  73.1160879   0.6703984  92.4449348  87.4322701
   0.4904276  92.0876122  86.5627003   1.4086546  91.9283962  87.7553844
  22.9700470  75.4111433  64.0111113  22.6876974  74.9380589  64.7938633
  23.8717842  75.6705856  64.2002964   1.9262482   9.4382703  86.6950607
   2.3256037   8.5774308  86.5697575   2.5851172   9.9404508  87.1745777
  90.7736111  87.2747040  47.7546120  90.7452011  86.6950893  48.5158443
  91.1864471  86.7495823  47.0690107 106.8977928  56.6990852  79.4972324
 106.3197994  56.3813877  80.1909256 106.5033722  56.3724947  78.6885309
  24.4340897 103.1446075   4.1234288  23.9303350 103.2564449   4.9296284
  24.6450305 102.2112274   4.1003373 109.5943260  27.6488662   3.9055264
 110.5095768  27.4338317   3.7257749 109.1707230  27.6293969   3.0473804
  23.4789324 108.0250454  32.1908212  22.5792837 108.0018425  31.8647456
  23.9449286 107.3841763  31.6538239   9.2209494  79.5647335  58.1071138
   9.1833436  80.4926205  58.3391476   9.0422559  79.5455217  57.1669340
  22.6684952  62.3953772  72.4428797  22.7707601  63.3429480  72.3540592
  23.5605478  62.0522547  72.3905468  51.4287519  25.4800272   5.5455852
  51.8307638  24.8567033   6.1506337  50.4886818  25.3967214   5.7054579
  93.5165787  73.5726500  63.0260944  93.2090855  73.2436514  62.1814394
  93.0495930  73.0442333  63.6733437   2.4686198  71.3035440  54.6578360
   2.8014347  70.7949352  55.3972816   1.5187660  71.3048267  54.7761869
 100.7811737  87.7231979  35.6482172 100.9421825  88.5625172  36.0793209
 100.7534885  87.9346561  34.7150755 100.5515766  75.4131460  77.9857349
 100.0353622  75.5655241  78.7772751 100.6528854  76.2811089  77.5950813
  38.4508014  37.1116519   7.7603567  38.6057997  36.3846159   8.3633703
  38.5148406  36.7186713   6.8898988  15.5369830  50.2443790  70.5561495
  14.8175132  50.4109383  71.1651278  15.9815288  51.0881138  70.4741240
  11.5646076 103.8497066  46.8541479  10.8632100 104.4920063  46.7458582
  11.1877358 103.0281162  46.5391922  92.0268250  91.0501099  64.1030788
  92.7741241  91.3189983  63.5687733  91.2738323  91.1255074  63.5169458
  75.7255888  84.6409512  73.7836123  75.0704432  84.1345978  74.2638350
  76.5434265  84.4827747  74.2551565  64.5411539  54.6114063  14.9720013
  64.6239328  54.0812254  15.7646465  65.3484392  55.1248407  14.9418831
  91.0923004  16.4462638   0.8495393  91.3989830  15.7108700   0.3190935
  91.1709595  17.2064936   0.2732622  17.6714659  52.3856306  91.0459042
  17.7771986  51.9542694  90.1979828  17.4196494  53.2831097  90.8283138
  68.2061100  52.3754215   8.5570621  68.3167505  53.3260298   8.5387427
  69.0515518  52.0416307   8.8571334  47.0483255  14.5589435  75.2963066
  46.9623423  15.3289127  74.7341824  47.0528936  13.8186860  74.6894836
  13.5198498  54.1753387  66.0949945  12.6095676  53.9206600  65.9441376
  13.7939489  54.5825768  65.2732515  17.5275338  68.7467003  61.4635086
  17.0761287  68.9905167  62.2716045  17.7917171  67.8371334  61.6018057
   8.5430288  72.2669363  68.5987043   8.8595688  71.6925383  67.9014969
   9.2018110  72.9589605  68.6565018 104.9120331  99.1555119  86.8291855
 104.9954796  98.8977814  85.9111214 105.2893066 100.0344372  86.8664551
 101.3710785  97.2963715  90.5996227 100.7083321  97.9867268  90.5791187
 102.1208858  97.6703548  90.1368618  98.5244560  88.6109161  81.5429306
  98.0175400  89.3735504  81.8215752  98.6538696  88.1035519  82.3442268
  20.6669307  22.3634863  52.2125006  20.7720852  21.6382122  51.5967464
  21.0305715  23.1212187  51.7544174 102.1607208 100.8412075  62.9394054
 102.8844261 100.9357548  62.3201036 102.4633503 100.1804733  63.5623693
  20.7865500  87.6258278  74.8069000  21.4440417  86.9510841  74.6376276
  20.2965569  87.6937199  73.9874315  69.6023579  86.2723017  94.6807939
  69.7094984  86.0676933  93.7518766  70.2468629  86.9593311  94.8506053
  97.5535297  71.2152863  80.0185394  97.1257401  70.6297731  79.3937111
  97.0957851  72.0497704  79.9168730  82.5242996  68.5736704  59.6867800
  82.9025936  67.8632116  60.2048254  81.6117859  68.3155870  59.5566320
  32.2129846  18.2265186  44.8480844  32.6345730  18.6374950  45.6028032
  32.8695393  17.6181841  44.5088243   0.9289188  85.9730148  61.4569139
   0.7584013  86.9137383  61.5037632   1.8712708  85.8927727  61.6044474
  85.3487492   2.0020889  18.3437395  85.0746632   1.2115638  18.8086891
  85.0912857   1.8468697  17.4349737  95.2370262  90.5234528  67.1437311
  95.2028942  91.0903168  67.9142761  94.9664307  91.0875034  66.4192629
  90.7561111   1.1096027  52.6265192  90.2471542   1.5147367  51.9243383
  91.4288807   1.7565987  52.8386688  92.0701790 102.2651386  58.5460567
  92.1043301 103.0094910  57.9452133  92.8137684 102.3976612  59.1340590
   8.2232940 105.8718109   5.3084564   9.1006023 106.2378788   5.1963866
   8.1488103 105.2127457   4.6183014  91.9210625  80.0562859  65.6526089
  91.9269180  80.7642269  66.2968206  92.3110008  80.4427338  64.8684978
  96.2774563  56.1357117  90.0140190  95.6744289  56.2428856  89.2784309
  96.1252499  55.2416658  90.3201962  24.1532493 104.1238308  72.4515438
  23.2405424 104.1480064  72.7389765  24.1222644 104.3914223  71.5330315
  12.6139534  44.9910307  47.8946352  12.0561278  45.7648706  47.9735994
  12.4318492  44.4828415  48.6850834  74.1172600  91.4097691  70.0551033
  74.4704437  91.7012215  69.2145395  74.7175074  90.7212830  70.3413343
  97.3900509  98.8101482  72.0128965  98.2584476  99.1286850  72.2591829
  97.1934414  98.1290817  72.6561165 115.8762264  62.0556259  58.3138800
 115.9023380  61.1064053  58.4344196 116.7796707  62.3396683  58.4529829
  92.4962330  25.6939864  66.3686895  92.5752926  25.3312635  65.4864120
  93.3746719  25.6135774  66.7403221  66.6474104   2.0398198  90.4795456
  66.1908579   2.8601712  90.6661320  67.0584488   1.8001999  91.3101196
  90.9579659  73.1205416  77.9623842  91.8721294  73.3896971  78.0523825
  90.9441185  72.2135782  78.2680988  89.7689056  97.6660538  92.1630383
  90.4330063  97.6050186  92.8496742  89.5146942  96.7587662  91.9943619
 105.2619362 101.4762783  44.5088243 104.5593262 100.8333778  44.4126415
 105.0122929 102.1929741  43.9255047  96.2005138  67.2727060  54.1997671
  96.1042976  67.8629684  53.4523964  96.8456554  67.7014494  54.7620821
  28.7491894  26.2506127   9.0851104  29.3957496  26.8820119   8.7696290
  28.6466956  25.6313753   8.3624268  60.1807261  20.6412196   4.1077584
  60.5189419  19.9390817   4.6634954  60.0000143  20.2168369   3.2690248
  96.1094952  84.4430161  94.2216015  96.6939259  84.9350262  94.7983074
  95.9536839  85.0296688  93.4814739   5.3210753  95.9834290  43.6387777
   5.5947244  96.2592602  44.5135736   5.8918458  95.2435207  43.4314537
  85.0534058  27.9248857  12.0682335  85.2747917  28.0257559  11.1424637
  84.9698067  26.9795251  12.1928811 107.1047401  72.5985241  67.8296471
 106.6092777  73.4173107  67.8115034 107.1074581  72.3000097  66.9201899
  23.6889911  61.8704939  59.2738152  24.4411707  61.8055153  59.8622370
  24.0739417  61.9653845  58.4025860  21.8753433  15.6234074  94.8771286
  21.9376493  16.3389993  94.2444515  22.2942376  14.8812342  94.4413090
   4.9538204  30.5782318  82.1690083   5.3671563  29.8248124  81.7474079
   5.6699365  31.1982250  82.3069191  84.7760296  44.2045069  47.5071239
  85.2893353  43.4013510  47.4194336  84.6639347  44.3152332  48.4512663
 111.0705566  44.1995239  91.1075687 111.8629265  44.6917772  91.3222027
 110.4607964  44.8593187  90.7772732  39.2923975  13.7487864  49.1143036
  39.7215319  13.1748343  49.7488546  38.7307572  13.1648147  48.6046314
   9.2282915  68.9855385  74.1616344   9.7511750  68.1857491  74.2178488
   9.8713410  69.6840525  74.0399647  10.0025690  83.8759041  54.9028540
   9.7271717  83.3567238  54.1473150  10.5121911  84.5938301  54.5272017
 109.7930431  95.5355644  85.8353424 109.4976521  95.4251480  86.7391014
 109.4762993  94.7539234  85.3826427  91.2933254  90.2754307  74.6187735
  91.6262436  89.5995331  74.0283823  90.8523178  89.7889996  75.3152895
 105.5612564  87.6286221  61.6380310 105.0325966  87.0223999  62.1569204
 105.4028225  88.4849739  62.0352745 115.3075027  74.5977879  45.5132961
 115.2294731  73.9381361  46.2024975 114.6509457  74.3449020  44.8642778
  15.7465684  71.5375042  92.4887657  15.2937269  71.5468216  91.6455078
  16.6761482  71.5610981  92.2617054 113.6149025  78.4323883  71.9582605
 113.4430027  78.7001944  71.0555077 112.7855587  78.0619335  72.2602367
  10.6926739 107.6657200   9.0620470  11.0346103 107.4358749   9.9260378
  11.4678562 107.9026222   8.5529292  89.9410343  94.6833515  91.6583157
  89.4795132  94.8468018  92.4808216  89.2469883  94.6253681  91.0016727
 100.3703213 104.3610954  74.1393995  99.8267460 105.1131535  74.3742609
 100.7931137 104.6177769  73.3198833  35.3878903  11.4975309  38.0671358
  35.2431822  11.2239683  37.1613455  35.9785223  12.2477221  37.9993129
  29.2280841  14.2586553  36.7138720  29.7299051  15.0558460  36.5438819
  29.2906976  14.1335738  37.6607966   7.8745180   6.2301213  55.6135845
   7.4705750   6.0330403  56.4587021   8.7612695   5.8765870  55.6837082
 103.4700680  70.2043629  46.8754101 103.9227104  70.9688139  46.5190887
 102.5555515  70.4783344  46.9448709 114.3923855  94.8968124  75.7724142
 114.9111938  95.3537178  76.4344549 114.8501301  95.0678730  74.9493456
  62.5946951  11.1272418  68.5641146  62.9485464  11.2053072  69.4500732
  62.9262447  10.2871776  68.2469416 113.9550591  80.3289986  60.8366203
 113.7346268  79.4597244  60.5019569 113.4501648  80.4092216  61.6458654
  58.6631012  79.0349674  83.9105797  57.8061295  78.7660694  83.5796356
  58.7014580  79.9759626  83.7394333   0.7313026  80.7303238  68.0536175
   1.5579900  80.7337284  67.5711155   0.9715803  80.4556179  68.9385080
 102.5236893  30.1843762   4.2444783 102.0557308  30.2714729   5.0749397
 101.9305801  29.6806669   3.6870378   1.3263363  92.4940395  69.7145271
   1.6518289  91.6378307  69.4366837   0.5547342  92.2962284  70.2453136
  82.1829128  71.8692446  63.5717487  81.7774105  72.5398159  64.1214132
  81.5422726  71.7076778  62.8791380  27.7065158  97.6638985  63.7192059
  26.8815684  97.9372406  63.3179855  27.5633240  97.7729607  64.6593332
  15.5567420  95.8585358  91.8316555  15.0923502  95.4215240  92.5455189
  16.4824581  95.7697964  92.0583820 101.7223835  95.5873489  87.5938225
 101.2297344  96.2526131  88.0743980 102.0345688  94.9856853  88.2696724
  10.9478307  93.5564613  70.9709454  10.2662861  93.9156532  71.5390205
  11.6157115  94.2412376  70.9356642  34.1687918  65.7246304  65.1777744
  34.8085308  65.0457954  65.3925848  34.6003461  66.5448093  65.4171515
  89.2845726  21.7547059  13.3902335  89.7141266  21.6833496  14.2426550
  89.3115044  22.6894641  13.1859541 109.3877220  54.2567539  55.9850311
 109.0256786  54.6545124  56.7768288 109.2004681  53.3227682  56.0790539
  92.8186607  84.6089935  86.9948196  92.2060871  85.3406906  86.9199657
  92.5010204  84.1064930  87.7450466 107.5385857  99.8889065  73.3412457
 106.6021919  99.7461700  73.4791613 107.5909042 100.7488728  72.9241610
 114.8519993  25.4762006  89.1992950 114.9980831  25.2118969  90.1076126
 113.9550495  25.2001548  89.0108204  28.6051059  92.5046635  81.8533230
  29.0078211  91.6977692  81.5324306  29.2690063  92.8937531  82.4225998
  78.7891054  39.8253012   6.7576677  79.1044712  40.5166531   7.3397380
  78.2529831  40.2832699   6.1103141   4.4153199  58.2158232  65.6331730
   4.5342457  57.8563213  64.7540569   4.1051307  59.1094255  65.4865742
  39.3342972   9.1521752  42.3774242  38.8500357   9.3928003  41.5876007
  40.0493002   8.5999727  42.0610762  87.1702290  94.0514851  68.9841127
  87.4415779  94.2794991  69.8732758  87.8722095  93.4894276  68.6561775
 100.9899330  99.7775745  40.2094603 101.1528587  98.8398266  40.3109503
 101.7365932 100.0969505  39.7027779  76.1851072  88.2211590  85.7334328
  76.4772081  87.3182583  85.8586788  76.9689178  88.7495422  85.8840370
   6.8541932  69.3811083  64.5072794   6.2977099  69.5865345  65.2585173
   6.4006609  69.7704935  63.7596703  66.9831991  72.8337431   2.6356509
  67.6717043  73.4696102   2.4410519  66.2590170  73.3607054   2.9734433
  90.0721741 107.5763702  55.8596849  89.7969532 108.3310604  55.3391790
  90.9266472 107.3367691  55.5009365   1.0969806  70.6165504  63.0366087
   1.8994351  71.1362076  63.0841303   1.1239116  70.2131319  62.1689892
 108.9016819 105.1667690  51.6606140 109.2480183 105.0784016  50.7726526
 109.6649742 105.0561810  52.2275209  70.4415178 103.4665108  56.5493441
  71.3829756 103.3207130  56.4564371  70.0470066 102.9292870  55.8623409
 108.0378914  97.2620392  73.1832170 107.8199387  98.1470299  73.4756756
 108.7715149  97.3828888  72.5803614  96.2725163  59.5862150  80.0941753
  95.3782368  59.3573570  80.3473949  96.1661339  60.2528095  79.4155312
  54.1418886  45.2510357   7.0552212  54.9299717  44.7333908   6.8902910
  53.6356306  44.7257376   7.6748925  92.3669147  89.9867916  85.5676365
  92.2473812  90.8721352  85.9113026  92.1551800  90.0604725  84.6370602
  82.6447201  98.9426327  73.2161522  82.0254612  98.2151604  73.2757235
  82.9051876  99.1102123  74.1218567  92.4723148  91.9535732  68.8406420
  91.8772316  92.5328636  69.3165922  92.2139645  92.0458698  67.9235983
 107.6937675  95.5731869  56.5825939 107.0574665  96.2191963  56.8892384
 107.8120327  95.7753372  55.6544876  66.1523581  14.5751059  79.6598291
  66.0503292  13.9654613  78.9289665  65.4922152  15.2501702  79.5025682
  91.2657261 100.3757381  71.9769859  90.9619713  99.8952293  72.7471018
  92.2166348 100.2665710  71.9862413 101.4112186 102.1549416  83.9188194
 102.1514511 101.5747547  84.0967941 100.7179165 101.5711212  83.6110592
 111.4295101  97.8327274  74.2666769 110.7904339  98.1227398  74.9176073
 111.9141388  97.1317577  74.7025824  81.6487789  37.6621318   0.9799112
  80.8698273  37.1278667   1.1349104  82.3798752  37.0503330   1.0661485
  13.2386839   2.5387087  51.3333178  13.4330571   3.0545017  50.5507517
  12.2916102   2.4034454  51.3018942 111.9319725  70.9085655  75.2647829
 111.9801140  70.0698900  74.8059416 112.5196838  71.4837074  74.7748375
  85.9979916  64.5039940  73.6531401  85.3844929  63.9600945  73.1591463
  86.8569374  64.2843819  73.2922983   5.4046333  78.1750441  73.2046318
   6.2086779  77.9790592  73.6856031   4.9324664  77.3428249  73.1781864
  77.8810930 109.8835659  53.5194731  77.7392054 108.9395428  53.5896063
  77.2016335 110.2696133  54.0722275 105.9230042 109.3851471  29.8805952
 106.3098907 108.5334587  29.6776986 105.1033211 109.3996906  29.3864870
  24.8332334   1.2626907  81.8768978  24.8354483   0.4657399  81.3467121
  25.4518771   1.8452258  81.4362621   9.7958928  15.3103995  31.4144206
   9.9098849  15.3299391  32.3646069   9.4753283  16.1848795  31.1936164
  85.0126553   3.4093964  39.8663187  85.0613689   4.1316903  40.4925394
  85.2932167   2.6414746  40.3641272  36.1520314  97.3688316  75.3016710
  35.5668783  97.0285797  75.9784698  35.6690955  97.2471905  74.4842291
   9.5500970  92.7989578  57.9024363   9.7117645  93.0179501  56.9847536
   9.7026396  93.6175728  58.3744860 100.4676533  95.6147671  52.2894764
 100.7577515  94.7028065  52.2693777  99.8845768  95.6639862  53.0469942
 109.9649334 108.1271267  74.6096611 110.6059456 108.5099792  75.2086306
 109.4167137 108.8647652  74.3421221  92.5584126  86.2183762  61.3828373
  92.1049213  86.9264126  61.8402863  92.3167133  86.3335133  60.4638386
  71.8298054  99.2026424  91.1221218  71.4052629  99.1783619  91.9796848
  72.7657175  99.2408466  91.3191986 110.0909138  86.8806362  73.0500984
 109.1583920  86.6650200  73.0379105 110.2936459  87.1182251  72.1452904
  41.7873049 102.5720978  71.7193747  41.2532043 102.6712227  70.9312487
  42.6331711 102.2601223  71.3977957  10.6305838  71.4303970  64.6627331
  11.5016365  71.3499975  65.0513649  10.0359201  71.1042309  65.3381729
  45.8820486   2.2652869  67.0813894  45.7517529   1.6338885  67.7889109
  45.0925589   2.8063551  67.0948124 108.6189079  91.2111855  67.7191687
 109.0760708  91.4643288  68.5211372 109.1441727  91.5899849  67.0142984
  93.3347893  89.6964550  79.0418386  93.8864326  89.8991108  79.7973824
  92.7824402  90.4707432  78.9340067 100.6423378 105.7364750   7.1640068
 101.5505791 105.4403019   7.1040189 100.1870728 105.2542496   6.4737737
   4.6968704 101.9353104  35.7847810   5.6001830 101.6228676  35.8361578
   4.3265584 101.4746475  35.0318599  93.4692097  80.9241486  69.5126104
  93.5125542  81.8421364  69.7802734  92.7428436  80.5609608  70.0192881
  29.0000010  34.6434903  80.8715343  29.6026659  33.9067411  80.7703972
  28.5363483  34.4631410  81.6893005   6.0087222  77.1769524  92.5052071
   5.7107955  76.4887953  91.9102955   5.2153349  77.4612999  92.9589844
  10.9334075  67.6715040  54.1747665  10.0736380  67.9988623  53.9104462
  10.8220875  66.7223310  54.2286777  48.8605881   7.7348268  82.6189327
  48.3150530   8.3556247  83.1018734  48.4840822   7.7191776  81.7390251
   8.2924902  81.8038273  68.2877541   7.3525685  81.6233349  68.2735968
   8.6835420  81.0091305  68.6507511  20.6424952   6.8681037  64.9520588
  19.8852813   6.8788451  65.5375004  21.3716125   6.5942979  65.5085230
 106.8205166  93.4904003  81.4865398 105.9899616  93.8754272  81.2069702
 107.3957443  93.5845089  80.7272816  98.5863495  65.5412292  10.6993806
  97.6531410  65.5328321  10.4865730  98.7019444  64.8040438  11.2989056
  14.6326876 107.9589367  51.8129301  15.3842318 108.5310268  51.6576147
  14.4685662 108.0291080  52.7533388 114.2665958 103.6012840  87.5503445
 114.7735310 103.0541706  86.9504261 113.8571358 102.9803085  88.1528187
 112.3578262  91.0983849  57.9827929 111.7159271  91.4176655  57.3485565
 113.0481720  90.7062149  57.4481440  46.1134434  99.4176579  58.3334303
  46.1582613 100.2668476  57.8940010  46.5359163  99.5634079  59.1798973
  18.1000960  34.5328593  66.3870955  18.2795262  34.2782497  65.4819918
  18.9067268  34.3251562  66.8587303  92.9578590   7.5323445  54.1470289
  93.0317211   6.9800431  53.3687353  92.2093964   7.1745014  54.6245050
  71.3911438   2.9580128  82.2272301  71.9531107   3.5236341  82.7568531
  70.9561348   3.5549545  81.6184139  95.7483768  79.1786242  10.1502955
  95.8654308  80.1180077  10.0085378  95.9965134  78.7779284   9.3171692
  22.5701451 102.8836060  49.4757271  23.0500174 102.1102905  49.1791677
  22.1877360 102.6216030  50.3131962  35.7065773  89.1540527  48.5075951
  36.6368055  88.9355850  48.5639381  35.6743574  89.9176216  47.9312563
  69.8799086  21.6284823  60.6527662  69.1554070  21.3034296  61.1872482
  70.6452370  21.5680099  61.2244701  56.2971354   7.5161415  87.5686836
  55.4386663   7.1704125  87.3242760  56.1021709   8.2955658  88.0889797
  87.6137161  20.0362587  41.4433479  87.5438786  19.7963762  40.5193281
  86.7701340  19.7860587  41.8201733  81.6238689  19.3503368  75.6306410
  81.9742680  18.6720181  76.2079954  81.9861507  20.1672983  75.9735107
  44.9379396  21.0063434  68.0993938  44.1735363  21.2900829  67.5979805
  45.5122709  21.7719507  68.1142998  89.3934155  74.6185255  50.4958344
  88.5126305  74.9867344  50.5656958  89.2523766  73.7071848  50.2393150
  12.4585533  92.9986000  90.2389526  12.6202762  92.8949833  89.3012238
  11.5352058  93.2441330  90.2970695  58.0822182  17.4536085  77.4962521
  58.6052561  17.5556409  76.7011070  58.6457682  17.7810168  78.1972885
  62.9693937  19.2171240  54.0554762  63.4116745  18.8730168  54.8314953
  62.1307945  19.5428419  54.3824196  59.5481062  21.4194918  70.1478958
  60.0188065  21.2247515  69.3374968  59.3780613  22.3605299  70.1058960
  41.6704702  97.9557228  63.6214399  42.4280691  97.8890896  63.0402040
  41.6773844  98.8649178  63.9206648  31.7156768 100.5418491  71.0737753
  32.1897388 101.1891937  70.5518150  30.8795452 100.9621716  71.2748909
   7.2367436  76.0176277  29.6026492   7.2455442  76.8789482  30.0201130
   7.0088595  75.4119396  30.3079486  76.0648155   1.1809348  79.2030859
  76.1189985   0.4817713  79.8545980  75.6808233   0.7615601  78.4330845
  34.1075349  68.9139652  70.8363581  33.2714224  68.6924696  71.2463427
  34.1580653  68.3414507  70.0709105  64.8655319  14.6610332  37.9477501
  64.8134470  15.1688421  37.1380281  65.3491831  15.2236056  38.5525846
   0.6926621  77.5348282   7.9638690   0.3957417  77.1780825   8.8010097
   0.4210063  78.4524345   7.9846883  75.1630259  16.4068007  59.2051411
  76.0141468  16.3984442  58.7672377  75.2506876  17.0735097  59.8863506
   3.1192189  89.0120411  79.9103355   3.7173003  88.2947731  80.1202393
   2.2486708  88.6602116  80.0963211  13.5483587 101.1395073  18.8399529
  12.9291272 101.5280056  18.2220101  13.6646521 100.2414417  18.5298121
  31.1070967 104.9106789  66.4670086  31.0809183 105.7609463  66.0281467
  30.4919720 104.3676758  65.9740591  18.6539292 109.6263409  54.1441441
  18.6712921 108.8020229  53.6579037  18.1001282 109.4448853  54.9034929
  67.7953625   5.1175708  47.1889639  67.6175690   5.7072127  46.4561987
  68.3367014   5.6339866  47.7860403  90.5536270  23.2509971  72.9014826
  90.0234795  23.7963629  73.4826565  91.3727570  23.7355995  72.7994728
   4.1482982 101.1479187  42.7832317   3.8489184 100.2621174  42.9880810
   4.4316509 101.0998154  41.8701982  85.0564098   2.5575879  69.7270250
  85.9385681   2.6130837  70.0943899  84.5558643   2.0670754  70.3790092
  30.6590748 106.8346214  30.3350091  31.2502384 107.0733643  31.0489821
  29.9892521 107.5183964  30.3398681  28.2194400 108.1569386  63.8796139
  28.9659500 108.6217785  64.2576027  28.3989716 108.1398392  62.9395533
  56.4303589  26.1584091  51.9657612  56.3166761  26.6060853  52.8041458
  56.5271950  25.2350020  52.1985102  75.9621000  20.2305245  77.2873831
  75.2261829  20.7170081  76.9159079  76.3972855  20.8581638  77.8643656
  29.4010830 109.3860340  49.5938540  29.1406083 109.6323872  48.7063360
  29.9524045 110.1097870  49.8912668 114.4894218  77.5472307  74.1896582
 114.2143440  78.0890703  74.9292278 114.1971493  78.0305433  73.4168577
  15.8839822  66.3556433  37.4259758  15.0770569  66.0698748  36.9976759
  15.6272268  66.5241241  38.3325744  67.9002094  17.5926101  89.2959023
  67.5120163  16.7419064  89.5004463  67.2115135  18.0635583  88.8267136
  53.5465145  95.4765892  53.4616327  52.6425171  95.2038097  53.3047104
  53.5847092  96.3766289  53.1380749  34.8121405  81.5462685  63.7707233
  35.5816507  81.7179966  63.2279587  34.6638942  80.6045151  63.6849642
  20.3339505 104.2205620  23.3039570  19.7463512 103.6907959  22.7651501
  20.1176476 103.9776325  24.2041945  80.0977516  59.0047026   0.8259302
  80.4108047  58.3115387   1.4070922  80.1930046  59.8077917   1.3379917
  46.9040176   1.2022389  36.6857839  46.0850796   1.3212002  37.1668482
  46.9225362   0.2695454  36.4713812  27.9361963  71.3466644  73.4991503
  28.4259868  70.5617476  73.2537031  27.2547340  71.0283756  74.0912104
  48.7109375   6.1593503  67.7656078  48.5524464   5.3390849  68.2328129
  49.6345758   6.1191297  67.5176096  33.0360699 108.6597157  48.8658953
  33.0595899 108.5645008  47.9137325  33.7759519 108.1382275  49.1770983
  69.2549706   9.0108919  70.8706570  68.8410759   9.8533499  71.0582447
  68.5350800   8.3803833  70.8917475  17.3438382 106.2449551  67.2543144
  16.9906604 105.3922462  67.0005703  18.2683957 106.2035942  67.0099449
  69.6773577  15.4832375  58.4177160  70.5654335  15.8261645  58.5174656
  69.2176056  15.7764935  59.2043972  23.0685043  66.4941740  51.3327026
  23.2289124  65.5678225  51.1527777  22.2426081  66.6850138  50.8880520
  16.3543999  98.8480091  93.9692974  15.4830074  98.7455940  93.5866451
  16.2111080  98.7791252  94.9131966  91.5295029   4.8545691  66.8659925
  92.2514534   5.1915771  66.3354731  91.6967392   5.1978117  67.7437449
   4.9778253 103.2764149  48.5769844   5.6410885 103.4066200  47.8992224
   4.9074945 102.3257637  48.6637878  51.2200022  92.9848385  62.0069933
  50.3917408  93.0261326  61.5289688  51.4458132  92.0546913  62.0149994
  76.4720869  12.9570329  72.4279070  75.6432486  13.1074321  72.8824854
  76.5592003  12.0042861  72.3976326  53.3367825  24.3623900  86.0468578
  53.5822630  25.0664616  85.4466534  53.0648613  24.8131084  86.8463230
  34.2377353 100.0787926  61.7682457  34.2230868 101.0066509  61.5335321
  33.4335303  99.7233105  61.3899374  65.9766102   4.9271145  53.4051514
  65.2024698   4.8474962  53.9624691  66.6621828   4.4560632  53.8787889
  26.2504935  96.2442017  35.6652761  26.7198086  96.8838501  35.1297164
  26.5179992  96.4411449  36.5629888  28.5113811 103.4981346  86.0754299
  29.1841555 104.1790199  86.0735989  28.5344529 103.1410122  86.9632149
  76.0128593   0.9062772  26.5851641  76.0888481   0.6109984  27.4925065
  75.8452225   0.1067195  26.0863280  25.4074049  13.0615342  61.6782808
  25.5637503  12.7030444  60.8046293  26.1305094  12.7256405  62.2079325
  62.7114868   1.1435975  91.6164970  62.1915483   1.3117580  90.8306122
  62.6773453   0.1934689  91.7275047  88.0791378  17.2620761  64.1563320
  88.9637280  16.9898069  63.9122105  88.1786060  17.6463044  65.0273705
  97.1789265  94.7724152  81.3929939  97.3780155  94.9579811  80.4753017
  96.6784286  93.9568329  81.3693237  68.2303715  21.9810843  58.0853271
  69.0649366  21.6629243  58.4295797  68.2919693  21.8408871  57.1404552
  31.1587834 107.3033047  72.3121357  30.6550002 107.3451710  71.4993095
  30.5025983 107.1561337  72.9933071  37.9823971  29.4103575  81.0491085
  37.6357007  28.8165498  80.3832054  38.5067368  28.8494015  81.6206264
  39.2233753  20.0180316  55.6338120  38.7289715  20.2460122  56.4210987
  39.8017263  20.7668710  55.4889536  80.1999378  43.9670181   5.8446002
  80.9456539  43.5395575   6.2658244  79.6843433  44.3189287   6.5702349
  47.3663953 109.6916179  60.9442234  47.1718934 109.0052844  61.5824604
  47.2496942 110.5090169  61.4284468 114.9567509  70.1885843  88.6922932
 115.2823925  69.6467972  87.9735088 115.3441238  69.8024082  89.4778156
  60.8235168   7.6470184  71.0434008  60.6357861   8.4028345  70.4868650
  60.6326103   7.9499274  71.9311142 116.4425814  58.6581135   7.8932667
 116.0152527  57.8021765   7.9246855 115.9974849  59.1728878   8.5664177
 106.4431858   5.6859261  51.6366959 106.0500717   4.8146418  51.6872692
 106.8971634   5.7927483  52.4725962  21.7036390   2.1784839  47.5152540
  21.6407132   1.3798840  46.9913197  21.9375014   1.8722689  48.3914804
 111.7005730 100.8060074  19.1933453 112.5870037 101.0447693  18.9223135
 111.1438274 101.4895916  18.8205469  51.9183826   9.4602013  40.6368923
  52.3351431  10.2740109  40.9201860  52.5189638   9.0976089  39.9856949
  44.4549036  22.6350141  58.7689781  44.0912199  23.4841180  58.5179996
  45.2613115  22.8490782  59.2381430  30.3203130 101.5564823  41.6569614
  31.0495520 101.3837528  41.0614729  30.1937580 102.5042152  41.6120625
  86.1867714  16.3546908  21.1850786  86.0300922  17.2583723  21.4590120
  86.5403366  15.9260345  21.9644833  34.1788769  86.8780613  56.2665081
  34.1821361  87.7526855  55.8776140  34.5256329  87.0071697  57.1493006
  64.1338873  29.2632651  71.2548447  64.0246534  28.3204126  71.1310482
  64.7594070  29.3393469  71.9753742  88.5482407  18.2722187  48.9573240
  89.3616772  18.6800790  48.6603260  88.7836742  17.8373814  49.7769070
  22.9168224  85.6507778   6.5049446  22.9395556  84.7346973   6.2283427
  23.0689192  86.1475563   5.7010102  44.6467924  92.7061558  46.7243195
  45.0166893  92.6174068  45.8459473  45.4042244  92.6669407  47.3082590
  74.6151543  68.6594439  24.5691657  75.3215599  69.2416096  24.8489976
  75.0619841  67.9294586  24.1405725  42.2129154  23.9924431  35.1516342
  42.6776886  24.0507030  35.9863925  42.7761936  24.4549179  34.5310950
  27.1171212  91.5276623  77.1021318  26.8846941  91.2313652  77.9821396
  27.0732021  90.7373333  76.5639067   4.3154442  78.8227463  12.8884614
   3.6222777  78.1633520  12.9193032   3.9970243  79.4760227  12.2655058
  14.8115504 102.2820663  53.3906126  14.5515120 101.4003563  53.6574411
  14.9313641 102.7558327  54.2136717  42.9260445  13.9410257  33.0960393
  43.3707237  13.5166657  33.8298035  43.5190678  14.6440113  32.8307676
  47.4069500  14.4230580  78.3757448  46.5975857  14.9066973  78.5408211
  47.3624754  14.1912150  77.4481106  57.5040483   7.3353964  37.3531246
  58.0417347   7.1683276  38.1272125  58.1352186   7.4403411  36.6411924
  21.3686132  95.8871651  48.8511467  22.3116875  95.7370758  48.9168644
  21.0934663  95.3579807  48.1024837  66.1316681  17.0886695  39.3343568
  65.9966421  18.0317318  39.2414451  66.9948483  16.9314551  38.9516878
  77.8527975   9.0705115  50.8612871  78.2531404   9.6078664  50.1777649
  78.2319736   9.3985492  51.6766691  43.2801008  77.0322895  54.9954462
  43.9439011  76.3740969  55.2013254  42.4960184  76.5245199  54.7866011
  14.7694767  16.1885667  70.4197168  15.2475142  16.4874446  71.1932707
  15.1632786  15.3424847  70.2068853  83.9629173   5.5378115  57.4560785
  83.0965614   5.4522276  57.8539896  83.7864971   5.7952756  56.5511894
  40.9677649  99.2192650  58.7342024  41.8388891  98.8743401  58.5382557
  41.1124659  99.8473549  59.4418716  71.1402941   7.6691157  50.5906725
  71.1886311   8.1471443  51.4185524  70.5038261   6.9728369  50.7529497
  39.4388938  95.2686977  45.0089312  39.6025944  96.0447788  44.4730854
  40.0132704  94.5975780  44.6402502  40.5419922  17.1033132  38.7612295
  39.6297812  16.8154097  38.7263465  41.0098124  16.3691330  39.1591668
   1.7337057  92.0094681  15.5991673   1.7104748  91.5020180  16.4104533
   0.9111764  91.7951775  15.1589882  45.9938574 108.5838318  31.7730021
  46.5398979 107.8805637  31.4215899  45.4815006 108.8866234  31.0233092
  84.1542053   6.2258720  72.1736526  83.8488102   5.9062731  71.3246441
  84.7277355   6.9619274  71.9603014 112.0985222  62.7015209  13.1646407
 113.0379295  62.5180483  13.1558216 111.6856480  61.8398190  13.1077695
  29.9889398  96.2769794  76.3332367  29.3824649  97.0074272  76.2112761
  30.0584030  95.8761215  75.4667950  58.3223343   1.0381463  65.5471849
  58.6038494   1.7772353  65.0079918  58.9546967   0.3460613  65.3538752
  73.7178469  16.9679916  30.0867772  73.1303740  17.7014518  30.2688265
  74.4432354  17.3575795  29.5986485  77.7712536   5.5885071  66.0372353
  77.5707531   5.0557399  66.8067741  76.9286633   5.6999838  65.5969620
  41.5528393  16.0257721  43.9361715  41.7930460  15.1194406  44.1287661
  41.9226789  16.5306509  44.6604252  37.4775100  97.7467823  68.1547928
  37.8885007  98.5100174  68.5607481  38.2022452  97.1434021  67.9907370
  76.0743332  16.0496700  36.5217209  76.6517878  15.6543386  35.8686590
  76.5236759  16.8532288  36.7836642  59.9861526  22.1574903  54.5197201
  60.0991201  21.2675357  54.1858768  59.5438623  22.0434093  55.3609085
  37.3154616 104.4390965  48.5799885  36.4169788 104.2039585  48.8116550
  37.5929570 105.0373173  49.2737818  19.4366586  92.0008278  48.9357948
  19.3981540  92.9303741  48.7106466  19.3052411  91.5470982  48.1032705
  32.3392630  26.5749168  52.2426558  32.7836657  27.3782635  52.5135279
  31.4085102  26.7973924  52.2634840  84.6913624  21.9327474  52.3578072
  85.5921841  22.2072244  52.1863270  84.3780518  22.5428915  53.0254841
  74.4692850  11.9574428  62.1378851  74.5276737  11.9875467  63.0928278
  75.3602219  12.1372354  61.8376589  39.2997098 102.2849178  55.4469681
  39.3725085 101.3370895  55.5589962  38.8444138 102.5848198  56.2337303
  69.2970276   5.8184284  51.1550379  69.1190290   4.8781171  51.1741018
  68.5216951   6.2170213  51.5502787  45.6740713   6.5833968  74.6898127
  46.2838936   7.1858901  75.1156664  46.1001778   5.7284456  74.7508526
  40.3832293  95.7098389  52.0111084  40.7890797  96.4858341  51.6246653
  40.7214069  94.9794960  51.4929581  52.9594707   3.4433770  53.5917568
  52.1945620   3.0755240  53.1492281  52.6295090   3.7271044  54.4443130
  97.2309685  13.7489617  37.9773808  96.6623783  13.7362242  38.7472987
  97.0607758  14.5972729  37.5679493  80.7143593  20.0716162  63.9223146
  80.7033825  19.1206002  64.0303898  81.6374588  20.3113079  64.0039396
  21.0376596 108.8437653  79.0382433  21.6863680 108.4357834  78.4646893
  21.0385442 108.2998180  79.8258734  54.9915552  82.2179794  59.4105339
  55.6908607  82.4905396  60.0045967  54.3430710  81.8022251  59.9787331
  18.8990152  19.6544874  32.2532749  18.7694645  18.7097204  32.1704292
  18.0839109  20.0373673  31.9288683   4.4776207  97.8500080  57.2242308
   4.4916561  97.1746349  57.9023933   4.0874389  97.4182415  56.4642525
  92.5750351  42.9184532  49.6457577  91.8570423  43.4886694  49.9206495
  92.3713112  42.0700788  50.0394440  71.5125036   8.7213570  10.5042541
  71.2478495   8.4154773   9.6367121  71.9204950   9.5723003  10.3440297
   2.2657451  14.5326877  22.4523902   1.5624373  13.9077950  22.2760367
   2.0458530  14.9062002  23.3058333  70.3106976   3.0034474  68.5325289
  70.7654572   2.8032443  69.3506575  69.7280979   2.2568107  68.3934355
  37.9810357  96.4275742  64.9095392  37.4970818  96.2755489  64.0978098
  37.8956604  95.6078720  65.3963947  29.6364880   1.1317471  79.3228054
  28.7275529   1.3441174  79.1107559  29.7530627   0.2357247  79.0069151
  60.2345514   2.3210731  80.3984833  60.8624840   2.3205164  81.1209297
  60.4349566   1.5249136  79.9063444  98.6756325   6.6121668  33.7029028
  98.5547543   7.3505473  33.1058979  98.7668037   5.8520424  33.1283331
  82.3933792   4.6264604  32.9272556  83.2545567   4.2621106  33.1318641
  81.9086361   4.5724714  33.7508655  77.0444345  12.1733975  47.4569178
  76.2620544  12.5017798  47.0138884  77.7739239  12.5623560  46.9744396
  21.4217925 102.2664738  94.2876339  20.7145715 102.2530365  93.6427402
  22.2091889 102.0602512  93.7839413  52.6258898 105.7659721  81.3982964
  52.2402811 106.6080666  81.1565971  53.0904436 105.9413338  82.2166252
  40.1596975 108.4388351  54.1142464  39.3503213 107.9929256  53.8646412
  39.9816442 109.3656445  53.9543867  68.4807110  17.0858026  38.0381465
  69.1076279  17.4684012  37.4242878  68.9999342  16.8851912  38.8168597
  67.0896387   8.1571674  73.9787912  67.3899555   9.0202045  74.2637634
  66.6550589   7.7887619  74.7479773  68.4352016  29.4559932  59.9976397
  68.9382267  28.9939189  59.3270540  68.8524294  29.2087245  60.8228779
  53.6563015  91.2009335  61.0784960  52.9131222  90.6322002  61.2796354
  54.4109058  90.6122494  61.0623264  96.9994926  51.4079285  36.2714338
  97.5163937  51.3503838  35.4678631  97.6061535  51.1499929  36.9654512
 100.0164318  11.1898363  88.3262825 100.0778008  12.1450496  88.3321381
 100.6108952  10.9073758  89.0213013  17.7321136  97.1826553  43.1740284
  17.7429128  98.0940437  43.4663963  17.6383340  97.2373009  42.2230005
  87.8038788  25.4937983  34.8037076  86.8840122  25.3628492  35.0338006
  88.0497742  24.6956086  34.3360949  42.4497938  26.1052322  93.3525562
  42.8513193  25.4667377  92.7632046  41.6987658  26.4426374  92.8643417
  23.5010314 100.4195309  64.5651293  23.8401055  99.6168613  64.9613523
  22.5956941 100.4737663  64.8711538  88.0344200  17.6257074  36.1957669
  88.8586807  17.2402346  36.4927936  88.1810570  17.8208447  35.2702141
  69.0837765   6.2217206  36.3763547  68.9326096   6.6108978  37.2377038
  70.0199604   6.0225785  36.3644719  50.3756380  93.4115505  81.7853642
  50.9158182  94.1902637  81.6509914  49.4987011  93.6777878  81.5090752
 103.3285904  64.0132189  56.9732141 103.2994080  63.1037664  56.6761112
 103.4371567  63.9517927  57.9222488   2.2323699  25.4743075  50.4384947
   1.4221853  25.8562255  50.1008987   2.1320859  25.5023718  51.3900089
  50.9696007  26.7043352  40.6665468  50.8120728  26.5262437  39.7393489
  51.4958048  27.5039124  40.6708336  31.8970132  90.2844620  43.3828688
  30.9814119  90.5492401  43.2945538  32.0913601  89.8192692  42.5691986
  43.3304739 105.9734249  66.7070675  42.7983046 105.9202480  67.5009203
  42.9657030 106.7145157  66.2233782 112.4508381 103.2354832  32.0413685
 111.9520760 102.7430153  32.6932454 112.2352505 104.1514587  32.2167063
  35.5371118 107.5058746  52.0814943  34.7586799 107.1172619  52.4805641
  35.3935671 107.4159145  51.1394072  78.0289602  19.5126963  90.6240463
  78.4693050  19.5421660  91.4734364  78.1550980  18.6139011  90.3199196
  70.0833511   7.4581909  73.0447197  69.6844816   8.0290276  72.3880005
  69.5259190   6.6801351  73.0560827  71.8513727  16.4372170  45.0726175
  72.7429199  16.0977614  44.9942255  71.4251614  16.1821532  44.2543745
  83.6728191  19.2411327  20.6053495  83.7392807  18.6400878  19.8633516
  83.2867241  20.0354695  20.2363062  41.8898249  30.7795715  43.4206724
  41.3308764  31.1088490  44.1245079  41.2878180  30.6105614  42.6959276
 103.3383942  12.5832379  94.3249035 104.2931461  12.5149512  94.3215179
 103.0347347  11.7066896  94.0889168  34.4527245 106.5295219  39.8774958
  35.3873372 106.6743469  40.0249863  34.4094324 105.6876278  39.4240904
  36.4220524  32.8107142  64.8193598  36.8970203  31.9804335  64.8549891
  37.0733452  33.4467196  64.5234776  90.3459358   9.2938310  59.5192814
  91.0903358   9.2033887  58.9243746  89.8388481   8.4920150  59.3920374
  78.9206553   0.5308349  70.9456444  79.2852259   1.2437331  70.4211521
  79.6438932   0.2528945  71.5076971 111.0249805  70.1376772   3.6011896
 110.4501057  70.2295494   4.3609953 111.8883419  69.9596548   3.9742109
  42.4721909 100.9539795  39.3013310  41.8582916 100.7451248  40.0054169
  41.9154310 101.1364937  38.5444069  45.2230597 105.4517269  52.0106220
  45.6165981 104.6392632  52.3288250  44.9985170 105.9362602  52.8049994
 112.5149155  76.7096281  54.0988207 112.2500992  77.6294136  54.0892267
 113.4211922  76.7245102  54.4065285  55.2416277  29.2127967  87.1041012
  56.1680698  29.3224025  87.3183918  55.2277231  29.0958476  86.1541748
 114.0957832  22.4504995  92.8526688 114.3976688  22.7773237  93.7001896
 113.4460068  23.0923057  92.5661087  97.4115753  14.6762359  89.9112415
  97.9854870  14.3671894  89.2102814  97.4194050  13.9692056  90.5564404
  71.2786531  15.2855802  78.3697414  71.2801886  16.2320471  78.5126781
  70.5547476  14.9634206  78.9067745 100.6532669  29.9519706  59.3453598
 100.8311176  29.8622131  60.2816010  99.9845028  29.2915440  59.1642094
  75.2751303  78.8548231  50.4209805  74.4935417  79.4073772  50.4149866
  74.9405241  77.9653740  50.3063154  90.9425449  33.0574727  34.4117308
  90.3281593  33.2483387  35.1204824  90.5737305  32.2894979  33.9753580
  79.8969603  25.4041624  82.3976421  79.1932154  25.8477426  81.9241238
  80.6946850  25.6566548  81.9327545  68.9986944 106.9856548  28.4107494
  68.6678600 106.1208725  28.6535001  68.3487320 107.5967789  28.7576056
  69.8713827  18.0723393  81.1988735  70.0983763  18.9499843  81.5061951
  70.2022314  18.0398607  80.3012562  65.0613737   4.4656286  50.8794260
  65.3472281   3.5541999  50.9411955  65.2529526   4.8356593  51.7411709
  70.8384943  18.5200679  52.9083490  71.1156702  17.6319325  53.1333351
  70.0151634  18.6410689  53.3813381  35.4693174 100.7762432  50.8860540
  36.3905740 100.5598545  51.0299110  34.9912477 100.1909065  51.4734745
  25.2889490 104.4162464  51.1532307  24.8188233 104.1067028  51.9274330
  25.3789473 103.6394691  50.6011820  68.4455204  30.8389783  38.3575845
  67.6398659  30.4742026  38.7237668  68.9010000  31.2167597  39.1099501
  78.2618189  48.3578014  57.8891468  78.2791185  47.8649759  58.7095499
  79.1797972  48.5660839  57.7154636  58.9451456  31.4703751  44.3660164
  59.5562363  31.0911202  44.9976540  59.4862652  32.0451093  43.8246298
  83.9580917  25.7846904  83.9774323  84.7867298  25.3656650  83.7450027
  83.4851265  25.8563948  83.1483459  83.9107418  19.0804100  47.9074287
  83.8902760  18.4804928  48.6530209  83.2925510  19.7731042  48.1403255
   0.0253104 107.0895100  52.2013903  -0.5028610 107.7302551  51.7252493
   0.8734382 107.5176144  52.3181820  93.1668949  34.8643517  38.1150246
  93.7087917  35.5983853  38.4044623  93.4430408  34.7039723  37.2126627
  29.8392391  92.5363541  62.3999357  30.1614165  93.4106064  62.6192999
  28.9635539  92.6862240  62.0436430  60.6702185  29.8537588  55.0240183
  60.4692698  30.0123644  55.9463453  61.4672852  29.3239903  55.0402069
  98.7324524  46.1330366  56.5300131  99.2052650  46.3826036  55.7360363
  98.5204029  46.9646645  56.9538784  23.5997820 104.7501564  75.3900480
  23.2332516 104.9320889  74.5247269  23.6347079 103.7948608  75.4393482
  67.4467325  10.7185829  75.3750706  68.1123781  10.3656471  75.9654760
  67.7371073  11.6124666  75.1937294  66.7437840  10.7903719  59.1272831
  66.2057877  10.9545839  59.9017668  67.5659084  11.2470698  59.3055201
   3.8064587 106.6250801  67.0851231   4.2421886 106.5670681  66.2348270
   3.1735209 105.9070396  67.0793962  68.0545044  19.8797452  79.7040081
  68.1863642  20.8273244  79.6733713  68.2375145  19.5835030  78.8123941
 100.6812954  24.2554712  87.1243668  99.7350216  24.3950462  87.1606827
 100.9187603  24.4582963  86.2195396  55.6385946  19.6371543  71.1554146
  55.7295609  20.5387402  70.8470297  54.7940922  19.6221220  71.6057730
  86.5057182  25.3049493  79.8619699  86.8469048  25.2947187  80.7562447
  87.0240211  25.9744811  79.4155169  74.9708128  10.6871045  26.1514235
  75.2786875  10.2949941  26.9685459  74.8896360   9.9490911  25.5472875
  82.2316170  15.9211123  30.9165049  82.6242638  15.5184758  31.6910625
  81.9011402  16.7643237  31.2263680  11.8738663  40.9590435  93.9041328
  11.0967422  40.8733988  94.4563770  11.7499685  40.3078127  93.2136440
   9.5112753  98.9426804  35.1216030   9.6508664  98.7560177  36.0499907
   9.1996264  98.1151485  34.7551322  88.0831814   1.8548684  68.1115437
  87.9387474   2.7901730  68.2549858  88.2001781   1.4930962  68.9899874
  54.1658354  99.4479084  64.1425610  54.9485874  99.0363312  64.5088053
  53.7987900  98.7857246  63.5568857  71.2712717  63.6471653  36.2246561
  70.5262947  63.9500809  36.7437744  71.3517094  62.7181101  36.4405751
  42.0552397  23.3622003  62.3493481  42.9456472  23.6776757  62.5038862
  41.6306925  23.4142637  63.2056665  30.8547664 105.9254646  80.4805851
  30.3392172 106.4205742  79.8439550  31.6633272 105.7079315  80.0167561
  60.0528097  17.8298819  79.1333628  60.8725739  18.1172669  78.7313366
  60.3005552  17.5643647  80.0189972  95.6089020   0.7886741  44.2203426
  94.6656036   0.7607886  44.3804932  95.6900120   1.1107303  43.3226061
  81.9988823   9.4295776  56.0160112  81.1986828   9.9251807  56.1900568
  82.5380611   9.5638210  56.7954302 102.3950481  38.5663867  55.9270525
 102.9844761  38.1695080  55.2857351 102.0877552  37.8310204  56.4571905
 115.3402328  90.9827042  74.7779036 115.3962612  90.0710583  74.4915342
 114.5495701  91.3182926  74.3554640  62.8896713  16.9560266  85.2336025
  62.5463629  16.0720861  85.1031399  62.2160673  17.4011195  85.7477856
  50.5691576 107.4751282  60.7143354  50.0162792 107.9825974  60.1201725
  50.2458763 107.6943111  61.5882206  92.6277256  15.6555283  42.1680784
  91.9567108  16.1935532  41.7479610  92.8201580  16.1098838  42.9882956
 105.9696770  25.3399491  78.4608889 105.5408001  25.9018135  79.1063356
 106.2763023  25.9434247  77.7841091  44.7120762   1.7777184  56.3067579
  45.2236652   1.6330700  55.5107784  45.1450253   1.2409464  56.9705868
 104.4751453  15.6149220  65.8277512 104.2490959  16.4876437  65.5060434
 105.2445889  15.3632534  65.3170204  23.4707189  96.5393448  85.2322197
  22.8731561  96.5940952  85.9779739  23.1674695  97.2203541  84.6318054
  31.5933323  92.2721767  71.7624617  32.1042418  92.0312881  70.9896851
  31.9701052  93.1041813  72.0488834  36.7078805  32.4390793  68.6587906
  37.3709226  32.6424265  67.9990482  36.3806725  33.2932878  68.9407349
  56.1225510  22.4217248  17.2140002  55.8702803  22.7334213  18.0831587
  56.2441158  23.2196069  16.6993761  83.8234769  29.4141163  94.3983794
  83.1608241  28.7417377  94.5565768  83.4990566  30.1845230  94.8646957
   9.7410136  95.2962971  65.5250740   9.3615454  96.1644554  65.6612301
   8.9960623  94.6978378  65.5809784  93.9789009  20.0696969  58.6162043
  93.8667965  20.6231451  57.8433180  93.0879974  19.9098742  58.9276123
  44.1978264  94.0574646  33.7895536  43.7409544  94.8750401  33.9872146
  43.5827112  93.5646248  33.2464361  36.1321998  99.2041779  72.4705935
  35.5638528  99.5569801  71.7859411  36.9081473  99.7642803  72.4499321
 105.4150200  97.9870796  50.2534485 105.4710388  98.9198780  50.4607677
 104.5029449  97.7567482  50.4303837  51.2055159 108.1873798  53.3783627
  51.4242887 108.2675362  54.3067694  51.4491272 109.0326691  53.0010366
  32.2790766 107.6604748  77.5626945  32.3174500 106.7057705  77.6201487
  33.0588603 107.9018784  77.0628023   7.5661939  72.5623226  63.2786989
   7.3292404  72.0792818  62.4870205   8.2836878  73.1337023  63.0049133
  57.9541683   6.6234481  43.7986755  58.4083605   6.1668396  43.0905485
  57.8659964   5.9666532  44.4893837  78.3849144 103.9143562  75.1831532
  78.9271164 104.5261192  74.6851587  78.0606794 103.2948399  74.5294714
  47.0165586  91.2385464  44.6855736  46.8618727  92.1694851  44.8457432
  47.1762514  91.1808872  43.7435532  79.6965313  23.6559582  75.7938099
  80.0779915  23.6517954  74.9159098  78.8096237  23.9932942  75.6679821
  27.6585627 105.4389000  52.8020763  28.0792379 106.2294006  52.4638796
  26.9966984 105.2204132  52.1460056  15.9356344  77.0659876  21.0898137
  15.5179381  76.9588089  20.2352524  15.5484605  76.3798094  21.6333985
  61.5463495  26.0594535  23.3598280  61.9943953  25.4400349  22.7837968
  60.8267450  26.4020491  22.8297114  37.4008775  82.6760197  59.2358494
  38.2240033  82.9563713  58.8357258  37.4835467  82.9281425  60.1555395
  39.0116906   3.5514629  37.8391314  38.3222270   3.3512387  37.2060585
  38.7072682   3.1584433  38.6571121  67.8676701  11.5703702  71.6471195
  68.4881353  12.2299004  71.9574022  67.4761200  11.9590962  70.8649349
  82.5393102   0.2121914  62.4299383  82.1296403   0.2759732  63.2926893
  83.3920810  -0.1884376  62.5987577  47.2723627 105.4393578  89.5444870
  46.4502811 105.9048653  89.6984959  47.0366144 104.7272587  88.9498711
  77.2665834  18.4114468  35.8550525  77.5413561  18.5094190  34.9433851
  76.3902807  18.7955093  35.8836865  46.0812616  38.7887669  38.6777329
  45.2978086  38.7247968  39.2239356  46.6335440  39.4298172  39.1252494
  84.4942760  11.1493671  38.9409733  84.6591854  10.9289467  39.8577332
  84.7656631  10.3707278  38.4548640  74.3026686  15.7355249  77.1969175
  74.9414921  16.1644149  77.7662945  74.0260029  14.9616385  77.6876163
 109.8834419  91.9452095  69.9616957 109.1210270  92.1357632  70.5081844
 110.2651978  92.8030491  69.7756529 109.0845966  24.4109607  56.4613628
 108.9543152  23.9901567  55.6115532 109.8463631  24.9764705  56.3343287
 100.3175926  12.4259055  34.3569946  99.9692154  13.0223036  33.6942887
  99.6035767  11.8108821  34.5248008  93.2631493  33.6111283  72.4161816
  92.9395962  32.7331233  72.2145557  92.7781296  34.1867638  71.8248796
  69.7642136  20.5436158  72.6459026  69.8816919  20.4316902  71.7025566
  70.4204655  19.9682033  73.0389261  49.5066357 108.2454014  46.0776758
  48.9833450 108.0430698  46.8532133  49.0046978 107.8814220  45.3484201
  14.6488917  92.7006340  59.8626328  14.1267395  93.4317207  60.1929426
  14.8189104  92.1599674  60.6339931  80.3241348  30.2720547  42.5456381
  79.9303722  31.0370469  42.9651260  79.9804688  29.5259881  43.0370712
  35.6831741  11.4252758  18.7744546  36.3664174  12.0690429  18.9614701
  35.7513094  10.7898271  19.4870520  65.7972765 106.4014435  60.0680780
  65.8208895 106.4386368  61.0242653  65.0018930 105.9082699  59.8671389
  51.1453485  52.0341682  27.8206849  50.3115749  51.9841671  27.3531842
  50.9665108  52.6034307  28.5691404  81.4489651  30.2446866  34.3044662
  81.0934067  29.9401999  33.4695435  82.3927593  30.3030491  34.1558480
 100.0683308  24.2421961  53.8184595 100.3734207  23.7978554  53.0274391
 100.7927513  24.8173976  54.0645885  86.4027023  20.9433889  11.3593054
  85.6694984  20.5034995  10.9290278  86.0724449  21.1628747  12.2305048
  41.7180395 105.9842300  61.6250658  41.6381216 106.8850327  61.3113832
  40.8435917 105.6121922  61.5103388  55.9600878   6.9147056  54.5389986
  56.6067743   6.3292575  54.1449451  55.9937048   6.7139053  55.4742956
  78.1024647   2.1174788  39.4871807  78.3298016   1.6171399  38.7034655
  77.6611423   2.8984237  39.1531229  58.3579445  34.6174908  88.7434864
  57.4696398  34.6016359  89.0997124  58.2355309  34.7120547  87.7988720
  66.3913250  12.6249504  48.4321260  66.4882183  12.0026255  49.1529274
  66.0864449  13.4301996  48.8502789  44.5757532  23.8141322  63.5199308
  44.8813772  22.9086828  63.4652424  45.3378773  24.3061256  63.8254499
  36.4869452 105.7295036  70.4472065  37.2917485 105.7372856  70.9653378
  36.5590835 104.9443531  69.9044704  67.3722982   7.1930808  52.7985859
  66.9491768   6.3374162  52.7276278  67.9976559   7.0922667  53.5162210
  29.3867183  93.9226055  49.1311121  29.7156191  93.0353165  48.9869833
  28.9274812  94.1424274  48.3205462  67.2463322   1.0608566  70.7294273
  68.0617142   1.4166357  71.0826969  66.5731049   1.3458574  71.3473034
  53.8854218  23.5342121  71.1938572  54.1763401  24.2396283  71.7717695
  52.9490519  23.4485626  71.3730574  79.0598059   2.2932109  79.9988127
  78.8484478   1.4631265  80.4260349  79.4776869   2.8154266  80.6835747
  88.1647587  24.4102335  82.0117569  88.8224983  24.3387938  81.3200092
  88.5342121  25.0414300  82.6292706  50.4975224  87.7688217  88.4398937
  50.5579758  86.8243504  88.2965374  49.5821190  87.9169464  88.6772156
  81.3847637  26.0439491  36.8299890  81.0065651  26.8485379  37.1847224
  81.2113380  25.3822756  37.4995756  67.8114223   2.1754640  87.8112984
  67.1541691   2.0465688  88.4951401  67.3119593   2.4788213  87.0531845
  58.0400944  36.5247035  65.6108618  57.4066067  35.9563208  66.0488892
  57.5539684  36.9067264  64.8801279  93.6410713  11.8985307  62.6105118
  93.7726498  12.1103644  61.6863680  93.1957626  11.0512745  62.6009798
  80.3729725  11.4999199  57.2316504  81.0842991  11.7504108  57.8211403
  80.1109409  12.3188138  56.8109608  48.0893373  24.9203324  87.9445839
  48.7258434  25.1729155  87.2757816  48.5434103  25.0660157  88.7745380
  26.1805701  33.3359861  42.0872593  27.0353007  32.9524493  42.2836542
  25.6709743  32.6118898  41.7236328  28.6042190  86.9820118   3.3705854
  28.0941153  86.3589287   3.8880748  28.7990236  86.5154457   2.5578144
  46.3801670  93.5647678  59.8814535  46.1683607  94.1975307  60.5677271
  45.5416012  93.1576729  59.6639347 106.4638424  51.5436172  26.3989711
 106.4717579  51.3874578  25.4546285 106.8048859  50.7337666  26.7785215
  78.5070992  34.3930888  18.1360507  78.1914616  35.2704263  17.9195178
  78.8924742  34.0694594  17.3218119  73.5605717  35.2899885  55.7687044
  72.6716042  35.6439495  55.7426596  73.6434364  34.9149084  56.6454506
  50.3252983 108.5510349  70.9029484  49.7982550 108.3826733  70.1218510
  51.2303162 108.5175037  70.5930281  11.6621065  88.0375099  32.6990342
  12.2006857  88.1375217  33.4839964  10.7775307  88.2657337  32.9848218
  78.2889462  17.5846004  70.1788902  78.3094740  18.1201315  70.9719944
  78.5338449  16.7080390  70.4753685 110.0333023  92.7977467  40.0167990
 109.5491791  92.8332329  39.1918159 109.5068741  92.2295570  40.5791807
  57.1914339  45.8266258  29.8527288  58.1439114  45.8533764  29.9438691
  56.8622351  45.9399939  30.7443619  52.2354889  92.5807285  88.9673901
  52.4619532  91.7654037  89.4148159  52.8917694  93.2092667  89.2681789
  89.4099331  21.8690896  65.1947784  89.2102146  21.7959142  66.1280441
  89.4786263  22.8108048  65.0376606  91.0972309   9.5996028  41.0694170
  91.3639545  10.2836883  40.4553175  91.3980961   9.9128813  41.9223976
  74.9027300  64.2658472  42.9391193  75.4544163  64.8401546  42.4080420
  75.1631451  64.4508934  43.8414383  64.5801592  26.1361027  31.1567163
  65.0952911  25.9882164  31.9498110  65.2148342  26.0705566  30.4431868
  74.3855667  13.8459778  19.7418129  73.5199308  14.1556406  20.0083065
  74.6751118  13.2914972  20.4663444  72.6887178  32.1432066  40.5346012
  73.3528805  32.4430156  39.9139285  73.1160402  31.4378619  41.0205269
  53.9905357 108.6028385  47.3938274  53.4038782 108.4004402  46.6650629
  53.9719200 109.5576954  47.4582100   3.6095929  34.4069195  80.5057526
   4.3811882  34.0792799  80.9678459   3.0056727  34.6659946  81.2017441
  68.5504246   9.8114425  47.3495436  68.9697838  10.0988162  48.1605816
  68.1799078   8.9548099  47.5619793  81.7335224  43.1106186  31.8242931
  80.9266663  42.5979280  31.7756891  81.4371681  44.0193844  31.8748403
  32.8666329  99.0635681  83.5324383  32.6043153  99.7264957  84.1711426
  32.1630144  99.0645695  82.8834724   0.8903842  41.0630322  10.7979500
   0.3116074  40.5847120  11.3916326   0.9894705  41.9247818  11.2026763
  52.5909758  12.1654558  50.3730536  52.2715950  13.0208266  50.0857019
  53.1573963  11.8695271  49.6604395  45.2266407  13.1054759  48.8859558
  45.9318018  13.4050488  48.3121634  44.6118021  13.8386130  48.9126682
  80.9424686  39.9307013  58.3349562  80.5105591  39.1911244  57.9075050
  80.2418423  40.3726244  58.8146114  92.4517632  56.8206358   1.1543435
  91.6916847  56.6360426   0.6025901  92.1865082  57.5727701   1.6836444
 105.2911854  29.4387531  54.9229097 105.9873867  28.8423133  54.6475983
 105.7115746  30.0222826  55.5545664  58.5287333  45.0035763  20.1998591
  59.2452860  44.3690062  20.1895857  58.9626646  45.8536816  20.2723479
  60.0409269   4.5760936  36.6338515  59.2163658   4.1052911  36.7549825
  60.5204964   4.0570256  35.9882426  58.6407042  99.8549938  24.6264195
  57.9242945 100.4425240  24.8668218  58.2504368  98.9811707  24.6453142
  13.1814218  13.5891616  73.1033659  13.7955773  12.9288161  73.4242868
  12.4111593  13.4920704  73.6632824 109.6172237  43.3511925  76.3458776
 108.9300728  42.8973866  76.8338394 109.8637390  44.0864658  76.9069767
  59.1664267   7.0251292  55.2971125  58.3318806   6.8991590  55.7486629
  59.1022778   6.4740485  54.5170975 109.6572781  38.9011168  45.8838701
 109.5857906  39.0936589  44.9489689 109.7193909  39.7602677  46.3012886
  98.0681705  31.9731927  59.8698235  98.8147163  31.5243936  59.4729853
  98.3191586  32.8968859  59.8750591  84.3048191  34.3807006  50.1340294
  84.2166519  34.4225883  51.0862398  84.6520519  33.5050702  49.9639368
  80.4522324  21.9691706  53.5457039  80.8766556  22.7655172  53.2264423
  79.8645926  22.2720003  54.2379475  69.8040533  34.4223142  28.3154511
  68.8533735  34.3700171  28.4139395  70.1495886  34.0672803  29.1344690
  52.9892159  10.1818860  52.6312971  53.8296652   9.7259074  52.6755667
  52.9144430  10.4581654  51.7178869  37.8068376  24.5782518  49.7857714
  37.5041842  24.8594499  50.6492329  38.1636167  23.7019300  49.9307013
  48.5415173  29.0861368  52.2511148  49.1811562  28.3740568  52.2569084
  47.9946375  28.9231062  53.0196095  86.8510914  18.5663152  92.0769119
  86.4923191  18.2134187  92.8911495  87.4316120  19.2736912  92.3577213
  74.7454643  12.2613716  22.0512772  75.4396820  11.6128087  21.9343925
  74.6726942  12.3659909  22.9999566  80.5220127  35.1954746  47.4531651
  80.7682228  35.9653497  47.9659081  79.8597288  35.5169368  46.8413877
  86.8661880  21.3795233  66.9311333  87.0851421  22.3041773  67.0464802
  86.1760712  21.3777399  66.2678289 100.1529026  27.8034902  53.4888935
 101.0253525  28.0830169  53.2115364  99.5557976  28.4032083  53.0416393
  99.3178368  26.1209726  77.9314375  98.6985016  26.4789486  78.5674429
 100.1506519  26.0854316  78.4019613  66.7750120  54.4503784   5.8240455
  66.8374109  55.3539753   6.1336452  65.9191990  54.1507053   6.1306602
  81.3605213  28.8948917  51.3644934  80.8862019  28.4031391  52.0348930
  80.6906033  29.4339728  50.9439707  66.2102318  40.8424950  28.9637399
  66.7331171  41.6422606  29.0202880  66.3849354  40.5036926  28.0857158
  84.1400814  44.4100380  37.3637772  83.8043785  43.5136604  37.3702788
  85.0552464  44.3211365  37.0976925  75.1850224  13.6092687  85.1542568
  74.9146652  14.5172811  85.2908325  76.0073709  13.6746562  84.6687698
  79.8058414  62.5976849  40.5368567  79.2347383  62.0284414  41.0526466
  79.2050791  63.1578588  40.0454140  76.2186098   9.4570136  48.4642220
  76.9315958   9.6717608  49.0656900  76.3643122  10.0248945  47.7075720
  88.4862804  45.9880924  53.0625963  88.6991024  46.6807556  52.4371719
  89.2725086  45.9023952  53.6017942  93.9479637  36.4077592  66.6980219
  94.6948147  36.1571693  67.2417593  93.2748508  35.7583976  66.9016743
  92.5636387  25.6037307  49.2328024  92.4740601  26.5567279  49.2320538
  91.7198753  25.2840972  49.5523882  82.4466324   4.9511576  79.6234846
  83.2805347   4.4813314  79.6130419  81.9711781   4.6120921  78.8650608
 115.5282116  37.7270937  39.0688109 114.8259640  37.2525740  38.6239409
 116.3035965  37.5670958  38.5308385  43.7555981   4.5664451  55.8924294
  44.3843174   5.2054542  56.2280035  43.7823582   3.8489264  56.5254259
  80.2280807  40.6692266  33.9085484  79.9658728  40.8375072  33.0034757
  79.4591331  40.2637720  34.3092442  89.7904301  37.3867130  38.2663202
  90.0771427  37.3456454  39.1786480  89.1363525  38.0854273  38.2520366
  60.2600288  81.5716362  14.7936022  59.3382168  81.4534569  15.0227869
  60.4645824  80.8247948  14.2309082  93.6757183  22.4755716  72.8914642
  94.6184635  22.3629665  72.7698803  93.3509159  22.7260804  72.0266056
   4.2681417  40.2776766  57.2614288   3.6362004  40.6601858  56.6526842
   4.9962932  40.8988905  57.2724867 107.6895714  32.6131821  52.7973366
 107.7383041  31.9443750  53.4803820 108.3746338  33.2408690  53.0274153
   0.9921162  17.7812958  20.9387445   1.2391688  17.3219085  20.1361489
   0.6553364  18.6252034  20.6376958  79.6039963  20.7194495  74.5252800
  80.3221226  20.1257253  74.7444057  79.5088482  21.2758136  75.2983475
  89.4027042  16.2264156  69.1363382  89.9953079  16.3388383  68.3930969
  89.7386932  16.8252099  69.8032665  66.2834406  30.9665179  25.2242541
  65.8089018  30.1653957  25.0023293  66.9996262  31.0040832  24.5902991
  71.0470963  29.5777321  94.0902233  71.3653278  29.9211001  93.2553196
  71.3899899  28.6848688  94.1283131  50.7597256   5.7543576  43.5439873
  51.4728117   6.2139404  43.1006813  51.1993074   5.1597524  44.1518068
   6.0682952 105.1189613  90.5327702   6.1360335 104.7919273  89.6357250
   5.8520609 106.0461712  90.4339790  89.9180603  13.0224812  66.7342615
  90.6402969  13.4447825  67.1993065  89.1757584  13.0874598  67.3350954
  85.1241302  15.8867431  60.1643467  85.4419136  15.6818211  61.0436916
  84.1772938  15.9816015  60.2679110  86.6990185  46.1508894  46.9542646
  85.8986092  45.8324003  46.5369749  86.3937378  46.7737913  47.6138306
  92.3907852  28.6224365  63.7614489  91.4875984  28.4607339  63.4888172
  92.7964115  27.7554989  63.7728024 109.9525261  45.1237726  78.3009624
 110.3994274  45.1610374  79.1466141 109.4330597  45.9271193  78.2689762
 102.0119190  35.3436089  46.7583513 102.0280647  36.2040186  46.3392258
 102.4317932  35.4827762  47.6072168  61.2670279  34.0898490  55.2037382
  62.1941376  34.0870953  54.9656343  60.8211756  33.7349010  54.4346762
  66.6236544  34.2008662  51.4487123  66.9659662  33.4377408  51.9142151
  66.5642214  34.8827791  52.1178102 113.6977959  74.9109602   7.3139513
 113.2845306  75.0408602   6.4603871 114.5842171  74.6140432   7.1081883
  91.7130184  50.2208233  30.3598070  92.5150585  50.6447840  30.0544977
  92.0180798  49.4747925  30.8761430 111.7703629  31.2504220  48.7617826
 111.7591763  30.7991552  49.6058559 111.5572453  30.5697417  48.1234360
  54.9230146   9.8596126  41.2308073  55.3903198  10.0032496  40.4078722
  55.3939819   9.1401398  41.6512585  89.1430759  20.9021926  54.4456053
  89.9814796  21.1139488  54.0351629  89.3795681  20.5291677  55.2948141
   9.9906784   7.1038425  50.0046206  10.0448668   6.4987177  50.7442951
  10.6282067   6.7689812  49.3740177   0.4927162  76.7092848   4.8521495
   0.2984244  77.4645376   5.4071939   0.9824809  76.1143923   5.4200125
 105.9612370  49.2160797  20.7634449 105.4422665  48.4950447  21.1198354
 106.0719490  48.9970446  19.8382437  67.2079611  28.0453634  35.5468726
  66.7094612  27.5937438  36.2278771  66.5575743  28.2650208  34.8798037
  45.3023243  37.7637315  47.9525375  44.6735096  37.5640988  47.2590160
  45.2584743  37.0093083  48.5400343  79.8068523  12.1418989  63.6107111
  79.9301004  11.4294910  62.9833984  80.0979900  11.7778969  64.4467545
  33.3933735  91.2657452  90.5541134  32.8797293  91.3524437  91.3571644
  33.6897349  92.1554375  90.3621387  97.2266483  37.1301079  79.4314623
  97.6338863  36.9810796  80.2847958  97.2781372  38.0773401  79.3036556
  17.3946989  14.4420075  64.1192293  16.9131410  13.8651681  64.7121763
  18.1645548  13.9339077  63.8635159 103.5480690   5.1531982  64.4250631
 102.6479912   5.3943777  64.6439648 104.0822792   5.6006974  65.0812626
  11.4828408  34.3267560  75.2363873  10.9999359  35.1495266  75.1583815
  12.3033702  34.4854593  74.7697163  54.9831676  99.5074177  56.6150570
  54.0592098  99.3657207  56.4089966  55.0013733 100.3519154  57.0652962
  99.4115925  10.5074942  44.4037342  99.5754147  11.4505672  44.4063997
  99.6511364  10.2202928  45.2848530  62.7520180  30.1643562  37.3106885
  62.7420998  29.6897602  36.4794898  62.3827267  31.0222197  37.1010923
   3.5663098  31.6295052  79.6336460   3.9592394  31.1983967  80.3925800
   4.2918512  32.0999527  79.2231607   8.5661972  74.8226643   3.3805722
   7.7382869  74.3465948   3.3161288   8.6942679  75.1993608   2.5099808
  59.4579458  23.4502101  92.7908325  59.3251324  22.9579449  93.6009407
  59.0445995  24.2977881  92.9551029   7.0297688 105.3432274  23.6544371
   7.8463650 105.4475689  23.1660557   6.9646782 106.1374569  24.1847134
  78.4355736  33.3741164  47.4288797  78.8584614  32.5328279  47.6010084
  79.1603279  33.9936328  47.3442745  78.1650019   8.9668000  64.8243237
  77.8860044   8.7988180  63.9242268  78.2326412   8.0979365  65.2202177
  26.4444995  85.6254387  53.9910221  25.5401826  85.7743645  53.7148666
  26.7579317  84.9260044  53.4176254  48.0380297  29.8041511  41.7296171
  47.1066475  29.5837736  41.7158890  48.3409643  29.6195459  40.8405828
  65.0041866  81.2390232  54.9574471  65.8242321  81.4885998  55.3834438
  65.1047182  80.3051949  54.7728395  43.5873985  37.9493022  62.1314669
  42.7812052  38.3724523  62.4268007  43.9215422  38.5245013  61.4431906
   0.6181965  26.6652322  74.2252207  -0.2275028  26.7066503  74.6716690
   0.7160721  27.5256038  73.8172817  13.4767449 102.6871872  63.5253906
  12.9701650 102.0150375  63.9812803  14.3113232 102.7165699  63.9932060
  75.6790972  11.1004698  35.3545833  76.4313364  10.5396736  35.1651812
  75.1868534  10.6233692  36.0226464  61.0202074  17.9781866  65.4335690
  60.7702637  17.6658583  66.3031721  61.8909836  18.3563161  65.5560160
  97.5544357  25.3967643  48.8726854  98.3740234  25.6828094  48.4693384
  97.2690582  24.6569443  48.3365345  87.6361752  50.4719162  52.3507786
  86.9011307  50.6954956  52.9216957  87.3847103  49.6390486  51.9516182
  88.9902592  28.2385755  60.1592636  88.1715965  27.8399181  59.8641443
  89.0324593  28.0352759  61.0936737  83.7843323  32.4366522  56.0739756
  83.5680676  31.9652629  55.2694559  82.9572105  32.4842906  56.5533733
  92.8960991  21.3097334  75.5941868  93.2806301  21.3657141  74.7194147
  92.4256897  20.4761004  75.5961370   2.9848370  71.1891603  44.3251896
   2.6779336  70.4459381  44.8444796   2.1930343  71.5393877  43.9169979
  95.3863716  31.9465613  76.6966581  94.7868633  32.6871085  76.6049480
  95.0003624  31.2575150  76.1558819 104.3331337  84.9584579   3.0805132
 103.8596153  84.1647816   3.3296829 104.9690723  85.0887489   3.7839580
  10.9040952  86.4564896  91.0885143  10.9954131  86.1828136  90.1758289
  10.2462137  85.8635807  91.4516735  86.0134983  60.6319857  47.4702311
  86.7693138  61.0222435  47.9091740  85.3194141  61.2845898  47.5628567
  90.5973911  25.1326203  60.5155420  90.5803680  24.1929817  60.3338242
  90.2364922  25.5358362  59.7259808  84.4536495  23.8129997  38.8380623
  84.3472481  23.5834575  39.7612190  84.2070484  24.7366881  38.7909675
  86.9685936  26.8566227  64.9676657  86.8565464  27.1287847  64.0568399
  86.8072319  27.6510811  65.4766130  79.9699926  14.5112169  73.5258532
  79.3562937  15.1895368  73.8077879  79.5501614  14.1095674  72.7651644
 101.1103344  46.3140297  36.0678387 102.0618057  46.2354326  36.1367297
 100.7741356  45.5126143  36.4690042  98.5418701  16.3962293  45.0320435
  98.6701488  16.2269008  45.9653711  97.8761482  17.0833755  45.0025606
  86.6328238 109.7419106  32.9748964  87.1717398 109.5715418  32.2023845
  87.1843223 109.4835857  33.7133741  80.5838013  26.5034628  48.8533545
  80.3680897  27.3569560  48.4775257  81.5406895  26.4807773  48.8626242
  67.3945141  45.5022526  56.4761353  67.5139093  44.5887041  56.2165165
  67.6367712  46.0057449  55.6989336 115.0439548  44.3082762  53.8158655
 115.8357906  44.4523525  53.2977343 114.3276119  44.3895674  53.1861973
 103.9696217  18.4835112  69.0465069 103.8408566  17.9253232  69.8133707
 104.8313141  18.8784492  69.1797161 100.1763439  33.7712240  63.2736969
 100.9610367  33.6607552  62.7367687  99.7006607  32.9464531  63.1751823
  84.7732162  51.3189173  52.4043608  84.3095303  51.7222834  51.6705227
  84.8962402  52.0319748  53.0309820  71.7435026  86.9929695  40.1430321
  71.4485693  87.3528671  39.3065381  72.4292898  87.5940609  40.4339266
  80.3842640  19.3627274  48.3734703  80.7288361  18.5644901  47.9730797
  80.2627182  19.1351163  49.2952394  84.0255737  22.7975321  36.3451767
  83.9725685  23.1827068  37.2198558  84.4543076  21.9525838  36.4811301
 106.7659950  25.1990390  65.6084919 106.3248158  24.9879074  66.4313030
 107.2490597  26.0039854  65.7954264  50.1375103  12.0540750  38.3876991
  49.8018551  11.2232542  38.0510926  49.4206381  12.6740086  38.2534981
  66.7519140  13.2414317  69.7321558  67.5988913  13.6508691  69.5554447
  66.2121439  13.9496410  70.0833225 100.3460598  36.9797301  24.8386312
  99.5463943  37.4347329  24.5745420 100.1894188  36.0648465  24.6047831
  92.1846581  10.9611535  47.8548479  92.5811672  10.9158087  46.9848156
  92.3402596  10.0962806  48.2343435  66.5790176   3.7296879  30.3557372
  65.7984829   3.1811470  30.4338527  66.6440392   3.9218980  29.4202900
  62.1821785  85.4427624  81.4357853  62.1621752  86.2204552  81.9934940
  61.3825226  84.9667454  81.6598129  91.4822578  14.7293794  79.5604181
  91.6126060  14.5922208  80.4987335  90.7415867  15.3333843  79.5072699
  74.7445011  15.4477751  38.7739515  75.1905727  16.0820019  39.3352079
  75.1558876  15.5558050  37.9164433  71.1659813  19.2820907  33.2563233
  71.1542749  18.3282316  33.1772900  70.6649256  19.5911288  32.5015569
  85.3790379  15.1269674  62.9815578  84.8274326  14.3463945  62.9299593
  84.8375988  15.7733488  63.4346199  82.0416164  22.0699739  50.2563810
  82.8589249  22.2893596  50.7037163  81.6374588  21.4018154  50.8099651
 104.2727280  58.4098387  60.6864405 103.8915157  57.5566721  60.8938265
 103.6975098  58.7717199  60.0123549  94.9103165  64.3886852  16.3114119
  95.3585911  63.9677095  17.0449388  94.3301868  63.7109756  15.9644508
  29.2302012  92.1166897  53.2391739  29.6847272  91.4034557  53.6874342
  28.3680010  91.7573071  53.0301619  94.5464706  28.1493282  79.7189474
  95.2081871  27.8870368  80.3589153  94.9879265  28.7972283  79.1697931
  71.8509102  24.9981046  58.5342789  71.0656166  25.3934288  58.1557798
  71.7550564  25.1307297  59.4773865  93.4863853  19.7915661  65.8302212
  93.6004543  19.5322096  64.9159145  94.3664646  19.7455204  66.2038231
  61.1646938  28.6226273  43.8571930  61.4167118  27.8967190  44.4279623
  61.5951109  29.3877959  44.2386246  43.2900238 103.7665272  61.6480207
  42.8461885 104.5723820  61.9123030  42.9254103 103.5637474  60.7865286
  91.3488007  30.1192737  56.2700176  92.0769501  30.7144976  56.4481688
  91.3906574  29.4721699  56.9741011  92.7571869  19.9456549  69.4062948
  93.6900330  20.1373005  69.3098164  92.3750591  20.7661772  69.7176600
  67.7249241  12.7665973  28.4903836  68.4950542  13.1849849  28.8751936
  67.0908308  12.7273130  29.2063546  57.3010540   0.8251106  43.8852644
  56.7370749   0.6103954  44.6282673  56.9651890   1.6617192  43.5635328
 100.2603436  19.3080008  43.1508350  99.9968433  20.0330496  43.7174892
 101.1653996  19.5076895  42.9116106  75.0460339  70.1945734  50.9917545
  75.7838917  70.6767893  50.6185722  75.0830078  70.3875637  51.9285679
  69.7314072  52.0277548  61.5300417  69.1636419  52.5076008  62.1330500
  70.2580166  51.4626598  62.0953560  69.4282341  62.0313931  47.0847178
  69.3999529  61.8787050  46.1401987  70.3616428  62.0703650  47.2931957
  45.8083534 109.0616512  72.1456051  45.9762287 109.0582943  71.2032461
  45.1875305 108.3457470  72.2808456  98.6820889  34.4785786  59.2004347
  99.2407131  34.4787955  58.4231567  98.7246895  35.3776097  59.5262575
  69.3292332  51.7453384  58.6433792  69.3684912  51.8882465  59.5890379
  70.1115417  51.2301826  58.4463167  17.3481262  32.6362658  48.9192343
  16.4704394  32.7992630  49.2646790  17.5889313  31.7795014  49.2716503
 100.7044792  33.3379745  73.9720535 100.5219078  33.9771843  74.6607542
  99.8568630  33.1884694  73.5532236  84.1099167  27.3235178  23.3105278
  83.8682079  26.9757175  22.4521303  83.7928200  28.2266188  23.3009791
  98.5129356  53.4915066  33.1103277  99.3117714  53.4884501  32.5829935
  98.6588573  52.8135014  33.7700582  16.6546726  22.0353270  31.4315867
  16.3291383  21.7017913  30.5955172  16.8771851  22.9493165  31.2545395
  56.6108131  64.8701143  92.5859451  56.7422438  63.9608383  92.3172855
  56.0265589  64.8143816  93.3421040  95.6381607  22.4190068  41.3742542
  95.0419235  22.2453761  40.6458426  95.9735012  23.2993603  41.2046576
 104.1337967  40.6901598  10.5084193 104.2358303  41.6419029  10.5064321
 104.0438843  40.4569817   9.5844191  79.4684124  23.3440351   5.0683641
  79.3569422  22.7440214   5.8057833  80.2480793  23.0237699   4.6147355
  76.8271208  68.8342714  39.9108744  77.6180792  68.3348894  39.7078347
  76.9487381  69.1175413  40.8170748   1.2006230  32.4056745  57.4862242
   1.9119820  32.4289918  58.1262684   1.3652383  31.6140485  56.9739151
   8.6034584  29.1524434  52.4908590   8.5405940  28.8644195  53.4015322
   9.2222124  29.8824406  52.5127029 104.9879932  25.4034710  63.2814026
 104.0432930  25.3767800  63.4332561 105.3647995  24.9514508  64.0363359
  77.0499611  42.3172903  39.5927310  77.2072506  42.6402903  40.4799509
  76.8065929  41.3992214  39.7117066 114.4309902  31.5969729  63.2066917
 113.6618996  31.4480662  62.6566362 114.3897152  30.9063268  63.8681602
  95.3189754  67.7335596  62.8979683  95.0253487  68.5338783  62.4626398
  95.7802677  68.0408335  63.6783695  68.5534000  58.7555599  31.2956667
  67.8642941  58.7961292  31.9587755  69.2429495  59.3282604  31.6314745
 110.8471489  46.8955374  59.2792988 110.6559563  47.2424889  60.1506805
 111.6570759  47.3343801  59.0191746  22.5430703  47.8288794  60.2321243
  21.8744016  48.3830357  60.6346416  23.1495452  47.6290178  60.9452009
  94.9941540  40.3881407  63.3879852  94.0690994  40.6115961  63.2851791
  94.9900913  39.4703007  63.6596298 109.8533154  51.7421722  61.2546587
 110.2439880  51.4457846  62.0767021 110.2882576  51.2198019  60.5807257
  95.6743050  25.9573269  50.8262777  96.1656666  25.6369925  50.0698471
  96.1337566  25.5921650  51.5824461  99.7106838  60.3182983  41.1137438
  99.8342133  60.5992556  42.0204067  99.0908337  59.5911312  41.1706638
 114.9443245   7.5262535  61.5358639 115.0533485   6.7877531  62.1350002
 114.3141747   8.0986696  61.9734430  97.6223946 108.0034828  55.1080704
  96.9784355 107.3794270  54.7732592  97.6015091 108.7278938  54.4827509
  88.3035564  19.1310823  66.2674522  89.1507435  19.4376051  65.9440899
  87.8747177  19.9194789  66.6002560 104.6942806  10.0472343  61.2583637
 104.9254227   9.3175775  61.8331766 104.8335648   9.7087902  60.3738928
 113.1290531  60.3560495  34.5227647 112.7962017  59.4694185  34.6618223
 112.4399281  60.7951403  34.0242338  26.1875153  81.9636726  75.3348875
  25.4142666  82.4262142  75.6579638  26.8905067  82.2290707  75.9278440
 112.0662308  63.9552498  45.7134581 111.3273621  63.8488579  45.1143026
 112.3284721  64.8700237  45.6102705   2.1059404  54.4387197  23.3321214
   2.0625043  54.2543554  22.3938489   2.8616601  55.0183821  23.4275794
 109.8388863  15.8626270  35.4567003 110.3492546  15.7769084  34.6514606
 110.3505802  16.4600551  36.0021234  97.9653549  57.4200773  72.4584675
  97.9521561  58.0115557  73.2109356  98.8834286  57.1635342  72.3715448
 114.6029472  48.7396860  23.1897330 114.7934818  49.3668652  23.8872838
 114.0369987  48.0872154  23.6023021  96.1620617  36.6788173  44.0813541
  96.2801743  37.5089121  43.6195946  96.0666847  36.9276166  45.0007200
  83.3026028  21.3495922  63.3024263  83.6559677  21.2223411  64.1828680
  83.0721092  22.2780156  63.2687235 106.7837524  39.6952128  31.3307190
 106.4237499  39.2989588  32.1242023 106.9951820  38.9515662  30.7663488
 107.1278286  69.0978670  36.6898465 106.4846420  69.6095037  37.1805334
 106.8156624  69.1247702  35.7853818 116.5883446  49.2766333  37.8279638
 116.3441944  50.1611567  38.1004429 116.0405731  49.1020012  37.0626616
  84.1527557   5.2354312  69.5652246  83.6168957   5.1887012  68.7734604
  84.5772839   4.3791455  69.6180058  94.6914482  75.7433319  48.7714958
  94.4625282  76.0562277  49.6466684  95.6484604  75.7539892  48.7560463
  12.2118139  53.7375736  45.0254869  12.3288214  53.8659430  44.0841770
  12.9484105  54.2012310  45.4238319 106.9375706  77.7341413  65.3687811
 106.5436840  77.2252369  66.0773754 107.8802490  77.6122665  65.4817152
   5.9559435  35.1445699  49.0942812   5.2255517  35.3623295  49.6733665
   6.4896548  35.9388781  49.0728521   2.9725158  49.1431618  43.6652470
   3.7081024  49.0836477  43.0556536   3.2155275  49.8478127  44.2657804
  91.6607475  26.3352132  40.4049921  90.8592796  26.0246277  40.8261967
  91.3557053  26.9215608  39.7126198  91.7904377  41.3446283  47.3359251
  91.2398434  40.6378889  47.6729679  91.9145584  41.9289923  48.0838156
 100.8160019  39.0351772  68.1136322 101.4722633  38.4200191  68.4409332
 101.3244343  39.7818518  67.7970791  92.0541286  48.8430500  61.8004704
  92.7995968  48.4286022  62.2349167  92.2841167  49.7714853  61.7638302
  33.2419300  25.9640574  70.7415867  33.9937711  25.8176827  70.1675272
  32.6951003  25.1874638  70.6227922  85.0373268  20.4037213  93.7383842
  84.7080994  20.8317709  92.9480553  84.5562935  19.5772779  93.7812328
  75.0713539  43.1108427  58.0958462  74.2774010  43.4910202  58.4717894
  75.6981897  43.1015921  58.8191843  97.9441547  33.3095694  73.3005524
  97.0978451  33.5963869  73.6436701  97.7661705  32.4550462  72.9076862
  95.4491234  48.7697744  61.0571051  95.4319763  48.4345675  61.9535255
  95.1814270  49.6851635  61.1385345   4.6473786  34.0426469  44.5951223
   4.3163115  33.7506747  45.4444647   5.4907626  33.5997009  44.5016718
  71.9722891  93.5561371  62.9879904  71.7757797  94.4532871  62.7182913
  71.5186834  93.0085945  62.3471546  83.0192947  61.9461012  57.4172306
  83.0926704  61.1255407  57.9045963  83.9228725  62.2441244  57.3125362
  77.7606487  40.3692198  48.6105108  76.9491911  40.1686335  48.1441069
  78.3353662  39.6275568  48.4211206  14.1505218  57.9949570  60.9628868
  13.4735227  58.5700941  61.3194323  14.8806262  58.0752516  61.5766716
 105.1533985  60.0513554  42.0402002 104.2288208  60.2880049  41.9667816
 105.3856087  59.7206259  41.1724854  55.7340908  23.7099075  22.6791954
  55.9802055  24.6266341  22.5556159  56.1924696  23.4442282  23.4764004
 110.4853916  45.6269217  80.8809185 111.3728046  45.5080032  81.2194443
 110.2593708  46.5277338  81.1126137  50.8858824  31.6073012  51.6436529
  51.0889387  31.0414171  52.3884869  50.5093288  31.0175681  50.9904623
  96.7628670  55.9071970  54.4056273  97.0359707  56.2997246  53.5764265
  96.4890194  55.0202513  54.1720486  85.3457165  41.5087605  47.7558661
  85.8823967  40.9528017  47.1909618  84.7272682  40.9054613  48.1679058
  93.0501652  57.2431183  23.8072395  92.3336029  57.0192146  24.4010711
  93.3730984  58.0850554  24.1283059   9.4950956  59.2710733  50.6404400
   9.9410987  59.8875856  50.0597239   8.8326395  59.7986698  51.0865641
   5.2773362  59.1028023  32.8514743   4.3822753  59.3219471  32.5924897
   5.1915777  58.2845592  33.3407140  99.2377663  41.5669823  80.6060219
  99.5479488  41.9133425  81.4427185 100.0262833  41.4997053  80.0675488
  25.2707720  36.4509034  54.6093893  24.5513797  36.0669899  54.1080713
  25.9306669  36.6703844  53.9516640  28.4056664  36.5088582  54.9706030
  28.3131671  37.4343705  54.7445488  27.8272915  36.3872457  55.7235479
 104.6665955  32.8835964  48.9774036 104.2427921  32.0920348  49.3091488
 104.7097683  32.7531004  48.0301237  70.9820032 108.5555458  57.7155781
  71.0930538 108.3161259  58.6356735  70.0510550 108.7621021  57.6325178
  98.1264305  60.6186199  46.6872883  98.2820415  59.7175646  46.4042330
  98.9784336  60.9216070  47.0011473  71.9505215  60.8996725  62.2531843
  71.5172672  61.4884710  61.6352510  72.8607512  61.1954784  62.2678566
  86.2647057  47.2796869  59.7927284  86.6272449  48.0107021  60.2931404
  86.9404602  47.0728779  59.1471195 107.6008034  58.3696699  51.2562656
 107.5172615  58.8750792  50.4476833 107.8232193  57.4856472  50.9642553
  76.9378281  20.5061889  61.7794704  76.3819456  20.9665895  61.1507750
  76.3242865  20.1258039  62.4080467  79.3078899  44.7614336  48.8148975
  78.5760069  45.3562689  48.9784384  80.0403118  45.1444340  49.2977095
 102.2144508  35.9492397  66.2186146 101.4058685  36.0301757  65.7127810
 102.7235794  35.2864766  65.7519579 103.6290741  64.3053055  71.9763279
 103.5412979  64.8967505  71.2288523 103.4343147  63.4384966  71.6200399
  91.1343670  34.8110485  52.4388027  91.9718552  34.3827224  52.6159191
  91.2360573  35.6930494  52.7965260  89.5342064  44.3677187  50.7428980
  89.2653942  44.5662642  51.6398668  89.3126488  45.1555920  50.2465105
  24.3658328  45.2935553  29.0138292  23.7741208  46.0396957  28.9169788
  24.9725986  45.5572653  29.7055817  98.9995003  41.4569473  69.6926117
  98.7960720  40.6700754  69.1869640  99.4621181  42.0247412  69.0763140
  87.6283550  43.4796000  53.9282036  87.9975986  44.3303537  53.6913347
  87.4952888  43.5313988  54.8746967  91.9212246  53.7477875  67.5620604
  91.2843609  53.9342690  66.8722343  91.4100266  53.7654924  68.3711338
   5.2629137  36.8399835  60.7604837   6.1580861  36.9079924  60.4284143
   4.8442748  37.6570773  60.4896927 107.6879311  23.1531334  83.2567024
 106.9874287  22.5009274  83.2693958 107.2351074  23.9888000  83.1433678
   7.2162038  60.8597565  32.8947830   6.6665000  61.5260649  32.4823666
   6.6900420  60.0608444  32.8612471  86.4398670  71.4491558  53.0151653
  86.8978214  71.8823338  53.7354898  86.4983273  72.0682144  52.2874451
 105.8489323  83.5773468  59.1698456 105.2164555  83.1453991  59.7439671
 106.5951252  82.9784679  59.1419935   3.3266997  23.5594726  17.9363394
   2.5604388  22.9910541  18.0136418   3.2240099  24.1972899  18.6426520
  57.9283142  81.6520977  69.3256187  57.3634291  82.1199226  69.9406576
  57.4344921  81.6437244  68.5056782  84.1793633  37.6399708  53.8460398
  85.0833702  37.6556158  53.5317850  84.2203522  38.0424309  54.7135496
  20.3101778  49.8509026  54.8967171  20.4215050  50.3599977  55.6996250
  20.5158782  50.4659367  54.1926861  15.9317183  28.6707711  20.6738877
  15.0348270  28.9192200  20.4500794  16.4298260  28.8226581  19.8707378
  80.4727745  66.1393785  51.5446663  80.1788807  65.5673552  52.2536421
  79.9619484  66.9411230  51.6564226  78.0954647  15.6936491   7.3742563
  77.8276730  14.9971974   7.9738176  78.1749296  16.4697385   7.9288757
 115.6223202  52.4146605  21.9574475 115.6978226  52.1131039  22.8627610
 115.1263714  53.2311487  22.0175433 108.5013103  44.3090010  55.7812643
 108.8811207  44.5867968  56.6148138 108.2060814  43.4123373  55.9395647
  80.2540970  63.2721281  22.5336647  79.8606873  64.0586615  22.1557450
  80.7644367  63.5931349  23.2771349 116.5172681  84.0078640  50.6852007
 116.3587412  84.3950081  49.8242569 115.6626700  84.0238857  51.1160564
  96.6417789  31.0163832  51.3227558  97.3590851  30.5413342  51.7423201
  97.0129776  31.8730497  51.1116552  57.7997828  28.6147285  19.7393417
  57.6655626  29.3121338  20.3810906  58.3163548  27.9569864  20.2049232
 100.5391884  38.2093740  79.9611759 100.8928871  38.6093235  80.7556343
 101.2384987  38.3027124  79.3142748  80.9687710  37.0742893  35.1664662
  80.9352303  37.4330091  36.0532737  80.1699543  36.5526748  35.0887203
  79.7596931  44.0623808  55.8118010  80.2256203  43.2428265  55.9775591
  79.4473267  44.3387842  56.6733456  96.0443878  31.6059542  33.3929515
  95.8543587  31.6790223  32.4576545  96.4702320  32.4336267  33.6162138
 106.4096928  43.8154459  64.4069147 105.9762573  42.9921532  64.1820669
 106.9415474  43.6043453  65.1742411 102.3489380  58.8598394  82.6548481
 101.7220688  59.2417669  82.0405293 102.9134750  59.5907688  82.9063988
  76.8961954  14.2243862  57.4198008  76.1030149  13.9576042  56.9551182
  77.3609686  13.4051275  57.5901890  96.2496471  36.6070437  46.9367743
  96.0434055  37.3202252  47.5409842  97.2012615  36.5173769  46.9879913
  14.7627068  59.3481350  77.4555826  14.6389937  58.8067007  76.6759777
  15.6300879  59.1061163  77.7800941  99.6962833  68.4696531  16.6854322
  99.9862671  68.2085228  15.8113909  99.2175102  67.7095604  17.0159745
  78.0296707  72.1625376  10.8343244  78.7628174  71.9538021  10.2553976
  78.4419394  72.4385071  11.6529250  23.9683294  38.8836122  80.3621674
  23.2727790  38.2717299  80.1212502  24.4128585  39.0778756  79.5370102
 114.6769142  59.3167591  45.5889845 115.2773476  60.0351524  45.3899384
 113.9659214  59.7280550  46.0804701  99.1060066  55.0199366  59.4886065
  99.3875980  55.9227848  59.6362448  98.1514549  55.0534582  59.5513964
  60.4367542  25.0435352  41.5270519  59.9582815  24.3311286  41.9510460
  61.3456821  24.7439718  41.5087128  88.6734581  17.8419852  20.4029894
  89.0219688  18.3427560  21.1405563  87.7253342  17.9606390  20.4595923
 103.5281754  49.7037697  42.9818106 103.1263638  49.5801163  43.8417482
 104.0510368  48.9135933  42.8459024  72.5384998  85.1808071  61.1045456
  71.7680025  84.6229362  61.2110806  73.0403185  84.7648239  60.4035759
  77.9958010  27.6960421  35.4351306  78.6433601  27.6711106  34.7306609
  78.5153866  27.7711463  36.2355208  86.5385246  34.0809202  65.1310778
  87.3739529  33.7186074  65.4260492  86.6060448  34.0920949  64.1763306
  25.8006787  82.9472542  16.5934169  25.9740043  83.4624100  17.3813307
  24.8507619  82.8295231  16.5883851 109.4098663  85.4906178  56.9942284
 109.4528675  86.2378788  56.3975763 110.2182961  85.5442715  57.5039291
  95.2759361  29.0171456  30.3853583  95.3692627  28.0763960  30.5353999
  95.2575111  29.1070557  29.4325686  39.4353557  90.9487915   4.0228269
  38.5514975  90.9101105   3.6574048  39.4103575  90.3553867   4.7734791
  86.2654400  18.1536388  58.6385059  85.7710361  17.7746201  59.3652344
  85.5964947  18.5085666  58.0530453 100.7692051  76.5246058  69.9830818
 100.9973049  76.9366026  70.8164263  99.9503326  76.9467831  69.7233915
 105.2795601  88.3675671  58.7135696 105.4313755  88.3536911  59.6585512
 104.9567509  87.4897575  58.5099268 100.6525898  37.1055722  49.6962881
 100.3693390  37.2572470  50.5979490 101.5290546  36.7301273  49.7805166
  94.9208355  43.6434412  25.7575607  95.0240326  42.9315090  26.3890171
  94.3204594  43.2942295  25.0988984  81.9054127  29.2040157  37.1185088
  82.7948952  29.2129040  37.4720430  81.9735718  29.6728206  36.2867570
  90.5720234  34.3022466  38.2930398  90.3073215  34.7328472  37.4801731
  91.5131855  34.4653368  38.3550000  70.2432728  60.3021383  50.6154346
  71.1159182  59.9133205  50.5558872  69.7147608  59.8006916  49.9945831
  66.9541502  38.5325170  36.1557055  66.3993502  37.7856946  35.9305668
  67.8084040  38.1465220  36.3493180  79.0882015  65.9634447  65.2425671
  79.7482157  66.0247898  65.9331083  78.4252548  66.6092491  65.4868412
 110.2733231  44.2477083  71.3255072 110.8222103  43.6036301  70.8781576
 109.6219158  44.5024014  70.6720352  60.7971191  24.2578745   6.6284579
  61.0166407  24.9772882   6.0364395  60.9818888  24.6019626   7.5023550
 112.5482655  52.4790955  47.2726488 111.8611336  51.9316530  46.8926620
 112.5336552  52.2682190  48.2062149 109.8184299  69.9695730  49.3653965
 110.1575375  69.3224144  49.9838018 108.8868237  69.7631836  49.2895317
  94.3153667  46.0547638  41.1171722  94.9655437  45.7772493  41.7625332
  93.4734440  45.8317661  41.5142488 114.5108986  41.2498093  48.5409975
 115.1554680  40.6933069  48.1038761 114.9976254  41.6673422  49.2516279
  95.3757381  76.8662500  45.7541895  95.0196552  76.4120245  46.5178108
  94.6055889  77.1941662  45.2898884 104.5134163  52.4196339  81.6558266
 104.4491577  51.5091515  81.3675117 103.7219048  52.5630045  82.1746635
  98.6224651  79.9546194  38.2739878  97.8289700  79.7942448  37.7632260
  98.3895588  79.6963549  39.1657758  69.6797371  41.6896439  49.9919653
  70.4092598  41.1212254  49.7451162  69.0347004  41.0973072  50.3783560
 113.2505322  58.4670305  30.5195618 113.5381603  59.3795156  30.5490518
 113.3781338  58.2050276  29.6078038 105.8301353  56.9169331  68.9072561
 105.2549744  57.5261736  68.4443808 105.9845066  56.2101555  68.2804680
  90.2504826  59.3854952  59.6140575  90.8621502  60.1215839  59.5975876
  90.3451538  59.0149975  60.4915571  96.1228848  50.5376291  87.1957493
  95.5725384  50.0291967  87.7914429  96.2090683  49.9850750  86.4188957
 100.7005024  45.0553226  19.0298522 100.0609303  44.6109104  18.4733653
 101.4169884  44.4270420  19.1201174  86.2433815  64.7612143  49.6937132
  86.6974449  64.5642662  50.5130291  86.9442272  64.8605108  49.0493631
  16.2690508  50.1704979  48.3535767  16.9026911  49.5291281  48.6750937
  16.5203083  50.9898758  48.7798595  91.4527416  62.9754877  39.9110007
  91.8547726  63.8441658  39.9104810  91.1128235  62.8694153  40.7995033
   8.2191902  58.4740782  63.9364147   7.5227606  58.4952736  64.5927477
   8.8867259  59.0700579  64.2761803  72.8902435  62.7416468  20.6094217
  72.1309090  62.3144865  21.0058832  72.7395821  62.6712704  19.6667755
  97.3874760  48.1841373  35.4104900  97.7061081  48.9834213  35.8298397
  97.7167034  48.2368088  34.5132351  92.9714489  58.6374807  60.3468180
  92.3952866  58.1950521  59.7234964  93.7733936  58.1148911  60.3442717
  21.0809088  84.8522282  60.7788277  21.2444925  85.6229496  61.3223982
  21.1976814  85.1631355  59.8810911  78.5652256  33.3566809  33.2649112
  78.7806606  33.9993334  33.9407921  78.3764744  33.8814187  32.4869299
  88.8124084  86.6396999   6.3656706  88.9287758  86.0982132   7.1463645
  88.2775116  86.1038208   5.7800514   4.9330246  49.3133163  70.8103704
   5.0850242  48.6524105  70.1348448   5.7264721  49.2957211  71.3455009
  79.6983242  91.6667080  65.1949549  79.0593481  91.9280243  64.5318890
  80.5150986  92.0812321  64.9169827 106.0483074  14.2524874  60.1946783
 106.8400288  14.7877860  60.1412010 106.3708687  13.3585155  60.3086996
 112.1557808  61.9058657  75.8741808 111.2579060  62.0018005  76.1917448
 112.0859814  62.0055962  74.9247551  90.4056358  63.9293146  56.9704676
  90.4266930  63.5759687  56.0811186  89.6106911  64.4618034  56.9978619
 101.3218689  23.5782051  65.9772253 100.9850597  23.7629032  66.8539667
 100.6495285  23.9169550  65.3860855  64.9853563  22.8603125   3.7639928
  64.6295643  21.9717550   3.7744853  65.6264544  22.8532290   3.0532339
  93.5360622  44.5762920  16.0556519  93.7786674  45.0480270  15.2588809
  93.7472248  45.1818752  16.7662239   3.5181537  42.7454567  38.1733036
   4.4659343  42.7854443  38.0454564   3.1641477  43.3660078  37.5362587
 106.5326691  75.7309103  67.3484707 107.2783184  75.7862616  67.9461193
 105.8734894  75.2342653  67.8332901 111.2145519  84.1641331  24.5243669
 111.8816090  84.1144180  23.8396788 110.4516029  83.7256241  24.1477442
 114.0253830  54.1421747  76.9988489 114.2219448  54.8054171  77.6604414
 114.8399830  53.6482859  76.9054222  69.9580336  83.3246422  48.4503126
  70.2978516  84.1095924  48.0206442  70.6483173  82.6713753  48.3363867
   9.4153422  60.5021143  73.8992596   9.9453795  59.8331547  73.4659100
   9.0746135  61.0385513  73.1834602  92.7208233  65.3211880  27.8282356
  93.3237743  64.5800972  27.7694297  92.3572063  65.2645922  28.7118721
  79.2443705  55.4904175  48.3659935  78.6891699  54.8144817  47.9772854
  79.9773550  55.5779505  47.7566481   2.3159721  40.4198694  30.3780699
   1.4217971  40.5460024  30.6955194   2.4478938  39.4721603  30.4040146
 103.0714893  96.1663532  75.7170773 102.2284126  95.7606888  75.9192896
 103.7204361  95.5646610  76.0818529   8.5073304  81.6656876  55.7651043
   8.8579822  82.4881077  55.4231977   7.7867436  81.9316196  56.3363028
  83.0117989  83.1968021  80.6272888  82.7226925  82.5932789  79.9428797
  83.9671135  83.1861019  80.5681515  98.6394119  87.1476841  48.7957096
  98.5217381  86.4797878  49.4712162  97.7495003  87.3763847  48.5274124
  17.0197809  46.8402195  70.2066374  16.4798355  47.1875191  69.4966555
  17.8790259  46.7015600  69.8082590  86.7519283  86.3817978  57.0815659
  86.6115856  87.2754765  56.7687130  87.6596642  86.1864185  56.8490601
  96.4436626  65.1047945  64.3904114  97.3810482  65.2887535  64.4512939
  96.1343098  65.6693459  63.6820221 105.2802658  80.2482605  50.9318638
 105.5743217  79.6269512  51.5979958 104.7719669  79.7183418  50.3178167
   7.6869863  79.9794388  64.7984838   7.3139441  80.4081821  64.0282488
   7.0139122  79.3581247  65.0762749 103.1665039  43.2195282  78.6631680
 103.5758972  42.9872799  77.8296900 103.8975239  43.4733295  79.2265797
 107.3499298  37.3619485  35.9056282 107.5014877  36.4253807  35.7787418
 108.2022858  37.7090144  36.1688113  85.0597668  93.8831329  67.2056055
  85.4069424  93.6023617  66.3589191  85.8361530  94.0857220  67.7275467
  13.5344338  60.4771900  79.7010565  13.2842875  59.7518110  80.2733231
  13.9498842  60.0562286  78.9484453  96.3226509  57.0071173  67.3540020
  96.6880417  57.2433233  68.2066011  95.4507065  56.6661549  67.5532436
 103.7494278  52.3856831  78.2180071 104.5070839  52.9102135  78.4769583
 103.9923000  52.0170927  77.3686647  85.7186222   5.1775914  77.4888659
  85.8328819   4.8535162  78.3822632  85.7841301   6.1291748  77.5690556
 102.9008675  42.0428467  40.2051544 103.8253880  42.2612095  40.0876331
 102.5476360  42.7667761  40.7222509  85.6762600  48.5400867  44.5792961
  86.5102482  48.1370115  44.3379974  85.3163719  48.8595724  43.7518692
 106.3680363  76.0400629  58.5697603 106.3090038  75.3485155  59.2289352
 105.5597496  76.5417147  58.6758709  89.4846630  74.9548054  79.6221590
  88.9952850  74.1322756  79.6084309  90.3513908  74.7234249  79.2882919
  77.9618311  48.4941578  44.5676613  78.1805515  48.2343531  45.4625893
  77.2483921  47.9078770  44.3156481   1.4602050  30.0406289  76.3502216
   1.3882734  30.0499272  77.3046732   2.4011296  30.0862694  76.1804867
 111.1961555  57.0864153  67.3458290 111.1961174  57.9819441  67.6838541
 112.0202923  56.7126703  67.6578474  11.7484486  44.9091959  74.7237682
  12.4711096  44.4596291  74.2857265  11.0313177  44.2752600  74.7146749
 100.5552769  65.2855873  56.3260269 101.3436890  65.0918722  56.8330956
  99.8358154  65.1610613  56.9449759  12.3995972  86.3075066  26.2352204
  13.2664752  86.5325356  25.8974099  11.8298864  86.3291454  25.4663277
  11.4554858  62.0569229  55.4329681  11.9182718  62.5358868  56.1204624
  11.9023693  62.3071814  54.6243286  12.2722518  37.0772886  54.3318892
  11.3205540  37.1558547  54.3976927  12.4631941  37.2450614  53.4090567
 111.5416813  42.7126026  67.1497202 111.7077637  41.9835901  66.5520668
 112.4053478  42.9433489  67.4918699  99.7566986  76.3957739  33.8236070
  99.6358681  77.3128176  34.0699148  99.5369053  75.9042501  34.6150112
 101.5713120  10.9711504  49.1942072 101.1216354  11.8075800  49.0741682
 102.4602127  11.2123382  49.4548035   6.9015497  73.7193537  34.1559386
   6.6403806  73.9912891  33.2761240   6.7171741  74.4803762  34.7064686
  96.8986988  48.4435177  56.8792772  97.3217106  49.1728830  57.3324013
  96.6308975  48.8084745  56.0358763  77.6511192  53.4681416  43.8182497
  77.4946547  52.5863791  43.4802437  78.3424616  53.8203478  43.2576895
 113.8223267  45.3190088  45.0634527 113.4131241  45.2570391  45.9265614
 114.4264317  46.0578156  45.1372766  -0.0867820  43.2251692  71.4762926
   0.1046423  42.5865507  72.1631336   0.5660760  43.9139795  71.6009951
  25.6560063   8.7399364  62.7315092  25.0527000   8.4061378  63.3954573
  26.4424205   8.2033974  62.8310490  98.9238930  79.1907549  82.6777363
  98.9945984  78.2364035  82.6987648  99.7372150  79.5000362  83.0765915
  98.4173203  43.3170795  48.5140276  98.3045483  44.2655945  48.4520960
  98.4495354  43.0198336  47.6047230  47.6473427  94.4718266   8.1241614
  48.3262300  94.0017986   8.6083204  47.4835348  93.9287853   7.3531240
 108.1674862  52.2550583  74.2546892 108.6950016  52.3934841  73.4680510
 108.4022331  51.3748932  74.5486736   6.2170804  54.3480825  57.9903650
   6.0736114  54.3761158  57.0443964   6.2794113  53.4152317  58.1956244
  10.4776859 105.6131458  17.2484624  10.4636919 105.1233768  16.4261723
   9.5554841 105.7786274  17.4444032  28.1651378  37.6260781  35.8179474
  28.1303668  37.1872687  36.6679287  29.0201163  38.0562925  35.8052969
   0.7616387  70.2624512  79.1494083  -0.0403156  70.4145241  78.6494207
   1.4165555  70.0367069  78.4888363  82.3873615  55.0316620  21.5773439
  82.6095486  55.9052324  21.8994284  82.9398346  54.9136019  20.8046412
  23.5175228  99.0029621   3.1534287  24.3449140  99.3287182   2.7991149
  23.7623978  98.2291698   3.6608881   1.2264453  60.4230309  49.0003347
   2.0445697  60.6825066  48.5765696   0.5451565  60.8758402  48.5033035
 103.7581825  44.5723820  65.0448465 103.2874775  45.3758621  65.2664232
 104.6798897  44.8303318  65.0327873 106.2955093  49.6008587  63.6774397
 105.8600426  49.2070055  64.4333982 106.4035416  48.8777447  63.0596542
 105.8814144  29.5371246  75.1532173 106.4525509  29.4982576  75.9203720
 106.4736271  29.4343662  74.4082689  94.4851208  50.4947615  36.4230537
  95.3491974  50.7992554  36.1457896  94.2824268  51.0211849  37.1963763
   7.6091468  51.3323689  10.1487982   6.8610620  51.8639326  10.4209006
   7.6848626  50.6606960  10.8265555 103.0521488  56.4708948  55.7418299
 102.4980640  56.4623260  56.5223074 103.5087490  55.6298780  55.7630062
 100.5716228 100.3374386  56.2514782 101.4109421 100.5033493  56.6807318
 100.4357338  99.3948078  56.3474178   0.5614394  89.9603558  64.3187761
   0.0845901  90.6821346  64.7285223   1.4836402  90.1620579  64.4771957
 102.4242306  69.7491264  54.4427967 103.3393002  69.8431158  54.1781569
 102.1624470  68.8944626  54.1003799  89.7247887  10.1751316   4.7466686
  89.6612453  10.2384317   3.7936804  90.5673122   9.7484666   4.9027187
 100.7715511  67.6662159  79.1984272 101.0780621  66.9649410  79.7733164
 101.3016796  68.4249210  79.4424915  78.7402248  68.6941433  55.2783871
  78.7020063  67.9078484  55.8229160  79.0288591  69.3848181  55.8749485
 100.0431538  40.4352617  35.0133872  99.7155380  39.6625042  35.4735422
  99.4702435  40.5210876  34.2513943  13.8075531  47.2934818  63.1954765
  13.2378674  46.5307283  63.0959940  13.2060027  48.0258083  63.3298922
  86.9056034  90.7663631  70.3953791  86.4401722  91.3122082  71.0291433
  86.3580227  89.9867153  70.3029919 105.7961655  35.9176373  59.6723938
 105.4980278  35.4476428  60.4511452 106.7046452  35.6388760  59.5575571
 104.3915462  67.1474075  63.2057953 105.1822186  67.4925518  62.7911425
 104.5364380  67.2771978  64.1430187 114.1147232  59.9536800  91.3465023
 114.5509815  59.1129494  91.4846516 114.1162300  60.0710583  90.3965282
   2.1094105  51.1045408  85.8468056   2.4023613  50.2290249  85.5940628
   2.0891488  51.0834169  86.8035603 105.8942032  27.4051666  93.3043671
 105.4984379  26.5759110  93.0361557 106.3276005  27.2063518  94.1343498
  26.8504500  90.2984619  58.5679483  26.7301345  90.6363010  57.6804686
  25.9712195  90.0451374  58.8490391 110.9230614  57.5195265  48.0502033
 111.6425705  57.9446602  48.5168982 111.0666275  57.7459908  47.1313238
 112.9497337  42.6629114  73.5630369 113.6324883  43.2621241  73.8647461
 112.8559780  42.0290709  74.2741537   6.3526219  69.0188026  24.5365429
   6.0373396  68.6723900  23.7017822   5.9278798  68.4728432  25.1981735
  76.7341423  66.3750124  62.3143530  76.0644484  66.3572216  62.9980373
  77.0497799  67.2786713  62.3117208  13.4899187  41.0157681  44.2064285
  13.1077647  40.1723480  44.4489813  13.4286284  41.5442038  45.0021887
  12.8371334  43.7414026  62.0696640  12.8748572  44.4820690  61.4645052
  12.0951092  43.2197762  61.7638206 101.6932297  41.4379740  58.5035038
 100.9863758  41.0290623  59.0028906 102.1893883  40.7023859  58.1443834
 106.2256145  53.0965614  78.4855270 106.2062931  53.9826632  78.1240273
 107.0882893  52.7585697  78.2451439 114.0887928  28.4661055  21.0419083
 113.4581947  28.9543986  21.5711975 113.5538197  27.8557682  20.5344462
  85.5969334  45.5202866  52.1220732  85.4928780  46.4711857  52.1566439
  86.3323784  45.3383923  52.7071047 100.0639629  59.1005754  57.3473692
 100.7051754  58.4698677  57.6749372 100.4531479  59.9554491  57.5316668
  84.3111038  32.7259445  41.3872623  85.0934505  33.1457543  41.0295820
  83.5977459  33.0321002  40.8272505  98.5737896  59.7089481  69.2509747
  98.0736160  58.8962793  69.3260145  97.9561424  60.3946543  69.5050573
 107.0041275  74.4289684  84.7346020 107.6612949  73.7361050  84.6689892
 106.1956692  74.0226316  84.4223118 108.5737038  56.2085915  71.2807989
 108.9752960  55.7844639  72.0391321 108.2365608  55.4851532  70.7524061
 109.8406219  40.3044653  85.9596252 109.4265556  39.7861576  86.6496563
 110.7797718  40.1908636  86.1056042   8.6561143  46.9572926  79.6612835
   9.1461414  47.7373505  79.9213266   8.1328291  46.7353725  80.4314518
 109.1470814  89.5816135  57.0000982 108.2581711  89.3288803  56.7507219
 109.7128201  89.0665436  56.4248800  11.8665028  96.1531544  54.2855072
  12.8120041  96.1480713  54.1363955  11.5103948  96.6487503  53.5480785
  61.0368872  98.5685253  56.9514227  61.3981819  98.8493061  57.7921724
  60.4242945  97.8681183  57.1758986  65.3894854  79.3576002  59.2258787
  65.7011747  79.7885132  60.0217390  64.5471239  79.7735691  59.0424919
 109.0514946  56.3062429  49.9358177 109.6288872  56.6388464  49.2486286
 109.5961571  55.6943083  50.4308987  97.8673172  61.4681530  39.2120147
  98.4508514  61.5083265  39.9697137  97.1281624  62.0282698  39.4489884
  24.5550990  88.8787365  59.0649319  23.7801909  89.4119167  58.8875580
  24.6579075  88.3377171  58.2820129  95.6327248  93.8558197  43.6716366
  95.2693367  93.1956482  43.0814219  95.5902004  93.4516811  44.5382977
   3.9262694  35.6215334  51.2068939   3.1836256  36.1947083  51.0166740
   4.3785605  36.0489392  51.9342089  94.1716480  41.0253143  52.3648787
  94.1234493  40.2921915  52.9784250  93.3400726  41.4860392  52.4763918
 103.7158298  44.1772127  60.6864977 103.4396458  43.3105946  60.9847069
 102.9012489  44.6731377  60.6044626 101.9918346  61.4074659  14.5846808
 102.8942966  61.4768314  14.8960936 101.5687466  60.8153486  15.2064729
  80.4992104  70.4668474  61.6931915  80.6613255  70.7206297  60.7845926
  80.6829262  69.5277166  61.7159796  87.9848671  29.8298502  91.9373989
  88.0112934  30.6296134  91.4121342  88.4292507  30.0637150  92.7522945
  74.9786758  44.2746162  34.3665075  75.1495409  44.5735931  33.4733963
  75.8469963  44.1108036  34.7344899 104.6259403  36.9340801  79.1591358
 105.5228806  36.6523194  78.9792776 104.5493031  36.8952298  80.1124763
  92.8958035  53.9910889  54.0087748  92.7202797  53.7663269  53.0950451
  93.8390636  53.8635206  54.1098595 112.8799725  40.9093094  51.5562344
 112.1380043  40.3725719  51.8348598 113.2989788  40.3979015  50.8640480
  89.0113640  27.8265858  68.8451719  89.9360085  27.6288581  68.9940500
  88.5781765  26.9731903  68.8622713  72.9816914  82.7446461  28.5248065
  73.0772066  83.6956215  28.4723544  72.4575424  82.5139046  27.7578259
 111.4839745  62.0168018  64.4079590 112.3131275  62.4065590  64.6851397
 110.8395290  62.7143478  64.5277596  84.4687653  44.9342060  55.4495859
  84.9336529  45.7581663  55.3039742  85.1444530  44.3286085  55.7544231
 115.8159468  47.4368668  56.8381548 115.7534503  46.4852285  56.7562294
 116.2701100  47.5764132  57.6691151 102.5527668  49.0679502  91.5571308
 102.9075146  49.2911911  92.4176788 103.1687164  48.4263945  91.2032318
  30.8772635  34.7157598  75.8990240  31.4462423  34.5163870  76.6424942
  31.4324045  34.5839691  75.1304674  11.3332903  58.2738018   0.9514581
  11.1109495  59.1161919   0.5550040  10.8420527  57.6311398   0.4396948
  20.1804137  59.5803213  68.6213779  20.4850245  60.1228809  67.8940058
  19.3869698  60.0175476  68.9304256  69.9490356  69.5433426  50.0395632
  69.3146372  69.7257566  50.7327414  70.1165962  70.3958511  49.6378326
 107.0086670  47.9592705  59.1905022 106.9120789  48.9043188  59.0730858
 107.4712372  47.6664019  58.4053326   0.3667204  65.7501698  58.7336636
  -0.2216792  65.8615065  57.9869270   1.2441380  65.7636118  58.3513165
 112.0563221  42.4203777  28.1681323 111.2085915  42.8045750  27.9446077
 112.1003151  42.4760771  29.1226983  24.7325516  55.4300642  63.0195951
  24.4558334  56.2508774  63.4269333  23.9376402  54.8976707  62.9895782
  98.3148098  27.3609185  42.4072313  98.3585453  28.3170557  42.3961210
  97.8166389  27.1348047  41.6217756  15.7613885 103.2279778  55.8564377
  15.7811189 104.1818523  55.9337568  16.6347289 102.9951096  55.5413532
  86.6578674  66.5738201  62.7702284  85.8930492  66.8607616  63.2691669
  87.3682404  66.5532970  63.4114599 114.7267151  21.2144828  76.1713123
 115.4536533  21.8231130  76.0395861 114.3654156  21.0797119  75.2952242
 104.3192005  59.1270924  63.3876085 103.4989166  58.8741684  63.8111496
 104.1980457  58.8877678  62.4687624  96.6170788  60.8940601  65.6516314
  96.8358803  61.3759995  64.8540783  97.4085331  60.9458208  66.1874914
 111.5588951  71.6668558  57.8443003 111.3202095  71.0107899  57.1894455
 110.8546925  72.3138618  57.8028631  95.4083920  66.3593483  67.2987032
  95.6777573  65.7662296  66.5973616  95.9751892  67.1239138  67.1967030
  87.7549553  61.7983723  49.1151094  87.5352192  61.7263794  50.0439644
  88.4320259  61.1359739  48.9771271 115.6505810  44.6548080  56.5321493
 115.6107801  43.7200356  56.7342567 115.3447350  44.7174501  55.6272936
  98.0713367  39.4878387  54.2360735  98.1123447  40.2170992  53.6174202
  97.4181557  39.7578168  54.8816013   2.0863262  62.3722696  57.6151514
   1.8115714  61.4601040  57.5219059   3.0369338  62.3484755  57.5055599
   9.1169077  65.7916689  18.2492530   8.2633340  65.6183577  18.6462498
   9.7490859  65.4524994  18.8829303   4.8973146  74.8491096  58.8506508
   5.2191758  75.3165531  58.0798531   4.9625239  73.9238644  58.6142111
  91.2603760  75.1008272  44.2241430  91.8823719  75.1218700  44.9514055
  90.4041386  75.2092457  44.6380711  92.6643562  53.1608152  63.8340569
  92.1341515  53.7467003  64.3742895  92.0301914  52.7087831  63.2775211
  92.5470638  66.4078140  64.8637390  92.7227497  66.9049120  65.6626511
  91.9517326  66.9642019  64.3614960  93.3792686  66.4564037  58.3708858
  93.4723568  65.6434727  57.8741884  94.2768669  66.7092991  58.5867596
  82.6153183  45.3130341  35.1121020  82.7471638  45.8665371  35.8818316
  83.3714867  44.7261763  35.1067305  97.4807072  74.4344187  78.5289145
  96.6558361  73.9642382  78.6503696  97.9126740  73.9777279  77.8070593
  89.8340988  59.2244530  67.4473047  89.7465229  58.9025736  68.3444977
  89.9964333  60.1627922  67.5442553  82.3001575  43.9718151  57.2756481
  82.5922203  44.4271278  56.4859486  81.6586971  43.3346462  56.9613600
   2.8534541  35.3241992  61.0261869   2.7281585  34.6177316  60.3925943
   3.7995452  35.4689980  61.0394812 102.7989292  69.8318672  80.4956245
 102.8695202  70.0511122  81.4246941 103.6357975  70.1061106  80.1205540
   1.6324291  46.4566708  54.9112558   1.9678265  47.1950769  54.4028330
   1.5335248  46.8020153  55.7984924  84.6118069  84.4029808  41.5358067
  84.7515774  83.4765148  41.3399315  83.7525845  84.5997143  41.1626291
 101.0979271  65.9766912  37.1862078 101.1591148  66.5420532  36.4162374
 100.5907154  65.2212906  36.8889880 108.8914490  62.5060940  75.7605934
 108.5412693  61.6230440  75.6430149 108.8424587  62.9010582  74.8900557
 104.4723511  84.7578812  45.7217503 105.0060749  84.4317436  46.4463234
 103.6899090  84.2066193  45.7335663  98.0384636  52.7106619  63.2394123
  98.2707691  53.1000710  62.3964214  97.2838402  53.2182789  63.5379076
  88.5862064  80.0902557  67.8031921  88.1497192  79.9107504  68.6359549
  89.4626522  80.3848362  68.0507708  65.3456402   7.3214567  12.5981283
  66.1838865   7.5320035  12.1867287  64.9067688   6.7494971  11.9684577
  86.9603252  26.7895937  22.7449846  86.2991810  27.3147321  22.2940421
  87.1480465  27.2777629  23.5466599 114.6735668  11.1631131  44.3108940
 114.6963310  10.2108157  44.2168617 114.0132904  11.4503539  43.6802149
  99.7814274  19.1567194  34.4887352  98.8880348  18.8273752  34.5867777
 100.0503922  19.3879092  35.3778028  87.3595238  39.7904277  54.6231842
  87.7048969  38.9809132  54.9995327  87.7289963  40.4848480  55.1686239
  93.1659794  70.2322960  83.0682278  92.3050404  69.9639368  83.3891582
  93.7518120  69.5228148  83.3321762  96.2656307  41.6734123  61.1647987
  96.2360191  42.6222467  61.2875271  96.0303402  41.3138103  62.0201063
 110.3500080  35.2057624  29.7717094 110.1955509  35.8025670  29.0394568
 109.7772884  35.5275631  30.4678869  65.8153486  91.0320759  31.5722299
  65.6500769  90.5656242  32.3915839  64.9462509  91.2858772  31.2616086
 109.5222473  42.3585796  64.1287661 109.3541050  43.1119823  63.5627747
 108.7825203  42.3454571  64.7361088   0.5892060 101.8246460  44.0163660
   0.6810874 101.9427109  44.9618006   1.4691368 101.5959930  43.7169075
 104.9730968  66.8647766  83.2277107 104.8874950  66.3475752  84.0285873
 105.1199722  66.2167788  82.5386810  10.8616388  58.7899637  72.7347040
  10.2661777  58.1291008  72.3812675  11.7360497  58.4569073  72.5329399
 111.9023991  41.9755220  36.0351300 112.3622131  41.3422871  36.5863228
 111.4244270  42.5284815  36.6531968  75.9459352  77.7700090  64.2484045
  75.5274057  77.0835352  63.7289619  75.7622576  77.5289345  65.1563549
  12.3281693  28.6381459  26.0157537  11.9233298  29.3935299  26.4420533
  13.2556820  28.8665152  25.9541202 100.7187843  55.0163221  36.3582301
 100.5042934  55.2031565  37.2721887  99.8761559  55.0402164  35.9047532
   7.3790503  31.2171936  58.3916998   7.1922612  30.5981946  57.6858807
   7.9779798  30.7461977  58.9710760  90.8280087  79.4318056  74.3202162
  90.1933861  78.9221478  74.8239279  91.3811111  79.8469734  74.9819946
 111.6387939 101.0645771  84.5924377 112.0397663 100.9915638  85.4585361
 112.1849346 100.5167103  84.0287018  64.0182686  68.9167023  28.2405710
  63.5527849  68.4138012  27.5722504  64.0243053  68.3458948  29.0089297
  97.5952530  22.3184562  61.7884254  97.7413273  21.5606523  61.2221861
  97.8288651  22.0114541  62.6644421   2.1638086  68.2809210  27.3758841
   2.0714046  68.5024405  26.4492655   1.4879610  67.6215601  27.5330687
   8.8152140  52.5119591  49.5234537   8.5668451  52.5100088  50.4478693
   9.4662398  53.2100058  49.4518375  90.2836227  72.8228998  39.2943859
  89.4704342  73.0325937  39.7537017  90.8349323  73.5954666  39.4186091
  94.1369438  81.1833000  21.1953497  94.1920376  82.1387959  21.1806226
  94.6801758  80.9235096  21.9394231  23.2844830   2.8496537  59.9828291
  22.5332570   3.0000815  60.5566454  23.6175513   1.9912291  60.2443743
 108.1858063  83.1118965  56.9014263 108.8074875  83.7979984  57.1443558
 107.3256493  83.5026836  57.0552397   8.8237816  62.0936537  71.6758347
   7.8904212  62.2906780  71.7548990   9.1954881  62.8636312  71.2454796
  82.5763893  90.0565529  29.1794133  82.7947044  89.2027473  29.5530295
  83.4220695  90.4385567  28.9446259 111.4990807  66.0770082  91.6576290
 112.1956825  66.0187292  92.3115253 111.1917877  65.1764059  91.5541172
  62.9998016  39.7040296  50.2008295  63.8790274  39.9993086  49.9641705
  63.1438255  39.0357399  50.8708143   0.9190341  59.5663118  57.8176785
   0.9364133  59.0550184  58.6266947   1.1805224  58.9463520  57.1368694
   1.5681456  58.2368517  70.5893183   2.4403256  58.5936832  70.4213810
   1.2396553  57.9903507  69.7246981  95.6280708  99.2963505  45.4938698
  96.4648438  98.8438511  45.3875971  94.9691677  98.6316776  45.2931595
 101.1516571  56.7718363  14.2884588 101.4779472  57.6512480  14.0976822
 100.3013611  56.7316628  13.8507187   2.4928531  98.6344814  61.6964865
   2.3708627  98.2350826  60.8351946   1.6114098  98.6785126  62.0670986
  13.1213415  50.9142303  63.5223913  13.2813394  50.2443790  64.1871691
  12.2070920  51.1665058  63.6517620  75.3063011  69.2886639  60.5373764
  76.2456083  69.1920614  60.6942129  75.1030016  68.6212349  59.8820591
 101.7586994  67.3123121  39.7184825 101.6372299  66.5712166  40.3119946
 101.4145851  67.0060873  38.8794088 110.5314350  60.2458525  62.6321030
 111.0047245  60.9379053  63.0939388 110.2478123  59.6473598  63.3231783
 107.8261089  40.2467203  17.3931491 107.0295334  40.0177240  17.8719616
 107.9971695  41.1571074  17.6343334  34.6982551  80.6464386  79.3611383
  33.9286876  80.6404877  78.7919617  35.2657700  81.3217735  78.9895535
 111.7260456  64.7408390  32.8720260 110.8858299  64.3343258  32.6598430
 112.3530293  64.3134689  32.2885251  37.3734140  59.7394133  62.2914743
  37.7523518  59.6851110  61.4141560  36.9175696  60.5810118  62.3038101
 113.9648914  81.0475159  51.4038992 114.6966934  81.4486313  51.8727350
 113.3794785  81.7779064  51.2037754 106.3082504  77.7186489  82.4875736
 106.0293484  78.5741377  82.1610928 107.0963764  77.9026508  82.9986763
 112.3836899  69.1966343  77.3193216 112.6248264  69.9703217  76.8099165
 113.2023621  68.9131069  77.7262926 109.5566463  93.7524509  63.6531258
 108.7706375  93.3863449  64.0585852 109.8255539  93.0930138  63.0135489
  12.4555159  99.1370678   1.4013995  13.2607234  99.6506119   1.3370213
  12.0366848  99.2402172   0.5468983 112.7092648  39.6209693  62.9881573
 113.4010696  39.0086889  62.7376509 113.1757069  40.3740358  63.3508635
   2.5284782  63.7565565  34.1140795   2.4414392  63.7351084  35.0670719
   1.7648175  63.2770300  33.7929726  87.4386215  72.5368357  71.5496540
  88.2276440  72.4689054  71.0120201  87.2400761  73.4730673  71.5664053
  75.4343176  63.1728554  55.3270769  75.7975912  63.9695883  55.7137060
  74.9707747  62.7466297  56.0479736  78.5752726  35.7313633  87.5098324
  77.9754066  35.5753016  88.2392311  78.5398102  34.9258208  86.9939995
   1.7858487  99.4432259  25.6511378   2.3527884 100.1896000  25.4568696
   1.5605941  99.0838146  24.7930503   1.4967018  50.5073357  55.7788658
   1.3945118  51.3692951  55.3753614   0.6853262  50.0458908  55.5667973
 110.4110146  51.9040680  64.0377855 109.5052814  51.9968462  63.7423706
 110.5606461  52.6678705  64.5949697  39.3542194   7.8914070  48.0988884
  38.9453316   8.5478538  48.6629105  38.8570023   7.9342550  47.2820854
 113.0765152  52.6318312  62.8351593 113.3717728  52.9656458  63.6822891
 112.1747017  52.3506165  62.9896545 101.8850613  66.8782568  58.6084557
 102.0012283  65.9438086  58.7803173 100.9502602  66.9738531  58.4261179
  97.2977352  89.5041275  90.8444405  97.4088192  90.4090595  90.5528927
  96.7362690  89.5686054  91.6169834  10.8174515  92.5146389  46.2406158
  10.7391000  92.1254730  47.1116161  11.2642300  93.3479023  46.3898993
  13.7666416  63.3416462  76.0367298  13.0813825  63.9793396  75.8367348
  13.5301888  62.5677109  75.5255127  19.3634510  40.2407694  46.2533140
  19.3495834  39.4194269  46.7446804  20.1842499  40.2119303  45.7616997
  89.9627781  35.8178043  74.3507910  90.7009983  36.4024448  74.5224237
  90.2185059  34.9858356  74.7491169  97.3228073  79.3441629  35.5724692
  97.0317268  79.6140242  34.7014451  98.2228756  79.0455294  35.4423738
  15.7441664  63.1973886  50.9125519  16.4924574  62.8742790  50.4106665
  15.2021480  62.4223709  51.0601807 100.2056122  93.4460068  49.4315624
  99.7818661  94.2997932  49.5193768 100.8337307  93.4150124  50.1531839
  86.0538483  84.2828655  59.0223312  86.3484955  84.9472141  58.3993912
  85.2727222  83.9051533  58.6180830   3.7437350  73.1606579  26.9915009
   4.4941893  73.1696272  27.5856113   4.0906030  72.8061485  26.1728191
 106.5602589  54.2952156  12.7968240 106.5401840  54.3647051  11.8423605
 105.6626701  54.4851446  13.0697322   3.3655319  97.1245193  54.7155476
   2.9845741  97.9825974  54.5289850   2.7046123  96.6791821  55.2457333
  10.4008949  48.3041573  64.9680662  10.2129006  48.8066530  64.1753531
  10.6957257  47.4519205  64.6471310 103.3978176  43.9341784  57.1666336
 104.0000629  44.1640091  57.8742361 102.7567482  43.3536482  57.5768137
  81.8110752  54.1973877  48.8108683  81.6443920  54.5508480  47.9370737
  81.0035324  54.3671370  49.2959499  96.8894577  90.9514332  46.9280720
  97.1497345  90.3045940  46.2722635  96.8129349  90.4512691  47.7406120
 106.1239433  79.3758631  86.6134644 107.0674515  79.2228842  86.6647625
 105.7992840  78.6803246  86.0415840  65.0536108   9.1293311  17.7140439
  65.0767756   8.9544463  16.7732406  65.8272123   8.6839241  18.0595708
 114.0257168  67.4409580  73.4028006 114.9205971  67.6859093  73.6382341
 114.0015316  66.4901161  73.5102224  92.3192692  86.7772198  50.2956438
  92.6234818  86.5623474  51.1774111  92.5387669  86.0065269  49.7721100
  96.4168262  81.5495968  40.4909468  97.2438622  81.9142437  40.1758718
  95.7773113  81.7930031  39.8216152  14.1515422  27.5404525  71.4560080
  13.9235425  28.4549761  71.6230297  13.3742189  27.1727633  71.0355282
 102.4648380  62.0405245  38.8597608 102.5237370  62.8596210  38.3679914
 102.1366787  62.3009443  39.7204161   4.6216741 100.7134247  49.1032028
   4.1978765  99.8617744  48.9968395   4.6147752 100.8680820  50.0478029
  21.5681553  54.0249014  70.2373743  22.1494174  53.6667871  69.5664644
  21.2571549  54.8515606  69.8683929 101.9835091  57.7598476  58.8111305
 102.5815392  57.0222759  58.6903858 101.4278698  57.4998808  59.5459223
  24.9549794  56.5891743  79.4930410  24.7419190  57.4050188  79.0400124
  25.4098439  56.0621595  78.8360929   1.1326506   6.8862253  49.9188089
   0.8846964   7.5994754  49.3305683   1.2884861   7.3135674  50.7610226
  95.4524040  75.1739407  64.9739742  95.2328968  74.2473221  65.0710487
  96.4022541  75.1839924  64.8560572  27.8963614  84.9336624  46.9552803
  28.2913756  84.0627956  46.9975376  27.2123718  84.9191570  47.6247406
 112.5971413  66.9596624  27.9413557 112.0734596  67.1323109  27.1589303
 112.9606152  67.8126001  28.1793022  47.1147871  40.4710102  69.1532755
  47.2113800  40.8294010  68.2709742  47.6125860  41.0691881  69.7105980
   6.2538028  93.0120564  48.2989025   5.9459567  93.3184624  49.1518831
   5.7452917  92.2185421  48.1316423  66.5076017  82.5215149  70.1286554
  67.2416401  81.9641972  70.3871584  65.8023643  82.2831059  70.7303429
  45.1146173  24.2045903  35.3050804  44.9258852  25.0340486  34.8662019
  44.8789024  24.3586183  36.2199259 108.1586456  74.8800182  38.5430741
 107.4712181  75.3353357  38.0569005 107.7268314  74.1025543  38.8970804
 101.6541100  47.4409485  72.3085451 101.9423866  48.2515669  71.8889952
 102.4644470  46.9678926  72.4977827 109.5010376  53.2544136  45.8566713
 108.5710907  53.1855679  45.6405783 109.5922470  54.1230392  46.2483454
  92.6822281  67.9087830  61.0593891  92.3154545  67.4382401  60.3108549
  93.0261421  67.2210598  61.6294670 101.4116764  80.7555485  33.4592986
 102.2227859  81.2062550  33.6942339 100.7342911  81.4279079  33.5322571
 105.1577759  97.8929806  13.8917708 105.4423332  98.1997395  13.0308628
 104.7497272  98.6586857  14.2960334  88.7890720  34.5312643  48.0271626
  88.4939194  35.4040694  47.7676868  88.5385895  34.4576645  48.9480734
   6.8076664  65.8626795  72.4967337   6.6368192  64.9909925  72.1400738
   6.0639548  66.0352182  73.0741024   0.1839696  75.2039480  70.1249409
  -0.6042137  75.0570536  69.6020412   0.4481087  74.3294764  70.4108906
   4.6031219  63.3900833  94.4540215   4.9370360  62.4944067  94.4040871
   4.4507775  63.5372162  95.3874969 113.8692474  76.6373491  47.4963331
 114.5966625  76.0271931  47.3746347 114.0121937  77.0099783  48.3663607
  30.4822564  66.7841387  74.2277765  30.4660153  66.9722128  75.1661777
  29.5988441  66.4728117  74.0305710 102.6076794  53.4923887  41.4927530
 102.6977730  53.4440994  40.5410242 102.0004749  54.2176771  41.6393614
 110.2347279  53.8248682  48.6158037 110.5571556  54.0322590  49.4928789
 110.7764816  54.3538237  48.0301857  95.8487797  80.2891159  68.2035494
  94.9494267  80.4479504  68.4902143  96.2627125  81.1519337  68.2243824
 115.6672096  92.9058170  45.0880146 115.7387733  93.0732250  44.1482878
 114.7981834  92.5196171  45.1969957  30.0989580   4.3965673  73.3809090
  29.6287608   5.1542032  73.7289524  30.8399248   4.2805958  73.9756775
 111.5558720 103.1081676  69.8523903 110.6186295 102.9198360  69.8040962
 111.8187714 103.2503319  68.9430475 106.4288902  54.4936323  67.4239397
 105.9226894  53.7153625  67.1909237 106.9382954  54.6921253  66.6382360
 115.2852249  73.2361650  37.2948766 116.1913204  73.3044434  36.9939446
 115.3159618  73.5103321  38.2114577 109.2254257  71.4814091  73.7412262
 108.5887909  71.5833521  73.0337381 109.2325306  70.5417442  73.9234781
 114.8371427 108.5661633  45.8071804 114.8468606 107.8968127  46.4913654
 115.2689211 109.3219667  46.2053823  32.7108598  45.4158640  70.0286198
  32.9285550  46.1262989  70.6320477  31.7748475  45.5234671  69.8596907
  16.0647368  98.5976601  70.6729746  15.3347814  98.6770630  70.0588942
  16.5446520  99.4208813  70.5822897  10.4939055  80.0372028  61.2596560
  10.0363755  80.8112717  61.5878439  10.0589263  79.8351383  60.4312849
  55.2658510  43.9963722  22.7952766  54.8591137  44.1589355  21.9441795
  55.9822369  43.3902407  22.6065159 106.0877228   7.3280579   2.6093996
 106.9311333   6.9365770   2.3821592 106.0750771   7.3308563   3.5665119
  72.9723692   4.9969482  59.1430473  73.6227083   5.6252962  58.8292503
  73.3270264   4.1424316  58.8975859  89.1420269  12.5110126  72.0174122
  89.9810219  12.1890914  71.6877460  89.2264843  12.4678826  72.9699039
  85.7832146  23.9918566  13.3088970  86.6987419  24.2249131  13.1548679
  85.3140831  24.3543983  12.5574255  63.0625343 105.9315681  49.2787647
  63.5023212 106.0301590  48.4343100  63.1652212 106.7833710  49.7031736
  34.2265105  87.7983093  43.0857897  33.6778951  87.6559925  43.8571501
  33.6484241  88.2306290  42.4571848  92.5891590   2.5154787  85.2032185
  92.9313850   1.6313714  85.0710678  93.3688641   3.0669388  85.2679062
  50.8421516  99.3025494  27.4952841  50.7541895  98.3567810  27.6137137
  51.4492035  99.3965721  26.7612004  80.5935001   6.3243115  22.2822642
  81.3387775   6.2825096  22.8814697  80.7568741   7.1034813  21.7508149
   1.8767028   7.5652850  25.1219749   2.2243373   7.4497867  24.2376423
   2.3446146   8.3262670  25.4657722  65.3524446  95.5185032  36.2291527
  65.7114029  95.1975441  35.4018855  64.9180698  94.7569275  36.6132736
  93.2189560 106.0060596  61.1177683  93.0203819 106.4232445  60.2794647
  94.1680145 105.8821583  61.1047840  35.9428406 103.3530331  34.0822172
  35.9527993 103.5662937  35.0153041  36.3715410 104.0983677  33.6615896
  91.4512825  27.1872807  55.0706291  91.8179131  27.7512002  55.7516670
  92.1208668  26.5184379  54.9273491  43.9483356  98.6667824  31.3233590
  43.3098173  99.2133808  30.8653688  43.5750771  98.5424805  32.1959758
  96.2020874  12.8722763  56.0712147  96.0143661  12.7538157  55.1401043
  95.3980255  13.2458305  56.4320135  62.4607372  24.9046946  30.1845121
  63.1962919  25.3724790  30.5799484  61.9064093  24.6598768  30.9254694
 100.0159740   9.7266597  20.7245541 100.4560089   9.0442592  20.2176714
  99.0848637   9.5948392  20.5460024  56.5668964   2.9690984  51.6172791
  56.6255999   3.1483933  50.6788540  55.9329033   3.6075357  51.9439030
  31.9749570 102.5698280  28.4079027  32.2339416 102.1409988  29.2235398
  31.1787939 102.1116734  28.1387401  35.5389476   5.6270951  59.2982006
  34.6178961   5.3679484  59.2709732  35.9543443   5.1077020  58.6097908
  77.0026159  30.2456021  59.0879107  76.3349485  30.9215760  59.2041540
  76.7078638  29.5205569  59.6389723  82.7699089   0.1309296  54.6447802
  82.3976231   0.3158078  55.5070210  83.5646725  -0.3695863  54.8293638
 104.5323372  36.7426777  13.0936921 103.9413738  36.2824130  12.4977469
 105.3480721  36.8315578  12.6008308  89.6483326  25.0806117  41.8604803
  90.0420380  24.2467952  42.1173382  88.7177563  24.9774957  42.0595455
  58.9898872  20.0618196  26.9965720  59.3865204  20.2018380  26.1367440
  59.4709396  20.6481147  27.5805902  18.4703922 107.7143764  79.0190125
  17.7845728 108.2247066  79.4496441  19.2425287 107.8367138  79.5713425
 103.0472660  20.3236866  53.8767433 102.8001308  20.7334042  53.0477142
 103.7572384  19.7247183  53.6456203  40.8585787  93.3191776  56.1497402
  41.3851690  93.3425999  56.9487286  41.4036131  92.8509808  55.5173111
 114.1552830  23.8704157  61.7385006 115.0479412  23.5279346  61.7842245
 114.2576790  24.8182249  61.8245459  47.5334930  22.1840930   6.3161796
  46.7145586  22.4733639   6.7185509  47.3469400  21.2990236   6.0030055
  77.1346521  88.6998940  42.9428816  77.1751451  87.8982639  43.4644032
  77.5883436  89.3543434  43.4740067  58.6531544  25.8720350  21.4124870
  58.9542484  24.9748969  21.5564156  58.0302238  26.0322452  22.1213746
 101.0248852   6.1560857  29.8622537 101.7507553   6.1747384  29.2385530
 101.0978889   5.3025264  30.2892661 101.5767288   2.8342932  20.9747148
 101.4398861   2.8263953  21.9220495 102.1807289   3.5618269  20.8260250
  65.6566238   9.2655915  20.6498075  64.8744345   8.7601662  20.4285550
  66.3025856   8.6073339  20.9060574  77.4508810  99.8618793  22.7320027
  77.1364641  99.2476559  23.3954072  76.7598295 100.5212402  22.6693797
  65.7713079   5.7290500  66.0581350  66.2592936   6.1810082  65.3697824
  66.4035606   5.1198810  66.4394474  62.9047203   1.5626280  58.7214756
  62.0032692   1.6900484  59.0170813  62.9519749   2.0310968  57.8880835
  41.0705805   4.8599941  55.7645559  40.6749392   5.4557580  55.1283455
  42.0080376   4.8945200  55.5742693 103.0008125  18.1678402  21.7295957
 102.9890442  17.6095724  22.5070453 102.4277115  18.9013243  21.9527245
  87.2608471   1.1329602  36.5967584  87.5682068   0.2469393  36.7884111
  87.4016380   1.6166124  37.4106932  22.8561378  87.1899414  48.7702417
  22.4626970  87.2440243  47.8993177  22.7064300  88.0536366  49.1547537
 103.6046886  16.9273829  52.4418402 104.2704582  16.6558754  51.8099689
 102.7992344  16.9911170  51.9286108  57.9376173 104.6968555  72.9054451
  57.1857548 104.3589783  73.3920431  57.5521946 105.1965618  72.1857405
  62.7827406 108.4916115  35.2043366  63.6275673 108.4629917  35.6534243
  62.6847506 109.4053078  34.9363971 107.1753883   9.6275806  65.5879021
 107.4103832  10.2464139  66.2793159 107.7608013   8.8826191  65.7241058
  77.5287104  17.0167756  47.4366665  76.6204643  16.7245841  47.3595333
  77.9843092  16.5742671  46.7205334  73.6115742   8.4526843  41.2673330
  73.0805111   8.8140845  40.5576897  72.9865551   7.9811281  41.8179846
  45.5055428 104.5265198  24.0826917  45.9368467 103.6720657  24.0715384
  46.0904932 105.0966072  23.5836363  71.4619923  11.6195381  92.8516769
  71.5027428  12.5753701  92.8207397  70.7100344  11.4299023  93.4127712
  74.3510008  15.6117225  49.0259504  73.7483501  15.9816253  48.3807993
  74.1913271  16.1194134  49.8215532  33.3366632 105.0227833  37.4793386
  34.0854526 104.9655056  36.8858194  33.3554745 105.9236145  37.8024077
  83.1001377  15.1968670  39.7416282  82.5758839  14.4043100  39.8567104
  82.4850082  15.9147799  39.8914886  51.5862799  15.4896796  11.8544555
  51.7068815  14.8235917  12.5312233  51.9691420  15.1030552  11.0669470
  82.0416355   7.0252687  29.6880555  82.0925236   7.8325093  30.1999187
  81.8589401   7.3187625  28.7954664  89.4437504   9.9170715  51.9936800
  88.6641788  10.0610256  52.5301218  89.6184158   8.9791906  52.0718145
  75.0937223 109.4901752  11.5729141  75.8996010 109.2339611  11.1244297
  75.3348446 109.5229340  12.4986660  45.5610371  85.3345394  12.7421284
  45.6635904  84.4146538  12.4981344  44.6272802  85.5103779  12.6263285
  60.9128857   4.9190655  59.5833635  61.1737490   5.7469344  59.1798592
  61.6864681   4.3606645  59.5059824   1.3660161   9.4546640  41.9993973
   1.5035668   9.2142510  41.0831451   1.0506938   8.6511439  42.4131107
  51.0998821  36.6092086  78.0367756  50.8107376  36.5860391  77.1245861
  51.8363571  37.2206259  78.0391264  85.8007431  32.0869660  62.4312925
  85.3865719  31.9518852  61.5789700  85.9491539  33.0314136  62.4784756
  70.0570393   3.4512469  57.0266628  70.6962442   3.1830436  56.3665771
  69.8919773   2.6580697  57.5364256  35.0067377 105.2900696  67.4668598
  34.6398425 104.4059849  67.4719858  35.8853054 105.1869011  67.8325176
  76.3636971  18.4742618  68.4819174  76.9024706  17.8208697  68.9280462
  75.7878208  18.8169634  69.1654062 103.1548882  22.0055389  75.5466270
 103.6667442  21.2258410  75.3314495 103.7322712  22.7380228  75.3313828
  69.2141962  19.9528182  56.0755157  70.1632404  19.8692536  56.1680555
  68.9810133  19.3082285  55.4074097  98.7565422  29.2304277  45.3481483
  98.0146694  29.6114135  44.8783541  98.4170914  28.4107256  45.7074451
  90.4360867 100.6559563  76.7212009  90.8260441  99.7880363  76.6168928
  90.7703876 101.1595154  75.9789753  74.5001888  26.7863345  37.2267628
  75.3580332  27.2008300  37.1343970  74.0753555  26.9237971  36.3800907
  94.2361927  18.6276054  30.1572943  93.2904053  18.5741961  30.2946210
  94.4049072  19.5585275  30.0118566  74.2541599  98.7625599  22.6648688
  74.7682858  99.4239235  22.2017169  73.7644720  98.3138752  21.9755840
   4.4917569  28.6152172  40.9040403   3.5683858  28.8478184  41.0015821
   4.8673370  29.3338513  40.3953791  79.8376417  19.6713233  33.4137464
  78.9930248  19.2519891  33.2493758  79.6166563  20.4868078  33.8636184
  79.3119478  36.2006187  52.3905754  79.6736479  35.3270245  52.5396824
  78.9282942  36.1547303  51.5148258  78.5987473   6.2042099  34.9196100
  78.6459255   7.0276684  35.4053283  78.6050797   6.4681411  33.9995384
  89.6467781   8.3087927  35.0647259  90.4681301   7.8926170  35.3263021
  89.5892239   9.0909696  35.6134677  69.0364265   7.0105809  45.2123404
  69.4412422   6.7141688  46.0275078  68.1548738   7.2823966  45.4677200
  73.3958769  46.3429880  63.2614326  72.9655743  47.1224785  63.6128139
  74.2238712  46.2907410  63.7388515  72.8296804  20.2448630  52.6262283
  72.0443058  19.7128272  52.7541161  73.5088158  19.6151400  52.3844528
  68.0567122  13.2109320   9.0390301  68.5651159  13.0755627   9.8386753
  67.2994328  13.7241900   9.3206835  99.0955925  39.5218778  48.6672735
  99.3986988  38.6141324  48.6483908  99.6234608  39.9365020  49.3496799
  26.7079687 108.2238483  58.8248253  25.9264684 108.0247116  58.3092308
  26.8991089 107.4114418  59.2935371  89.0955257  17.1731293   3.6961162
  88.2085323  16.9515109   3.9795679  89.0007591  17.4054492   2.7723852
  35.4410505  95.2823353  31.1784387  35.7644272  96.0180473  30.6584525
  34.9990511  95.6909943  31.9226623 108.8878727   7.1821791  20.5064464
 108.0825329   6.8314421  20.1261163 109.4579601   6.4196455  20.6052995
  99.6444988  23.7725949  58.0104685 100.4326344  24.1693759  58.3814716
  99.6535397  22.8724837  58.3359671  75.0000954  12.4339569  29.5804787
  74.3523407  11.9614577  29.0576077  74.8148060  13.3580697  29.4133973
 105.4745197  29.5878863  38.7995076 104.7284412  29.8990893  39.3120933
 105.1988125  28.7324047  38.4703207  73.2800245   8.3332986  22.4615788
  74.0978289   8.4627336  22.9418659  72.9832888   7.4620068  22.7243137
 100.5073929  14.6412957  26.6480303 100.3131580  15.4151320  26.1191845
 101.1547375  14.9430442  27.2853136 102.0925808  88.4445381  62.6262426
 102.0000458  88.4093857  63.5783100 101.2123966  88.6439323  62.3072529
  45.8168268  91.9186592  62.9828882  45.9394169  91.6804886  63.9018440
  45.6898689  92.8673077  62.9962158  88.2580280  13.2775271  55.4972601
  88.3296394  13.3316171  56.4502430  88.1463814  14.1848814  55.2135801
  55.6628656  35.6189036  50.2417326  56.2605286  35.7837868  50.9710073
  55.1285172  34.8798323  50.5323744  83.3285713  12.5969720  31.6790175
  84.1249371  12.0661676  31.6955471  82.7319431  12.1159029  31.1055684
  99.5015049  27.4498606  66.3342667  99.0911007  28.1783605  65.8683443
 100.3111267  27.8177547  66.6883898  82.1642971 103.4748459  53.1732035
  82.5128555 104.3638992  53.1073761  82.9396343 102.9185581  53.2482719
   1.2176366  42.2609329  59.4457150   1.6589366  42.8673506  60.0404787
   0.3907435  42.0563889  59.8823404  25.7826281 102.6932812  60.7706308
  25.9718561 101.7839146  60.5393887  25.1172256 102.9674244  60.1395035
  75.1795864  27.9438281  28.8130355  74.6435118  27.8592038  29.6015072
  75.4552984  28.8604474  28.8081026  65.7584095  15.8973491  30.6377912
  65.1504469  15.3322399  30.1610708  66.5955067  15.4347026  30.5995750
   1.1743284  32.3321819  49.7535849   1.9933134  32.5557375  49.3114090
   1.4318518  32.1512198  50.6575537  84.3836784   8.7700003  59.8273325
  84.5364189   7.9073632  60.2130270  84.0517521   9.3007594  60.5514574
  45.5830908 103.5155201  57.9660416  46.0047388 102.9274464  57.3394489
  44.6835136 103.5977173  57.6494408  86.1324215  22.9205561  63.3865309
  85.2097416  22.7004790  63.2582235  86.1338329  23.5223913  64.1308594
 102.4860573  21.6288114  31.4421248 102.7069473  21.8623877  30.5405259
 102.8225899  22.3550820  31.9670129  75.1337576  52.7257633  62.0985365
  75.5154467  53.3734608  61.5060568  74.5086288  52.2444105  61.5565538
  93.5787392   2.6244426  40.3328896  92.7059174   2.9992175  40.4510832
  93.9215469   3.0576208  39.5511842  46.1495256 106.9097424  49.8885965
  46.3806772 106.0378933  50.2090216  45.9354448 107.4062347  50.6784678
  66.7372274  26.8575883  49.7688150  67.6491356  26.9292593  49.4868326
  66.5955544  27.6276517  50.3194141 102.7983379  42.3028135  44.2300129
 102.3465061  42.7341938  44.9552631 103.4741402  42.9263401  43.9640474
  91.9851685 105.7741642  48.9660692  92.3242092 104.8790836  48.9775705
  92.5592327 106.2553978  49.5619726 106.5685749   0.3629309  48.8708830
 106.7044544  -0.4945208  48.4677124 105.6539917   0.5737451  48.6829281
  73.2595301  22.5946736  21.9509768  73.8453197  21.9886947  21.4972448
  72.9036856  23.1490183  21.2564945 113.2401943  38.7709332  49.5051956
 113.7280273  38.2549262  48.8633299 112.3498821  38.8083386  49.1556549
  10.0573134  20.5229115  55.1336718  10.3069162  19.7863638  54.5756149
   9.9040145  21.2444282  54.5236349  65.5828333  40.7893753  13.7770939
  64.7626114  41.2349939  13.9889669  65.4769468  39.9088168  14.1371429
  64.0796852  27.5348473  20.9683895  65.0184727  27.5439310  21.1550164
  63.6639023  27.5920677  21.8286705  51.9572783 102.9675293  37.1639609
  51.7755795 102.8708172  36.2291551  52.8560209 102.6546478  37.2668934
 104.0733528  19.0967381  77.7613163 104.4212627  18.6875427  76.9690037
 103.3966160  18.4921253  78.0657721  85.4058838  32.3687625  19.8291183
  85.8637905  31.5680909  19.5732200  84.6410179  32.0620394  20.3160763
  79.2609215  16.9833624  51.8615913  80.1404953  16.9260585  52.2348118
  78.6785078  16.9917321  52.6211691  96.0828400  19.9307692  54.8528051
  95.4008198  20.4323721  55.2994347  96.5469170  20.5777669  54.3215227
 102.8048992  36.2911606  52.4804926 102.8674507  35.7481766  51.6946888
 103.7128258  36.4226675  52.7536488  28.4463906 104.6917820  28.3838344
  28.7542295 104.6114731  29.2866182  27.5133157 104.8890591  28.4656024
 108.9557076  11.8572366  20.9388351 108.3426857  11.4568245  21.5553689
 109.3822765  11.1156595  20.5094934  91.5027332  34.6124339  31.5108132
  92.0433426  35.0204253  32.1872091  90.8114052  35.2517390  31.3387942
  89.6667671  33.5812569  43.3460855  88.9203739  34.0698290  42.9990721
  90.3218365  33.6177230  42.6490974  62.4589825  24.7656608  34.8091292
  63.0378437  25.3877616  35.2497506  61.9501591  24.3695498  35.5165339
  88.9571667  31.7193294  30.6714702  88.7929058  31.9413710  31.5879583
  89.8998833  31.8425512  30.5604267 113.3190536  29.7726202  39.3599582
 113.4852886  30.6431532  39.7215796 113.7827682  29.7685599  38.5225892
  54.4110250  21.6528964  73.1002378  53.7974930  21.0535169  72.6753235
  54.7456837  22.1977806  72.3879623  90.1178455  11.6900373  63.3640385
  90.5324364  12.5119388  63.6263895  89.9993992  11.2093496  64.1832733
  65.2013636  12.1640825  45.6339264  64.5985413  12.4459350  46.3219643
  65.8620024  11.6447496  46.0922766  66.3339472  22.1877861   8.3894581
  66.4944315  21.7991185   9.2493498  67.1833181  22.1546412   7.9493403
  71.6931629  14.7751737  26.5521169  72.5271177  14.3258095  26.4149427
  71.9393682  15.6611335  26.8179893  86.8557262 106.6765594  74.4668245
  85.9128761 106.8415451  74.4734812  86.9797516 105.9701538  75.1007271
  93.5226822  26.9645381  43.5494566  94.3231106  27.4884224  43.5824013
  92.8340149  27.5927877  43.3320236  89.2326260  20.0855517  24.6519327
  89.4942856  21.0013294  24.5564413  88.3201122  20.1257730  24.9381423
 101.8401337  23.8481069  33.0201125 102.2600555  24.6073079  33.4244823
 101.1722469  23.5795188  33.6509991  74.7045040  40.7322216  33.2156849
  74.5103168  40.9710741  34.1220355  73.9812613  41.1030245  32.7100611
 107.1091747  52.2036600  23.6362338 107.4853325  51.7975950  22.8553033
 106.7097282  53.0127239  23.3167124  78.0061722  53.2073641   6.6554976
  77.8243494  53.9287329   6.0531682  77.1907520  53.0912304   7.1431798
 111.8696022   3.9293349  75.1320553 111.6513538   4.1356015  76.0409307
 112.7277851   4.3304977  74.9948406  82.6460457  38.7983966  39.7575188
  83.1559944  38.2655358  39.1474032  83.1604862  39.5984864  39.8644853
 113.2041550  19.1658223  34.4014525 113.9700508  19.5920873  34.0168238
 112.5042915  19.3109798  33.7647772  82.5719738  11.7590058  75.9903431
  83.4607410  12.0509458  75.7876015  82.1275234  12.5458682  76.3058424
  87.8924370  34.5676851  54.9760151  87.9717827  34.4458938  54.0299177
  87.9873943  35.5114150  55.1048136  93.4599495  14.5879292  70.4449034
  93.6654568  15.4864728  70.1867962  93.0867767  14.6702230  71.3225126
  97.8112507  32.3240161  91.5347958  98.6420822  31.8709016  91.3911343
  97.6623058  32.2578239  92.4780083  90.6320763  43.8408184  46.2534809
  91.1787891  43.8267851  45.4679012  90.7212543  42.9623604  46.6230679
  29.5904160  61.6653728   8.9223069  29.4529486  62.1682358   8.1195217
  30.3958035  61.1735821   8.7619197   4.8101065   1.6424154  75.9826565
   3.9885789   1.1567292  75.9089470   4.5410606   2.5396013  76.1798954
  52.5563908 101.7784023  64.3253946  53.1618500 102.4513626  64.6365023
  53.0523443 100.9621716  64.3888712 110.0437737  36.7624211  68.5030413
 109.4532013  36.1696577  68.9678907 109.7041798  36.7859554  67.6084185
  67.4788761   3.2143298   8.3763826  67.2031069   3.0481216   7.4749625
  68.4345102   3.2468361   8.3323687 111.0392570   2.6135811  39.2536592
 111.1521149   2.8281656  40.1796436 110.1056576   2.7461100  39.0891457
  69.0307522   3.8107520  31.4945412  69.1038799   4.6731094  31.9034719
  68.0971003   3.7126654  31.3077164  81.6469669   2.3771302  20.7647729
  80.7012749   2.2541115  20.6825423  81.9575977   1.5737584  21.1823106
  98.1161308  22.8883791  70.7577515  98.8677025  23.1642532  71.2824059
  97.9777908  23.6071920  70.1409864  65.7377148  12.6389194  53.9060783
  66.3992977  13.0854952  53.3777714  65.9687519  11.7119777  53.8458109
 102.3537636   9.2340660  24.0248084 101.5049648   8.8485301  24.2419147
 102.1380138  10.0618052  23.5952353  92.4467182  50.0407600  54.8891878
  92.2267246  49.2034483  55.2975321  92.9210758  50.5209351  55.5679035
  72.0201826  18.8054550  59.9263382  71.1470985  18.7017083  60.3047466
  71.8882132  18.6925054  58.9850283  59.9377775  14.8490202  36.7807770
  60.2287960  14.4977319  35.9392667  60.1876926  14.1805589  37.4186921
 101.4397144  16.7483234  16.5675163 101.7271137  15.8441889  16.4403272
 100.9528255  16.9591975  15.7708359 105.9530830  14.0078628  78.4725952
 106.0194397  14.4467735  79.3206406 105.2020168  14.4213796  78.0470037
  67.3222065  85.8138847  47.5308561  66.5122032  85.9603214  47.0423031
  67.3468208  84.8680496  47.6758146 111.9801617  10.4261804  50.2928877
 112.9176998  10.3597534  50.1116467 111.5602779  10.2468169  49.4516039
 115.4407501  28.0232811  40.4312372 115.5639744  27.2926402  39.8252559
 114.7177410  28.5261369  40.0562382  80.7822227  35.6279445  15.6004035
  80.2642727  36.0017371  16.3133109  81.3866520  36.3271379  15.3513539
  85.5338097   6.3126802  60.4034805  85.7715797   6.4938235  59.4941473
  85.9338856   5.4635721  60.5910635  87.5933170  11.3508165  53.6060429
  87.8390408  11.8903029  54.3575764  87.1258163  10.6076503  53.9873171
  93.7553310  10.0654364  50.4455996  93.2252979   9.9043518  51.2262154
  94.4848347   9.4502294  50.5202770   2.4693255  45.4219007   7.7577192
   2.4457026  46.3400936   7.4882770   1.5508777  45.1878548   7.8915358
  73.3432484   5.4064703  40.5105829  73.6919165   6.2930435  40.6035852
  72.9131985   5.2292490  41.3471699  77.9621840  25.4402328  56.1701202
  77.2509384  25.9044433  56.6115665  77.6194239  24.5581913  56.0260677
  45.0476220 109.6174635  59.1386747  45.6176332 109.7807706  58.3872414
  45.6332639 109.6500941  59.8951101  99.2234325  26.8072939   2.9210597
  98.3697701  26.3745427   2.9357710  99.7447395  26.3306761   3.5670531
  87.9672623  24.9337649   8.6244869  88.1653500  24.2003965   9.2068613
  87.7340317  24.5224690   7.7922165  90.7235813  13.1570625  54.0845728
  91.3139343  13.1008828  54.8359442  89.8559093  12.9800069  54.4479418
  25.1507187  71.2372398  93.5665989  25.0094247  70.3514910  93.2323551
  24.6069241  71.2861443  94.3528080  25.7761645  93.8439560  76.3427687
  26.1524272  93.0011845  76.5965223  26.3941932  94.1996479  75.7042122
  19.1942060  16.7986619  34.3157625  18.9720762  16.7884052  33.3847499
  19.1409326  17.7214265  34.5645571  76.2355661   4.6796250  38.9797807
  76.6260862   4.5303580  38.1187057  75.5223465   5.2965534  38.8156247
  88.9687347  30.4253912  54.8893166  88.3459568  31.0642600  55.2360535
  89.6806240  30.4132676  55.5290842  67.7789021  15.7817864  60.2635717
  67.1250248  16.3651776  59.8784351  67.2835588  15.2379274  60.8760118
  75.8937597  18.9423120  15.7643402  76.7542791  19.1544795  16.1259019
  75.3467035  18.7733245  16.5314138 115.3392410  24.3790364  52.3540688
 114.6755886  24.2163706  53.0243921 116.1636448  24.1190505  52.7651691
 115.3121662   9.7773832  18.6580920 114.3659782   9.9067611  18.5931611
 115.4656219   9.5926446  19.5846748 102.7222347  11.1799622   9.5257056
 102.4342823  11.8110335   8.8661122 102.5343418  10.3253567   9.1376603
 105.5191135   1.6946536  76.6703415 105.3510380   2.4990675  76.1795235
 105.6891251   1.9907874  77.5645590 106.0566902   2.7773714  39.1676617
 106.3368988   2.8360522  40.0810480 106.5766907   2.0611580  38.8031483
  94.2533684  39.0776896  59.4075298  93.7167168  39.5134544  60.0696087
  94.2663860  39.6879148  58.6701775   7.9109091  84.9095917  15.0236070
   7.5188076  85.2517986  14.2202473   8.6227816  84.3456078  14.7212994
  80.7048607  10.3300464  66.7650652  80.6662464  11.2130809  67.1324778
  80.5104733   9.7542232  67.5045729  67.9495335  13.9403200  52.8627920
  68.6545038  13.9617670  53.5099268  68.0227709  14.7755826  52.4010515
  55.3856325  96.3941574  13.2018769  54.9323606  96.7472172  12.4362862
  55.4316282  97.1293354  13.8131309  77.7766323  30.6044483  48.4009981
  77.8108931  30.4757810  47.4531031  77.0448875  30.0594401  48.6903906
  49.1202688 104.4462013  64.2650604  49.7858095 103.7635422  64.1798401
  48.9788342 104.7558308  63.3704329  99.4504261   9.6091920  54.0889215
  99.3684769  10.1966858  53.3376741  99.8609257   8.8211221  53.7330246
   3.2835045  54.2405891  20.9705639   4.1385898  54.6224880  20.7725382
   2.6552340  54.8324013  20.5567217  53.5981369  35.2932596  19.5550179
  52.8403044  34.8140001  19.8900223  53.7464190  34.9275708  18.6829412
  10.4797709  34.9276900  59.2339659  10.5424690  35.1985931  60.1498890
  11.1140430  35.4799747  58.7768936   4.0757221  24.4135809  68.1522799
   3.7563542  23.8026309  68.8163376   4.9506566  24.0931773  67.9330444
  80.2163887  26.4720106  62.0419645  80.3707790  25.6652737  61.5504694
  79.9984884  27.1216726  61.3736153  74.5985699  47.8741980  49.2388964
  74.3049145  48.4313774  48.5181046  74.3900633  48.3739328  50.0282145
  84.2063618  43.9062452  32.9237175  84.3743324  42.9639387  32.9320240
  83.2796764  43.9823532  32.6963449 108.1876183  32.9740095  66.6500521
 108.4119606  33.3833671  67.4857092 109.0283775  32.6977229  66.2853289
  90.6092930  99.9867439  37.1550846  89.9810791  99.7898388  36.4602399
  90.1000023 100.4637718  37.8102970 101.5117645  62.4757099  52.6580954
 101.1397076  62.3989201  51.7795086 100.7857990  62.7859306  53.1993532
 110.6353855  46.3830805  41.7598772 111.0494423  47.0852661  41.2581444
 111.3536549  45.7894230  41.9787216  57.6516914  14.4165480  56.5031910
  56.8284464  13.9750123  56.2945223  58.2499695  14.1502309  55.8050680
  30.5687308  84.6435452  94.3840313  31.0536838  84.2107201  93.6813927
  31.1300731  85.3722382  94.6488762  14.1602099  26.7000508  67.5243282
  13.5495925  27.2955418  67.9587984  14.9353087  27.2349072  67.3529148
 100.4722595   6.4946759  59.4491243 100.0865364   6.3166535  60.3068876
 100.8602810   7.3652762  59.5370197  96.7584419  39.1899657  42.6028824
  96.3551521  39.9526238  43.0175304  97.6907253  39.2734671  42.8031445
  77.4764919  37.4889946  37.6143646  77.9239511  37.1181035  38.3749270
  76.7960644  36.8502188  37.4017406  80.7481384  41.9187975  28.9568543
  80.8625031  41.6696453  28.0397534  81.5429878  42.4061251  29.1735625
  90.1617050  16.2417793  57.6018715  90.1516438  15.9481168  58.5128546
  90.8806896  16.8723834  57.5614309 109.9072266  34.8589945  46.1745548
 109.2681313  35.5210161  46.4382076 110.1546288  34.4261146  46.9916439
  64.5115995  12.5743783  35.2312803  64.0428495  12.6496470  34.4001150
  63.9219666  12.0727134  35.7942152  83.7176514  60.4937172  41.8474197
  83.6922359  59.7857332  41.2037230  83.2079220  60.1632595  42.5871563
  87.4912930  28.1792092  51.7396736  88.3549023  28.4049129  52.0853281
  87.3306274  27.2908688  52.0579004  66.4087868  18.4395552  15.7794535
  66.1254549  18.2099032  14.8944592  67.2431850  18.8915479  15.6540835
  93.3200169  18.0960822  37.4395728  93.6662006  18.6357987  38.1502748
  92.7853680  18.6972189  36.9209027  10.9578621  52.1202326  59.3141460
  10.2559388  51.7522383  58.7773848  11.5277481  51.3756180  59.5065260
  57.0721388  99.0706348  49.6873999  56.8284035  98.2631207  50.1398945
  56.2376785  99.4597721  49.4257021  95.2020264   3.0396074  38.0990911
  95.2809143   2.8157321  37.1717906  95.8935833   2.5347960  38.5270333
 113.1587029  27.8696775  49.3356991 112.3808670  28.4259415  49.2936134
 112.8620338  27.0764375  49.7817755  15.0277877 101.4184666  28.7263393
  15.3528929 101.6359329  27.8526998  15.4271019 100.5718994  28.9266253
  97.5441360  19.6401763  61.0253429  96.8616867  19.0430439  60.7188654
  98.1748676  19.6724403  60.3060579  39.9713111   3.3205479  71.9073439
  40.1482964   2.3831666  71.9862366  39.5513153   3.4138608  71.0522842
 100.0185108  12.7573144  57.0604610 100.8178711  12.5317657  56.5846682
  99.3433475  12.8082609  56.3838530  88.4291267   9.9031132  56.6666889
  88.9791775  10.6740201  56.8058777  87.6756477  10.0396407  57.2410297
  89.4886589   3.9317119  42.0360994  89.1581059   4.5688650  42.6693487
  89.0716839   3.1071565  42.2860432  16.3265359  32.3739100  20.3153753
  15.3918946  32.4886322  20.1435709  16.5730500  31.6078043  19.7971606
  59.9329281 106.9478226  33.3265185  59.7605515 106.8929386  34.2664695
  59.6775579 106.0905743  32.9857278 102.3539639  15.7120216  46.3324833
 102.1043015  16.0578990  47.1893787 102.0744991  16.3850403  45.7118559
  72.9178667   6.7672211  13.4695756  72.0585775   6.6384733  13.0679846
  73.0275202   6.0123545  14.0478349 109.5781898  24.6624708   8.2289135
 110.0894165  25.2087140   7.6318336 109.1302681  24.0381026   7.6581615
  79.8252964  38.4268188  17.0466530  79.1778421  38.9544249  16.5790403
  79.9318314  38.8693333  17.8887117  82.9142284  43.8672638  52.7237463
  83.6137009  43.8549948  53.3770657  82.8372860  44.7876883  52.4724960
  41.0727501  92.9748821  75.6627989  40.3651237  92.4383831  75.3055000
  41.2105322  92.6323414  76.5459251  49.1900492 103.1961823  34.2392540
  48.6434746 102.4186420  34.3529534  50.0875521 102.8689480  34.2995667
  76.4743090  41.0532570   5.1508868  76.9124365  40.6303692   4.4123459
  76.7392731  41.9712210   5.0928760  86.9078541  42.7925920  14.0666795
  86.8496990  43.1944704  13.1998789  87.7887154  43.0090284  14.3724215
  60.5662489  25.7004285  71.2654018  61.3011742  25.1079917  71.4239311
  59.9271965  25.1679277  70.7918119 104.4198895  18.6131191  19.2058146
 104.1506958  18.5585332  20.1227617 104.8619461  17.7812600  19.0360451
 106.5601540  39.2260647  77.0241785 106.0940838  39.5386219  77.7996254
 106.1785889  38.3665538  76.8456316  91.5697384  34.5108223  66.9953775
  91.3263226  34.1246319  66.1540461  91.1286545  35.3602767  67.0055771
  13.3087456  14.1430342  67.3383760  13.0333126  14.5941114  68.1364346
  13.0426586  13.2335222  67.4733400  98.8967037  20.0959730  73.7266016
  99.1035271  20.6908178  74.4474459  98.5155964  19.3277538  74.1518402
 108.8393211  42.6416492  18.2709885 108.0267906  42.9817820  18.6456025
 109.0282917  43.2268953  17.5374949  96.2590122  67.3326254  57.2013426
  96.6331577  68.1337690  57.5679684  95.3545952  67.5650740  56.9910479
  65.5607319  37.9014540  17.0914876  66.2444448  38.5665107  17.0110381
  65.1532507  37.8709340  16.2258911 106.0699368  90.7990074  31.7349911
 105.6186104  90.0480366  31.3495207 105.4683971  91.1212826  32.4062014
  23.0706811 105.8362293  52.6845789  23.3520675 105.3223419  53.4415293
  22.3579407 105.3258705  52.3001766 102.0896912  47.9749250  30.0021601
 102.1766090  47.2895765  30.6647110 101.8233967  48.7514973  30.4943585
  10.6326628  67.5445271  86.2418842  10.2435529  68.3562946  86.5672398
   9.9284464  66.8992853  86.3049221  88.7945557   6.8569046  59.1551781
  89.1547489   6.2253606  58.5325623  87.9100800   7.0321912  58.8339233
 102.8106499  12.3941958  61.6143084 103.4053802  12.8368938  62.2197390
 102.6926422  11.5215838  61.9896126 105.0643158   5.2304131  41.7990351
 105.3162575   6.0979182  41.4825058 104.3254471   5.3945315  42.3850155
   0.5260432  37.1283865  91.6974163  -0.0470142  37.5337005  92.3482323
   1.0062217  37.8610849  91.3116550   8.3714741   6.5207577  63.7216330
   8.7208897   5.7770932  63.2306099   8.0229288   6.1347055  64.5251942
  75.0533247  19.9988353  70.3850031  75.7998180  20.5944514  70.3200293
  74.8055649  20.0252628  71.3092041  95.9915733  18.1573808  59.3480730
  96.3998127  18.0235863  58.4926939  95.2200127  18.6931705  59.1640568
  50.7294893  96.7631054  46.1627293  50.2656031  95.9298325  46.0809278
  51.6287899  96.5631008  45.9029388   2.7878740   6.3646412   2.8375050
   3.6473963   6.2810069   2.4246386   2.1967888   6.5850621   2.1175990
 115.5500507  36.4233875  25.8366823 115.7470512  35.4888105  25.8998203
 114.6013451  36.4604902  25.7149577  97.5642586  15.0662887  50.2221346
  98.2794285  15.5739319  50.6056213  96.8997192  15.0311255  50.9101629
  64.3691826  91.1595917  77.9979897  63.6248827  90.8741188  78.5278559
  65.0938225  91.2273502  78.6197138 115.8101463  34.2557740  49.0609407
 115.0102997  33.7381744  48.9683962 116.4836597  33.6164331  49.2930126
  88.8339424  12.5077522  81.0785198  89.6625423  12.3393786  80.6298447
  88.3383846  13.0547380  80.4690552   0.3583290  25.4238105  71.1758280
  -0.1349927  24.9145198  70.5327940   0.0731897  25.0808287  72.0227575
  32.0982242 108.5844040  69.7452497  32.6276040 109.2655087  69.3304157
  32.5644326 108.3790207  70.5556202 103.7944698  25.7221150  38.8274622
 104.1383553  26.2795305  39.5255089 104.1356182  26.1097074  38.0214691
 104.7384739   6.3610756  21.6157365 104.6991062   6.5843856  22.5456905
 105.6563377   6.4905196  21.3769841  81.9216824  19.5638478  25.4414797
  81.4270020  18.8284397  25.8030033  81.3286495  20.3114438  25.5166245
  10.9294200  10.5014086  34.1257119  10.0035179  10.7062793  34.2559648
  11.1530995   9.9274594  34.8583651  66.4755344  94.2581367  33.6637044
  66.0489178  93.4904289  34.0442967  66.3173723  94.1783237  32.7230406
  52.9213476  24.3472338  19.7234225  52.9225302  25.1589441  19.2161167
  53.8257456  24.0366602  19.6805203 108.1071562  37.7824998   0.8835185
 108.2458538  38.3610654   1.6333545 107.3909944  38.1896424   0.3960956
  80.6971741  23.5887313  64.2572498  80.1920795  23.2181764  64.9809933
  80.2263737  23.3130336  63.4707594  11.7059338  27.3189139  54.9520779
  11.9958842  28.2266903  54.8620605  12.3066616  26.9379997  55.5925941
  46.0385182 109.3953616  34.2864275  45.8746770 110.3253583  34.1299176
  46.2532666 109.0414336  33.4233785  94.1034031  30.5778575  62.2786093
  93.9136124  30.3036499  61.3813782  93.5379028  30.0286674  62.8215933
  82.3412228  32.1747923  32.0011902  81.9328308  32.8463078  31.4548278
  82.7103138  31.5499878  31.3769889  39.0888000  90.1291370  51.9033575
  38.5539913  90.8909225  51.6799641  38.7131453  89.8044395  52.7217007
   2.9480371  12.7304220  84.3140030   3.6210853  13.3811927  84.5133400
   2.1704435  13.2470715  84.1026878  90.1980877  38.8375139  34.3962407
  89.3171406  39.0319133  34.0762854  90.4104710  39.5708609  34.9735856
  80.3332138  16.9310975  27.0605516  81.1330509  16.6580951  27.5099587
  79.6429443  16.8265092  27.7153897  86.3369656  24.9903893  76.3151312
  86.1816311  25.5492210  77.0765829  86.0107422  25.5000401  75.5734634
  95.2208710   3.0047071  47.5706148  95.4789829   2.6106077  48.4038591
  95.9838676   2.8889257  47.0043564  92.3206739 109.5166625  56.3041830
  93.1805317 109.7227397  56.6708040  91.7392628 109.4790040  57.0636415
  96.2816238  20.8735228  69.8310280  96.1880398  20.4647160  70.6914663
  96.9691277  21.5287042  69.9506378 111.7286015  32.3724580  76.2001514
 111.1229038  33.0936813  76.3710308 111.9865704  32.0653057  77.0692587
  44.8530674  43.0725479  90.8693695  45.6480074  43.6051035  90.8431721
  44.7112942  42.8089476  89.9601650  25.4710460  68.0767965  88.3546925
  25.7803941  67.1749210  88.2701111  25.0320721  68.1006861  89.2049694
 107.9773712   3.4648597  56.5446186 107.0873928   3.3692387  56.2054682
 108.5019779   2.8664860  56.0126686   5.3360260  11.5001810  36.1085534
   4.6702361  11.9168544  35.5614328   6.1007607  12.0706785  36.0314560
 105.1556110  52.4923897  66.0620165 105.1710033  52.5790930  65.1088762
 104.4305992  51.8921947  66.2362432  77.6448250  53.6849737  55.9942198
  77.7728510  54.0172100  55.1057053  77.8518677  54.4286633  56.5601635
  80.8416843  25.0980687  34.1990590  81.0768032  25.3315043  35.0970912
  80.5490017  25.9205866  33.8065886  23.9650893 100.6120872  53.0330944
  23.1234527 100.2606106  53.3235216  24.1112423 100.2077293  52.1778965
 107.4687290  11.8222904  77.9455328 108.0088615  11.3949966  78.6102915
 107.0768452  12.5687146  78.3988571  86.5459156  12.6374018  19.0529871
  87.4408627  12.2995543  19.0869999  86.4601898  13.1686127  19.8446298
  80.2192783  73.0906773  29.6781826  80.6862640  73.2298613  28.8542962
  79.6972799  73.8845110  29.7946835  77.7139997  35.6472993  43.9351225
  78.4029484  36.1443543  43.4940815  77.0298958  35.5469251  43.2731867
  90.7943058  59.9014759   1.1831082  91.2994003  60.7134295   1.2260382
  90.6815434  59.7387791   0.2466004   6.8847901   5.8929694  39.0607715
   7.0072913   6.4133179  38.2667542   6.6349989   6.5310460  39.7291231
 115.4001427  53.6738157  40.6804085 114.4827843  53.4564590  40.8460331
 115.3802681  54.5815420  40.3773212  34.5486784  41.4002132  61.7232275
  34.6153665  42.3420429  61.8805265  35.1400924  41.2376499  60.9883595
  18.2672024  54.4383049  33.6890054  17.4336863  54.0073156  33.8780236
  18.1840551  54.7333622  32.7822185 107.7457809  21.2239909  39.3859220
 108.0288315  20.4944110  38.8347149 107.3936081  21.8667531  38.7702441
 110.6674576  24.0889668   3.1810060 111.3823891  23.5134578   2.9091588
 110.2266121  24.3251920   2.3648684 112.5532913  13.4021866   4.1891006
 111.8514633  14.0375841   4.3303099 112.4752426  13.1602526   3.2662740
  89.4919395  40.7044029  44.5935822  90.4131126  40.5145359  44.7713900
  89.2037582  39.9861860  44.0302467 107.7754593  38.2130766  12.6261115
 107.5987530  39.0246534  13.1018722 107.2976971  38.3095050  11.8022907
  89.8272610  10.4054725  65.8927202  89.0349293   9.9973452  66.2418365
  89.8661137  11.2597108  66.3228321   1.6378632  75.2257538  48.8453960
   1.5384255  75.3915071  47.9079199   2.3419371  74.5796728  48.9010334
  28.0257463  12.9363430  16.0126841  28.0883288  13.8286150  15.6718516
  27.1330643  12.8716409  16.3520408   9.8304546  33.3717895  54.0959978
   9.7310138  32.4264979  53.9830112  10.7574093  33.5373640  53.9240265
  65.3024483  17.6138997  44.3383741  65.1314878  18.4899557  43.9926434
  65.4830551  17.0816696  43.5635567 105.5660057  46.3847876  33.5585904
 105.8761120  45.4825258  33.4811950 106.2285233  46.9055319  33.1045699
   4.7671527  80.1059246  40.2201128   4.5075196  80.9361744  40.6194973
   5.3742284  79.7168064  40.8496237 101.6499329  21.0934925  20.4201365
 100.7369328  21.2958574  20.6243420 101.8245506  21.5683627  19.6075857
  83.6602879  51.7875242  55.4881430  83.0298996  51.7191362  54.7710943
  83.6742115  52.7193165  55.7067680  95.4118443  37.3894835  29.5984745
  95.5455494  36.6881895  30.2360821  95.3686142  38.1873417  30.1255250
   7.8264028  35.8901429  54.3871355   7.3998588  35.7383657  53.5437727
   7.9953319  35.0131059  54.7313738  39.4315815  28.9831686   5.2424699
  38.5398436  29.3303394   5.2199572  39.9910474  29.7598481   5.2427316
  82.4524784  58.6851311  32.5286627  82.1754456  59.2457390  33.2533693
  82.2440338  59.1896296  31.7423677  88.3458233  67.3126698  47.8118610
  88.5990334  67.1295166  46.9071102  88.2832527  66.4502144  48.2223320
  17.7997243   6.2518269  22.8154969  18.1154120   5.7331443  23.5554576
  18.3403027   5.9700412  22.0775223  33.9773870  13.6730194   6.7217869
  33.9039969  12.8559172   7.2149295  34.9097848  13.8875222   6.7510682
  10.1217544  13.3221126  17.6108193  10.9688973  13.6570632  17.9047394
  10.3326273  12.5126517  17.1454847   6.7591733  49.4350195  44.3930006
   6.3718569  49.5827293  45.2557850   7.5520229  49.9713182  44.3913841
 101.1924648  12.5515509  64.4734430 100.8963585  13.0591297  63.7178516
 100.4502392  11.9865572  64.6881866  23.2816982  63.5466623   6.8336380
  23.7632060  62.8675699   7.3060918  23.0060172  63.1232023   6.0206735
  93.0423546  55.4934454  58.8092375  92.6549530  55.3273201  57.9498529
  92.5119877  54.9759293  59.4151402 104.6942329  62.3910475  93.7560940
 104.7720146  62.8664112  92.9289246 104.0262604  61.7262745  93.5884094
 110.8761787  32.0556355  20.9930301 110.4210281  31.5121150  21.6361880
 110.1899815  32.3347998  20.3868723  92.3017120  70.2795267  50.9109735
  91.4224911  70.2540064  50.5334139  92.8294468  69.7358894  50.3260040
   2.3400857  21.7566586  46.7210340   1.5191472  22.0657659  46.3379622
   2.2041030  21.8249846  47.6660585  31.6253996  59.8019886  35.7070088
  30.7265949  59.6812534  35.4007387  31.7415261  60.7515287  35.7404566
  18.8468385  61.7637348  60.7839012  18.3151925  62.2711468  61.3971853
  18.3659685  60.9437323  60.6716633   2.5009993  55.0368977  51.2545586
   1.9462535  55.3842449  50.5561066   2.1280888  55.3982306  52.0586777
  12.9494834   3.6427742  39.9104404  12.2033072   4.2400989  39.8589039
  12.8380787   3.0553040  39.1629791 112.3650455  49.0733671  44.0121269
 112.9191685  48.4448767  44.4749212 112.8808594  49.3300819  43.2477617
  18.8144350  57.4973440  43.1685448  18.7413418  56.8708849  42.4485207
  18.6329556  58.3467674  42.7663326 105.9827614  44.4003963  58.9897919
 106.2845039  45.2831459  59.2041159 105.2968216  44.2191505  59.6323395
  77.1497154  47.6633072  19.8962879  77.4815130  48.0785847  19.1002452
  76.2304115  47.4780560  19.7044694 114.5482349  18.1375587   5.7620412
 113.8150120  18.5327864   5.2904469 114.9747276  17.5761759   5.1145971
  56.8898869  59.9402857  94.1370678  57.4906111  60.2596855  93.4637547
  56.0933113  60.4559755  94.0114975 115.8876514  14.3307328  89.2012215
 115.9241199  15.2805352  89.0881920 116.6396523  14.0018713  88.7087059
   0.7722049  59.7369957  72.8557968   0.4662815  59.1886139  72.1333551
  -0.0285734  60.0849581  73.2481050  13.3338201  61.0473061  37.2808981
  12.5468838  61.2691307  36.7831469  13.3402181  61.6692019  38.0085230
  27.0111370  15.9268963  34.5180726  26.8339229  15.0204062  34.7692752
  27.9177547  15.9175181  34.2111683  96.1309433   6.8006611  82.9582977
  95.8846378   6.1493099  82.3015594  96.5405083   6.2920880  83.6581898
  97.4170685  36.3965106  54.2033339  97.1668434  37.3159790  54.2938662
  98.1912613  36.3032031  54.7584438  58.4430075  11.5039098  50.6076097
  59.0317392  11.5675008  49.8555565  58.7331724  10.7195771  51.0732841
  22.4910378  45.0181246  42.7669859  21.8924880  45.1419544  43.5036230
  21.9221210  44.7896147  42.0319033  33.1704569  43.9981461  66.5527439
  32.6307631  43.6329079  67.2538567  32.6958847  43.7848186  65.7493114
  23.3277559  30.5433512  30.1315355  24.1779947  30.1478887  29.9393463
  23.1546164  30.3078628  31.0430169  71.9104242  48.4307480  43.6836672
  71.0757065  48.7102985  44.0596008  71.6958570  47.6440096  43.1824350
 103.9026451  25.4951549  29.7309470 103.9994812  26.0475230  30.5066681
 104.2431355  26.0287690  29.0129256  93.3943176  67.9972744  41.1848593
  94.2008877  68.3630228  40.8216763  92.9963684  68.7239933  41.6641855
  17.0721650  41.9705772   8.0145317  16.5939200  42.4754286   7.3567760
  17.9854143  42.2339582   7.9012245  18.2501411  33.5901308  63.7502766
  19.0068960  33.4442663  63.1825781  17.5868225  33.9679861  63.1728077
  92.3910999  58.6674356  29.4981146  93.1647491  58.1037903  29.5011353
  92.2054958  58.8243914  30.4239368  15.7735407  26.9846582  14.5018554
  14.8883295  27.1032882  14.1575289  16.3451052  27.3370838  13.8196933
 110.6323814  24.3159413  44.7582579 110.4865551  24.7252107  43.9053440
 110.9716892  25.0222731  45.3079796  36.9169784  15.1508796  68.9116049
  37.2152424  14.3707049  68.4440613  35.9828496  15.0006402  69.0567350
 103.5836506  27.9390764  53.2412291 103.4754562  28.8900065  53.2250929
 104.5206356  27.8070426  53.3856535  89.4762802  93.3490086  57.6429605
  90.3115368  93.0855656  57.2567320  89.2957497  92.6794910  58.3028030
 111.9365788  42.0962954  60.5790091 111.7177773  42.5488234  61.3936138
 111.7922497  42.7505398  59.8953629  11.4700794  22.1810508  65.3140402
  11.3815653  21.2318921  65.2274466  10.5752385  22.4939394  65.4466772
  49.0730381  94.9872398  38.1834531  49.9977350  95.1495552  37.9968476
  48.8317776  94.2722225  37.5945783  91.3389492  44.5639467  43.4927273
  91.7152882  44.2678118  42.6639271  91.7646313  45.4043341  43.6623573
  96.8066216  11.1388838  62.7633333  95.8917046  11.1831665  62.4854755
  96.8027973  10.5331504  63.5044861  16.0881817  67.1140480  54.2247391
  15.2614915  67.5897074  54.1437197  15.8343720  66.1911154  54.2257261
 108.2081318  45.5783033  40.5138731 109.0046406  45.8052540  40.9937572
 107.6103401  45.2480316  41.1845446   6.5487039  37.8304768  78.1665802
   5.6815630  38.0809188  78.4852934   7.1121693  37.8836250  78.9385366
  22.9865742   9.0662199  76.4631891  22.6862574   9.9435693  76.7004633
  23.6690593   9.2154884  75.8088446  95.6761074  44.8484135  43.1728172
  96.2389660  44.4110250  42.5339794  95.5268764  44.1897631  43.8511562
  74.0739632   3.0557850  26.7386150  74.6815968   2.3277417  26.6083598
  74.0673113   3.1957236  27.6855063  85.8005810 109.3430805  38.7620354
  86.3409901 110.0510788  38.4114289  85.6752586 109.5710850  39.6831965
 110.6789875  26.3132310  47.3934317 111.4901066  25.8947968  47.6819229
 109.9840355  25.7618237  47.7529049 105.4620743  36.0072851  42.9502296
 105.0732803  35.1432395  42.8142405 106.3951588  35.8797097  42.7789879
  68.3857775  63.4939957  44.4284630  68.6858225  64.3534708  44.7242737
  67.4306822  63.5511875  44.4560337 109.2527676  42.5246763  42.5434351
 109.7107410  41.7277241  42.2763014 109.8687458  42.9717636  43.1238794
  98.4284496  84.5310974  73.8596678  98.0405331  83.7650108  73.4367561
  99.2830372  84.2282200  74.1665602  12.4070394  42.4767303  41.8033361
  12.7174747  42.0463181  42.5999594  13.0067956  43.2123470  41.6792822
  11.2402070  18.0132592  29.1254449  10.4743552  18.3477533  29.5921516
  11.8061054  18.7773514  29.0152001  27.1250772  54.0499210  13.8638508
  27.2441602  54.3759108  12.9717851  28.0117536  53.8577795  14.1689992
 109.6662235  74.1707134  70.0276899 109.0848732  73.4886169  70.3638411
 110.4566765  73.7015343  69.7606850 113.4242153  36.6198158  37.5365567
 113.9112949  35.8405018  37.2688723 113.5412216  37.2356153  36.8131399
 106.2336063  17.4363136  74.3426371 107.0637703  17.5312126  74.8095942
 105.8031082  18.2851505  74.4445133 105.4782677  41.8426085  88.6604977
 105.1669884  41.3500547  89.4199181 104.7811604  42.4738836  88.4823036
  92.0012760  14.3127704  56.4584732  92.8922367  14.4088721  56.7949009
  91.5018177  14.9968946  56.9042873  11.2707055  14.0549636  46.6636658
  11.7754805  13.2417059  46.6569281  11.4360237  14.4465840  45.8060312
  78.3006001  42.1330833  36.2907553  78.3002234  41.2330389  35.9649396
  78.9098263  42.5958061  35.7154632  13.5751772  45.2429152  77.2021246
  13.0625856  45.6776428  77.8836632  12.9715216  44.6077824  76.8168545
 108.2552433  35.4092073  43.8646507 108.9600182  34.8578858  43.5247040
 108.4018803  35.4293776  44.8103380   0.2415057   9.9534696  23.7722898
   0.9432449  10.5919898  23.8991237   0.2832411   9.3944353  24.5481586
 114.5814800  68.1277037  17.7710736 114.9178600  67.8700495  18.6293852
 114.0067101  68.8713264  17.9524446  18.2603467  39.3615890  39.0765905
  18.7555134  39.9855566  38.5458279  17.3440254  39.5953965  38.9285326
  92.7780533  49.2881680  58.8455343  93.0901527  50.0303364  58.3278322
  92.3209667  49.6877050  59.5855856 114.3552685  13.5872138  33.8650346
 114.4574165  14.5311654  33.7435794 113.4795284  13.3959115  33.5293245
   0.1372136  48.6457920  64.0787315  -0.6232213  49.0609789  64.4856596
   0.8893749  49.1049576  64.4524336   9.0457934  31.1974812  50.4268503
   8.6251903  30.4193735  50.7927370   9.7653079  30.8540964  49.8971176
 111.8054962  31.4819407  32.6573801 112.4738216  31.3702130  33.3334708
 111.5622616  30.5894804  32.4112439  28.6539817  53.8860321  23.0223060
  27.9486632  54.1429186  23.6162472  28.9309359  53.0256319  23.3373308
  94.5872116   4.0218508  50.1560783  95.3040695   4.2683992  49.5716429
  94.9780369   4.0268424  51.0298395 108.9464474  27.5884461  83.0621529
 108.5770702  27.6275158  82.1799564 108.4352589  28.2231736  83.5641766
  86.2489796  57.6965714  40.7734585  86.8132496  58.2338381  40.2174187
  85.3608513  57.9852486  40.5634165   9.1112483  43.2031679  39.2859125
   9.4547343  42.9797173  38.4208584   9.6508873  43.9389420  39.5751524
 111.1489773  67.4247408  47.2740602 111.1809349  67.1958303  48.2029343
 112.0354462  67.7227974  47.0701981   4.2679384  31.5616584  37.5082278
   4.8999596  31.7111874  36.8050766   3.5409504  31.1059380  37.0839190
  28.3609056  51.9858837  29.8519373  28.8227534  51.4725828  30.5148506
  28.8543034  52.8042126  29.7959876 110.3260231  33.8488269  38.6311913
 110.7746506  34.6319532  38.9500713 110.8829308  33.5254002  37.9230356
  16.3515389  36.3368034  44.4990540  15.7723200  36.5602565  43.7704897
  16.7410922  37.1713090  44.7599745  97.1190071  68.1335211  60.6617785
  97.6040649  68.9155388  60.9252310  96.2187862  68.3057547  60.9377623
 101.9433784  22.0392656  25.3793216 101.1286163  22.5233674  25.2449775
 102.3418999  21.9952083  24.5101428 113.7940598  37.6520157  60.2392292
 114.4768143  37.2313261  59.7166443 114.2444324  37.9429102  61.0321808
 104.9681664  36.4708591  45.7697010 105.0984383  36.6617560  44.8408222
 104.7569942  35.5375886  45.7951021  21.0721564  54.6846485  53.3555937
  20.4553890  55.4164886  53.3712196  20.5978370  53.9628363  53.7681913
  13.4352565  18.3740377  35.5783606  14.2720282  17.9925501  35.3128219
  13.6332738  18.8465440  36.3869143  55.6890535  97.1424675  33.2018876
  55.5702066  96.6225815  32.4070120  55.3347969  96.5941238  33.9019227
  19.5189607  16.3476503  55.2968788  19.1179812  15.9581697  54.5198679
  18.9664006  17.1027887  55.4985666  84.4349384  38.5025358  29.1914821
  84.6299744  38.2354641  28.2932258  84.5457172  39.4532967  29.1880822
   1.5944651  48.4452486  88.4863663   1.5462762  48.2646227  89.4251347
   1.0286655  49.2068577  88.3596516 100.0975037  37.9683232  53.1514788
 100.8576775  38.4969378  52.9087257  99.4523716  38.6043119  53.4605980
  83.0177498  87.4560833  51.7909002  82.1407986  87.4468613  52.1744394
  82.8942776  87.1211052  50.9027719   8.9250457  18.8501287  37.6943016
   9.1163880  18.5194230  38.5719419   7.9697216  18.8360941  37.6360679
  97.0606899  57.5360298  69.8799086  96.1438274  57.6673746  70.1214504
  97.5248051  57.4928474  70.7159472 105.4120731  18.8812625  53.1867313
 106.1768055  19.2161775  52.7184916 105.1902771  18.0683374  52.7326536
  80.4742050  29.5757675  54.1519547  80.8555698  28.8144231  54.5891619
  79.5330477  29.4939899  54.3061256 112.1776199  19.0513182  46.4597797
 112.0663261  19.9412739  46.1253834 113.0759048  18.8180125  46.2254953
  78.9567423  67.3709106  44.0166092  78.9855480  66.7959785  44.7813654
  79.3165874  66.8412828  43.3051014  87.9038429  43.7269402  46.8025303
  88.8338375  43.9076328  46.6658211  87.5199127  44.5817900  46.9976187
  97.9269505   4.1959617  41.7019558  97.0619583   4.0008712  41.3414526
  97.7468586   4.6096137  42.5461674  17.9160810   6.2825531  29.7906518
  17.6139569   5.4004544  29.5741940  17.1343279   6.7311198  30.1129603
 100.8969593  39.1217589  60.7730341 101.1527538  38.5037971  61.4578152
  99.9713993  38.9352179  60.6156397  85.0709915  39.4039774  11.5427828
  84.3885803  39.0669632  10.9622931  85.8005905  39.6121359  10.9591782
  84.1288471  46.3951731  10.7734549  84.4969559  47.0203686  10.1490653
  84.4353676  45.5417871  10.4668570  17.0946753  41.5932322  45.5056047
  17.7857435  40.9666920  45.7203197  16.3689566  41.0520983  45.1945782
   9.7423577 104.8176575  26.5333414   9.7156948 103.9432430  26.1448479
   9.8744929 105.4060745  25.7900119  72.0262480  43.5644865  48.3231449
  72.6530552  43.8314915  48.9954948  71.8147802  44.3738413  47.8578949
 112.8149414  27.6826143  59.1467047 113.2714558  28.4885240  59.3882179
 111.8903828  27.9292321  59.1221333  59.7037649  78.8642693  55.0493479
  60.5210400  79.1133308  54.6177626  59.8179865  77.9380894  55.2623606
  21.0917592  37.1257281  71.9264269  20.7556915  36.7705989  71.1035204
  20.4265404  36.8967748  72.5754976  72.7830267   7.3995030  72.1669006
  73.2766342   7.5860494  72.9655123  71.8972731   7.2044122  72.4728680
  62.3335648  89.7481537  82.5782013  62.3674297  89.4470501  83.4861755
  61.3992929  89.7882462  82.3738384  23.5903454  86.1284637  92.9496861
  23.9841032  85.5031013  92.3413181  24.3219447  86.6730213  93.2402802
  98.7068462  36.1239457  40.7727528  98.4001160  36.8551445  41.3089418
  98.7644768  35.3878689  41.3819313 112.4427986  43.6655760  62.8453684
 112.8688526  44.5188236  62.9270363 111.5064716  43.8608456  62.8827333
  79.4592428  36.8356037  40.2251244  79.5242882  35.9165215  40.4845285
  79.1180754  37.2799611  41.0012579  62.7812481  90.0465679  66.2298918
  62.5464869  89.3663979  65.5986261  63.0365324  89.5651436  67.0168447
 114.5062065  48.1234741  76.3078165 113.8691235  47.6381016  76.8320084
 114.3208218  47.8643322  75.4052019  83.9566040  52.9656935  31.4084172
  83.3454609  53.5895634  31.8002439  84.0035629  52.2477198  32.0397210
 111.4433861  10.6354654  24.1103935 111.7411709  10.9689689  24.9567556
 110.7645512   9.9972975  24.3298244   3.9155927  53.0959988  34.6129632
   3.7125915  52.6813936  35.4514885   3.0926913  53.5025692  34.3413615
   9.0289569  50.3184319  41.1544037   9.8670632  50.7470083  41.3279819
   8.4294140  50.6950378  41.7985678 106.4545250  42.9289484  22.3186564
 106.2439060  43.8429594  22.1277308 106.9550323  42.9637337  23.1338334
  96.6386127  42.2423220  45.0836420  96.0769367  42.2038031  45.8577681
  97.3798943  41.6756058  45.2971315  63.9132118  47.8334618  28.3079433
  64.0694046  47.8984880  29.2500710  63.5838223  46.9437885  28.1806111
  21.2183332  17.9049981  25.0601101  21.4174199  18.8322139  24.9302387
  20.6513524  17.6763165  24.3235850  97.4983501  22.1789718  38.5545015
  96.7859268  21.7395782  38.0901551  97.5345898  23.0528855  38.1656671
 110.6087303  14.3335378  58.4916782 111.1801529  13.6637175  58.8672447
 110.0723743  14.6304309  59.2267990  77.0617676  14.4679964  41.2253380
  76.2409401  14.0354335  41.4606237  77.1388435  14.3376434  40.2801895
  84.4845581  31.4802742  38.1919241  84.6179199  30.6146240  38.5780525
  83.5403347  31.6259098  38.2507896 109.7651672  44.7470570  74.0313244
 109.9140835  44.1875219  74.7935438 109.9388885  44.1797686  73.2801676
  33.7743950  24.1198516  46.7032957  34.2521048  23.8283205  47.4798489
  33.7325525  23.3449697  46.1429024  14.9620521  53.4359407  38.4167767
  15.3163719  53.9798355  37.7133083  15.5240560  52.6611614  38.4267139
 107.0289230  76.5610313  30.0220156 106.3588333  77.1967411  30.2731705
 107.3573875  76.2182522  30.8531857  94.8839378  29.7292352  57.0305681
  95.1605511  29.0062761  56.4674950  94.5671463  30.3980112  56.4234304
   5.6320912  55.8970690  36.4383984   6.3922763  55.3556585  36.2257361
   5.0480205  55.3112698  36.9199920 107.0958233  86.5365601  88.1236172
 107.5282764  87.1383572  88.7294769 106.1977577  86.8621540  88.0628204
  78.3459234  42.4965906  19.4298136  78.1043386  43.3464718  19.7980177
  77.7202559  42.3569441  18.7189901  12.4187613  48.0000448  29.1045690
  11.9727778  48.8450098  29.0465355  13.0007362  47.9837084  28.3447862
   6.7119694   9.3526000  64.6257639   6.8700337   8.4184033  64.4896603
   7.3990202   9.7877973  64.1209888  95.0547618   1.4061474   0.2782787
  94.7522873   0.5628991  -0.0588738  94.2672259   1.9495272   0.3057540
 102.9190540  31.6154051  53.4890413 103.7910652  31.4453459  53.1328106
 102.7837276  32.5532651  53.3536291  15.4237640  24.9842429  54.5955849
  15.0028324  25.7413435  55.0028276  16.2851071  24.9371672  55.0104380
  99.8625660  48.6175394  55.0896883 100.2861309  49.4115591  55.4158163
 100.4930687  47.9195547  55.2672100  11.7076206  32.1711040  65.3671932
  11.9837809  31.2563539  65.4237366  11.5341616  32.4253893  66.2735510
 115.3680325   0.1975397  27.5466323 114.5891857   0.4178083  27.0356441
 115.3694534   0.8295061  28.2655549   4.5745829  56.8969440  70.5511999
   4.0550956  56.6342497  71.3110399   5.1079708  56.1284208  70.3484535
  91.2690163  23.0968070   3.4519619  91.1929798  24.0149522   3.7116924
  91.1856747  22.6085067   4.2710152 113.1322956  21.8115401  37.8052831
 113.8937283  21.2314916  37.8040195 112.4115467  21.2613297  37.4986434
  94.7678185  13.2364476  64.7913980  94.3849754  12.6550925  64.1343689
  94.5230579  12.8445649  65.6297016  90.1358700  12.0385993  57.3060131
  90.8833504  12.5738108  57.0394516  90.3343678  11.7814589  58.2064056
   6.9178045  65.0375700  19.5441711   7.3329157  64.1932106  19.3681884
   6.7064536  65.0106859  20.4773593   0.4851685  40.2147341  40.5879450
  -0.1162001  39.4720554  40.5330324  -0.0542994  40.9363556  40.9111643
  91.6856194  29.9454904  74.3664408  91.0461426  30.4346967  74.8841000
  91.9293594  29.2061353  74.9233770 100.9783077  51.3386440  28.1499672
 100.0344467  51.4900875  28.1006241 101.2013054  50.9404850  27.3085546
  24.1610003  39.5066762  42.0544147  23.9544535  40.3555775  41.6633511
  25.0027966  39.2638230  41.6688871 109.7405815  32.0972204  44.7215939
 109.9023819  32.9804754  45.0531292 110.4679394  31.9293046  44.1224480
  79.7946453   1.4139527  27.8285694  79.0871286   2.0549957  27.7598810
  79.4332170   0.7159421  28.3748150  96.0545349  59.9110270  35.3418374
  95.3359222  59.8862410  35.9736681  95.6262589  60.0515079  34.4973969
  66.1883259  32.5359869  57.0250607  65.4395580  31.9471669  57.1192217
  66.6342020  32.4936223  57.8710127  88.2300949  47.4426460  37.6073623
  88.7427330  47.7337790  36.8532610  88.8133621  46.8472433  38.0780268
  14.0448332  37.6656127  36.8499446  14.8284376  37.1197653  36.9151068
  14.2485332  38.2955170  36.1585999 100.1967430  49.0938282  58.1840801
  99.3461990  49.5327425  58.1710672 100.2038097  48.6096716  59.0097761
  10.5018175  48.7290144  13.4649217  11.4565039  48.7024736  13.4008789
  10.3153694  49.5465517  13.9265478  76.5960646  32.4536872  39.8773050
  77.2654772  33.1322169  39.9651647  76.3512230  32.2407556  40.7778311
  94.6780396  69.4354153  17.2560048  95.0976276  69.5345783  16.4014018
  95.4032516  69.4389582  17.8807390   0.5621825  57.7142239  44.1804838
   0.4750219  56.7945385  44.4311094  -0.3020976  58.0906487  44.3464804
  36.1671090  40.9898710  59.4135237  35.7289147  41.8061686  59.1729546
  36.4657354  40.6239557  58.5809612  26.7878222  55.7373142  48.9101219
  27.3845267  55.3038931  49.5203066  26.9309187  56.6720676  49.0584326
 108.5518551  38.7495375  82.9316807 108.1357002  38.4380913  83.7354565
 108.5434437  39.7033501  83.0116844   0.2734719  26.6464996  34.5981908
   0.4139958  25.7181716  34.4119334  -0.0727405  27.0050192  33.7809801
  78.3464384  44.4890070  29.8834562  79.0703249  43.9098597  29.6451116
  78.6490631  45.3636456  29.6392107   3.9845589  68.5266829  65.0843239
   4.0636179  69.1751623  65.7839394   4.2395777  68.9978361  64.2910957
  54.7842646 107.4339390  61.1356544  55.1218128 108.2388020  61.5287113
  55.1551056 106.7322445  61.6707563  92.7857876  78.3375883  33.4917498
  92.5685120  79.0058184  32.8417635  93.6059856  77.9563856  33.1783819
  43.3444071  87.0920372  67.2603846  44.1102171  86.5420723  67.4256325
  42.6083660  86.5884590  67.6080608  86.0322857 107.2198009  79.3696499
  85.4020500 107.8927803  79.6268082  86.0954380 106.6464043  80.1334953
   5.8447087  51.2804985  53.6991739   4.9040115  51.3318682  53.8685322
   5.9126312  50.8214474  52.8619814  19.1870070  59.5073080  72.4294996
  20.0161195  59.5750761  71.9559860  18.7771809  60.3652334  72.3188496
 109.7965431  57.7937269  24.0992641 109.7101116  58.6302233  24.5564699
 110.0929165  58.0306053  23.2204676  67.6789904  42.2540903  15.3826535
  67.4070120  43.1041670  15.7285213  67.2120523  42.1733809  14.5509779
 113.1507778  40.6969786  26.1768794 112.5015545  39.9962091  26.2373400
 112.7043724  41.4679193  26.5270257  88.1360340  76.0594416  21.6936851
  88.6715889  76.8468094  21.7909646  87.8979301  76.0447502  20.7666898
 109.6705341  23.6614990  47.4705935 110.0908279  23.5692239  48.3256245
 110.3636742  23.4646153  46.8405008  91.3303280  86.8159008  58.9462519
  90.5748463  86.2559223  59.1248274  90.9532261  87.6208401  58.5911560
   7.6392949  70.5686378  45.5747747   7.7706480  70.5550194  44.6267271
   6.7770886  70.9676743  45.6914091  97.6539040  66.9106245  70.7148600
  96.9238186  67.5183010  70.5967855  97.3484802  66.2960625  71.3821363
 104.7960472  21.6345668  10.6292391 105.0005722  22.4580026  10.1861191
 105.5633831  21.0832000  10.4762089   9.6410400  77.4269390  40.2030849
   8.8144559  77.8362036  39.9471736   9.4491464  76.4893103  40.2192545
   6.9419038  87.2963810  23.9801764   7.4808288  88.0053711  24.3310714
   6.7129195  87.5844193  23.0965281  22.1169496  64.9468040  44.9172258
  21.5739298  64.4800663  44.2819929  22.3424673  65.7686901  44.4814730
 113.4984303  24.9354291  33.1494379 112.8846741  25.4580116  32.6332545
 114.1428375  24.6251750  32.5132656  21.9180131  59.8106527  27.1320868
  21.3652134  60.4591846  27.5680327  21.9017982  60.0637627  26.2090993
  66.8492699  39.3821239  25.5549383  67.3985243  38.8345933  24.9939013
  66.2430286  38.7681103  25.9692979  76.6184616  41.4386463  31.1021614
  77.4615955  41.0369492  30.8924127  76.2226391  40.8452702  31.7404890
  98.8916779  82.3171425  36.4369631  98.8500309  83.1099415  36.9717264
  98.8626671  81.5995693  37.0698023   5.7449037  82.6070881  76.7432165
   5.2264267  82.9573631  76.0188437   6.5899324  83.0505943  76.6693401
   7.1890306  49.0184641  72.9325008   7.0170254  49.5864534  73.6835241
   7.7590805  48.3312654  73.2775164 115.2290440  20.6284475  29.6643949
 116.1040211  20.3002024  29.4572735 115.1386642  21.4203954  29.1344070
  83.9130688  59.3317747  25.8422041  84.4471836  59.1500425  25.0689483
  84.4529247  59.9163818  26.3741970 115.9743786  41.8048143  36.9330168
 116.5713310  42.5227070  37.1439910 116.5381050  41.1254263  36.5630531
  83.0271626  72.8887606   4.2758033  83.3630657  72.0534801   4.6009219
  83.4790230  73.5493231   4.8008871   2.8705472  42.2013140  63.1309080
   2.5400293  42.6846313  62.3736811   2.6361138  42.7450085  63.8830185
  13.4080887  72.8680801  73.7836695  13.4726715  73.6125803  74.3818140
  12.4772251  72.8148699  73.5671234 110.3216171  55.9483433  89.7809792
 111.2467194  56.1556911  89.6489716 109.8558521  56.5528679  89.2031860
  88.3981609  52.2058964  42.7752161  87.5341797  51.8009281  42.6993084
  88.2196236  53.1454563  42.8150368  11.7213452  42.4930286  80.0592899
  11.2999225  43.2355118  80.4921341  11.9098985  42.8068542  79.1748714
  11.8600142  43.5567331  31.0771561  11.0421085  43.1201172  31.3151264
  11.5951812  44.4422388  30.8281970  95.8318901  53.9675903  37.6110744
  96.0497284  53.5618448  36.7719412  95.1404381  53.4132671  37.9728127
 112.3581028  51.1313009  79.1346216 112.0329189  51.5930462  78.3617878
 113.1545925  50.6933880  78.8344955 108.7859344  45.7065153  25.9391737
 108.5864925  46.0488605  26.8105268 109.0611172  46.4739037  25.4375553
 112.8644848  15.9789097  51.8339014 113.2732773  15.7270694  52.6619673
 112.8966618  15.1852441  51.2997723  34.4826698  28.2165432  19.6498024
  35.0358653  28.3829975  20.4130197  33.6071181  28.4887457  19.9246657
  90.1169491  84.9587727  17.7537251  90.2638149  84.9628830  18.6995816
  89.1671753  84.8864841  17.6591325   8.4768838  32.4854517  32.5097132
   8.1553674  33.3265400  32.8344131   9.4093847  32.6309800  32.3500371
 106.8719387  92.2431087  13.3599091 106.5282249  93.1326580  13.4423459
 106.4784813  91.7656612  14.0903044   5.6750572  45.3215456  51.5360737
   4.8209667  45.7014322  51.3300514   5.5981541  44.4037533  51.2753534
   3.1467080  74.1469383  52.8491545   2.9252422  74.8482513  52.2364998
   2.3009062  73.7921906  53.1230259  16.9953823  30.2264261  18.3313823
  16.8522751  31.0382938  17.8449416  16.5952587  29.5477724  17.7877283
  86.7957783  75.2860260   2.7788225  87.5726700  75.8319950   2.8996181
  86.8954182  74.5824385   3.4201244  93.6845112  18.7945378  79.3937159
  93.8129807  18.0749941  80.0117588  92.7340031  18.8828015  79.3231106
  99.3501949  59.8295450  66.6039038  99.3179131  59.9547386  67.5523329
  98.7267208  59.1233540  66.4341784  95.7241726  53.4090424  90.0989342
  95.8144665  52.5835848  90.5750656  94.7813320  53.5732222  90.0808620
 103.7360382  56.2831736  45.8761597 103.3493710  55.7882738  46.5985155
 104.4336319  56.7964077  46.2838221  95.8743572  44.7353125  61.1052179
  96.1090851  44.7322226  60.1772451  96.5599155  45.2557993  61.5239477
  20.0443387  41.5164328  42.0666456  20.0026131  40.5806255  41.8697596
  20.8810759  41.8013859  41.6993523  65.2195740  74.3467188  53.2968044
  65.6073523  75.0300694  53.8435173  65.9401131  73.7408495  53.1236744
   8.5610330  48.5490417  50.6311369   8.6958677  47.6137161  50.4787779
   9.2837071  48.9736366  50.1688671  87.3585415  14.0052855  16.2901056
  86.5136909  13.9900029  15.8404112  87.1540070  14.3111026  17.1737778
  91.3069916  44.5263720  29.2778826  90.7093143  44.8637819  28.6106777
  91.4238167  43.6039734  29.0503788  96.4029503   7.8832000  74.2131805
  96.4582920   8.3164579  75.0649214  96.1757278   6.9766355  74.4199276
 112.5352001  57.5711584  45.6598234 113.2529736  58.0589533  45.2559710
 112.7146053  56.6565752  45.4416943 105.1119423  38.2985520  88.5045052
 105.7284451  38.8628268  88.0378628 105.1179409  38.6286950  89.4029522
  67.7507973  69.9687243  46.4246035  68.0385733  70.8459330  46.1717749
  67.1548033  70.1146317  47.1592665 109.3821430  45.9085035  51.2091827
 108.8319683  45.5255556  51.8924809 109.7362137  45.1551819  50.7365656
  16.5673912  55.1783657  12.6301622  16.7153084  55.1569557  13.5756218
  16.0051560  55.9407854  12.4929023  92.5387859  20.8732891  62.9055071
  93.2583141  21.0403180  62.2967243  92.3075390  19.9563563  62.7572060
 108.1035995 102.0923996  41.7697859 108.3694649 103.0023003  41.6369867
 108.5598373 101.6068268  41.0825443  96.6234016  43.3590841   7.5911242
  95.8904552  43.1157970   8.1566614  96.4095116  42.9722261   6.7421114
 109.1172123  65.4212904  47.1215105 108.3823013  65.7928610  46.6335821
 109.7716999  66.1195946  47.1373749  96.5393829  42.1344376   4.8445889
  95.6685162  42.0101309   4.4672564  97.0369816  41.3694525   4.5557618
 100.7738781  50.1683092  52.6688433  99.8220539  50.0957012  52.7394295
 101.0979462  49.2961216  52.8935766   3.2453841  53.0704165  70.6406498
   3.1132442  53.5047054  71.4833641   4.1838521  53.1549072  70.4722118
  94.1963387  41.3406515  38.9207053  94.7348595  40.7404566  39.4364500
  94.8218632  41.9579935  38.5414529  85.2828407  80.8152390  85.1118088
  86.1124897  80.3836727  84.9076748  84.9592876  80.3574562  85.8876801
  83.6951256  39.6575713  58.6135101  83.9695263  39.0435505  57.9323959
  82.7490234  39.7405314  58.4941578 108.4872055  19.0957284  61.3922024
 108.0752754  19.0138710  62.2523403 108.4876347  20.0364590  61.2153959
  96.5780926  34.1200829  65.7267857  96.9592762  34.9971604  65.7676411
  95.9294987  34.1732669  65.0248384 105.7056046  83.9130783  67.6595068
 106.0586929  83.1180668  67.2600985 106.3048840  84.6064377  67.3831749
  88.6561012  53.1850719  60.8291435  88.4512615  53.3601141  59.9106503
  87.8121758  52.9689360  61.2257719  95.9244156  46.5813875  46.5958309
  96.7168713  46.6909266  47.1214342  95.3572559  46.0258245  47.1305370
  14.3208909  45.7113791  32.8301501  14.3592310  45.9320498  31.8995237
  13.3946157  45.5370045  32.9969931  29.8798943  39.7532153  35.7004118
  30.0241232  40.5040836  36.2762809  30.7553220  39.3983221  35.5457830
  72.6939011  81.8058586  57.4286747  73.2331991  81.1384583  57.8529119
  71.8898392  81.3461018  57.1871328  31.8420506  86.9144726  61.7361736
  31.3967538  87.7283192  61.5003920  31.9593263  86.4559078  60.9041929
  39.6856546  63.4498549  64.8342419  39.2059588  64.0424538  65.4129982
  39.2846107  62.5934744  64.9825764 103.9149284  14.4858146  37.9758501
 104.1110706  13.5511291  37.9116654 103.2531738  14.6385419  37.3013234
   5.6983024  91.0385895  62.8117895   5.8991259  90.1103687  62.9313803
   6.2000078  91.2944031  62.0377827  98.5558701  46.2425852  47.7032280
  99.2393684  46.7257786  48.1675386  98.8757324  46.1805296  46.8031883
   7.5584936  38.8435650  46.6532278   7.3863471  38.1002498  46.0752344
   7.6184386  39.5959115  46.0644865   5.6835115  43.0227232  50.2008152
   5.4323190  42.3974228  49.5210075   6.1468333  43.7153244  49.7297859
  29.2268872 101.3952637  28.1603575  29.7615790 100.6199360  28.3312416
  28.7841439 101.5687180  28.9910936  97.0556259  67.3998785  43.1241226
  97.9601002  67.3548985  42.8140497  96.6788864  66.5523434  42.8875065
 102.7483845  64.9037123  52.4780512 102.2993183  64.0636921  52.5725651
 103.6631489  64.7107363  52.6835012  20.4830146  68.9801693  58.7999821
  20.4139686  68.4872389  59.6175909  21.4195251  68.9859200  58.6021328
  12.9188979  63.3766747  71.5392971  13.0396223  62.8224087  70.7682943
  13.7394702  63.2933426  72.0250416 107.2331429  63.6329222  26.1155200
 107.0386982  64.2976522  26.7762446 108.1129456  63.8510990  25.8079672
 115.6136990  39.6063972  12.4864447 115.1243973  39.2940998  11.7253399
 115.5751705  38.8811946  13.1100059  96.7681026  74.3024826  82.6691437
  96.1362171  74.2351055  83.3849716  97.0069218  73.3962488  82.4743843
  70.3042269   5.5997026   1.2647526  69.4078493   5.7892799   0.9876293
  70.5390739   4.8036802   0.7878592   9.3622267  68.7566233  41.1748409
   8.9876378  68.2134104  40.4814148   9.8383224  69.4443893  40.7094955
  81.0699368  66.1820173  59.4728231  81.5278625  65.3566742  59.3136358
  80.1533318  65.9297419  59.5842743   4.8592427  20.9947944  59.1209173
   4.1771853  20.8570623  58.4636068   4.5923758  20.4494071  59.8608971
  94.0156746  94.3913651  72.7750587  93.7823582  95.2743244  72.4883986
  94.3351269  93.9589977  71.9830704  88.2940102 109.4381905  47.7161598
  87.5784206 108.8199615  47.5680065  88.7216949 109.1231632  48.5124540
  89.8230648  28.8633108  41.9872808  89.2320251  28.2293034  42.3933983
  90.3654957  29.1814971  42.7089167  74.4733953  46.9722795  32.0417094
  74.4535780  47.0674992  31.0894656  75.3900766  47.1146679  32.2776294
  42.1127176 100.6541061  90.5043697  42.6756239 100.0226116  90.0565147
  41.5665483 101.0227108  89.8100662  92.7597809  28.4995747  36.8859816
  91.9818020  28.4172297  37.4375129  92.5770855  29.2534447  36.3251472
 107.4777508  70.3824377  25.8814669 107.2547531  70.8934021  26.6595554
 108.3730698  70.0832176  26.0399103   3.2362041  50.0746250   8.6505187
   2.8917471  49.3717813   8.0995238   4.1574848  50.1452637   8.4005517
   8.8048244 108.2964516  45.9560251   8.0877864 108.9300632  45.9812260
   9.0187007 108.1400776  46.8758249  93.4106445   0.4500635   9.5353657
  93.5493565  -0.1137954  10.2963221  92.6819611   1.0173362   9.7872531
  67.3931885  91.9583607  29.3085361  66.9816399  92.4111176  28.5724163
  66.6664219  91.5363693  29.7667480  91.9398403  27.0654035  69.7581720
  92.1982002  26.3283062  69.2048407  92.5580215  27.7611065  69.5343781
  17.0944190 108.0731010  27.9233432  16.9880044 108.8683319  27.4013019
  17.9511023 108.1721210  28.3387017 107.6208782  37.0641470  70.5138969
 107.9544544  37.5871372  71.2428904 107.2499943  36.2849736  70.9281063
  80.1441193  20.8056712  40.5671644  80.4044819  21.3839412  41.2841368
  80.6374454  19.9994707  40.7184935 106.6282177  41.0669851  49.5386505
 106.8588734  40.1573658  49.3498993 106.4185524  41.4432383  48.6838341
 107.6656151  20.7271504  44.3668604 108.2991695  20.1872921  44.8395014
 107.9743958  20.7210040  43.4608555 102.8526783  23.1426907  45.2628279
 103.2329750  22.2705722  45.1578426 102.5871372  23.3961892  44.3788242
 110.5745411  19.8969245  39.9729943 111.3864136  19.5018291  39.6551895
 109.9344826  19.7155607  39.2847562  12.9834807  39.8501110  30.9748363
  12.4210799  39.2645574  31.4818525  13.1268001  40.6018400  31.5498114
  99.6675968  43.1939936  35.4931760  99.9184227  43.1844187  36.4168787
  99.9328899  42.3352051  35.1640344 107.8716087  31.1683130  36.1471009
 108.3542442  31.9883990  36.0434103 108.4632492  30.4974675  35.8062816
  32.8683829  21.2255168  73.7202454  33.4413004  20.5323672  74.0481806
  32.9696155  21.1899352  72.7690792  94.2091656   1.0468798  64.4908714
  94.4540596   0.1879686  64.8351526  93.3341599   1.2061623  64.8447371
  52.4290085  13.2141972  53.6581898  52.6490641  12.5527835  53.0021858
  51.4732409  13.1946480  53.7067699  91.1792469 108.3408070  46.4369440
  90.4826355 108.6045837  45.8357954  90.8790493 107.5078678  46.8007088
  36.8671584 107.4102020  40.5242586  36.8319678 108.3381462  40.7564640
  36.9651961 106.9572830  41.3617992  90.2286625  22.7921748  25.1438785
  90.4947090  22.6825786  26.0568070  89.9507904  23.7061572  25.0834560
   3.2083520  45.4663038  47.6689339   2.8976864  46.0914230  47.0139933
   4.1623715  45.5000305  47.5986433  76.2623310  12.1819127  12.7288318
  75.7579231  12.9547119  12.9829717  75.6010818  11.5186441  12.5312042
 108.8099098  19.3067634  66.5787363 109.5711327  18.8336504  66.2426758
 108.4584236  18.7387896  67.2643709  79.6528006   6.9487000  44.0224314
  78.8762283   7.0734257  43.4768963  79.3621159   6.3647729  44.7229767
   9.6174943   1.7188011  29.4311261  10.1944757   1.3239937  30.0849247
   8.7446368   1.3969266  29.6564007  96.1646271  22.8397822  30.9334803
  96.9661427  23.2630777  31.2410951  95.4963207  23.1042004  31.5656805
 107.9267788  29.4996643  48.2597399 107.9067802  30.4562473  48.2318640
 108.5686111  29.2932177  48.9391947  93.2908726  27.0948958  34.5485473
  93.2646179  27.1808553  35.5015182  93.9366245  27.7430677  34.2672944
  86.1691570  11.5492606  12.9382074  85.5402756  11.4169562  12.2288167
  86.1103630  10.7505596  13.4624696 101.3170052  12.4543452  67.8107643
 100.8509541  12.3206711  66.9854403 101.8119335  13.2628512  67.6781178
  72.3849964  19.4993222  47.5465775  72.8446627  20.2166200  47.9829550
  73.0359077  19.1229522  46.9542122  91.6609287  11.1083615  35.9289217
  92.4116230  10.5668986  35.6850004  91.8253136  11.9506645  35.5049682
  90.6632614   4.7398046  62.6905680  89.8726082   5.2790582  62.6729679
  90.4540634   3.9897686  62.1338701  97.4779034  13.7430310  18.2280469
  97.4069500  13.3893025  17.3414385  98.0328465  14.5171773  18.1333578
  56.6603088 107.7569962  13.6676657  56.9677401 108.4225273  14.2831254
  57.0331764 106.9381714  13.9943469  46.9029856  88.1261349  58.8516426
  45.9588718  88.0142593  58.7404537  46.9870615  88.8552856  59.4660521
  57.3975423 109.5522462  55.3031015  57.2078946 109.8877101  56.1793041
  56.8499902 108.7713300  55.2219152 112.8071308  26.6753507  19.7109795
 113.5244656  26.8261981  19.0954232 112.6230049  25.7387638  19.6393418
  11.0661805  46.0829401  30.5940008  11.5812993  46.6863394  30.0584674
  10.1597810  46.3622713  30.4649782  74.6851730 105.1700974  58.4416819
  75.3273487 104.8318100  59.0657091  74.1927385 105.8252239  58.9361954
   5.0297171  24.9153686   7.8829408   5.2835381  24.0492177   7.5642103
   4.7123566  25.3734422   7.1046847 107.7891064   5.2484620  68.6834717
 108.5761166   5.6110376  68.2767963 108.0888462   4.4472498  69.1129446
  83.9074516  26.9504213  36.0578156  83.0451775  26.5884280  36.2619686
  84.4245052  26.1947560  35.7787895   5.0658357  13.9169502   5.6224591
   5.9451008  14.0774918   5.9650230   4.6437693  14.7759962   5.6339455
 115.4402924  23.1231022  49.9250412 115.3254986  23.6494517  50.7162476
 114.6006966  22.6781893  49.8094463 109.7496414 103.9744473  60.7056952
 110.5770016 104.3722725  60.9767199 109.3591118 103.6559391  61.5194941
  25.9218287  54.5552969  16.5707684  26.0266209  54.9138689  15.6894767
  25.7598996  55.3202581  17.1228969  41.6543341 105.1295376  10.8811355
  41.2513351 105.5553246  10.1244819  41.9664574 105.8528137  11.4249003
  95.8330441  44.7247791  21.5101528  96.4524460  45.4502439  21.4309525
  96.3225651  43.9582348  21.2118125  23.2298326  49.1208696  48.4772253
  24.0622497  48.8317251  48.1034470  23.3306718  48.9859915  49.4194937
  12.8654504  44.1685009  38.5717416  13.2768369  43.4362650  38.1125927
  13.2395852  44.1396284  39.4523239   8.2297218  33.5672760  21.1741304
   7.9776061  33.5183835  20.2520227   8.7766641  32.7943158  21.3142014
  70.5516720 108.2283020  36.6907883  71.1007929 108.5392952  37.4104977
  70.7151365 108.8479424  35.9797668 100.7881165  44.0910959  38.2306767
 101.0296917  43.3301210  38.7586856 100.2123070  44.6034288  38.7982988
  51.2612391 107.0490742  22.3185587  52.1511793 106.7351627  22.1582341
  50.7465935 106.6893768  21.5960717  59.7323895 102.7500820  25.4297423
  60.1547241 102.0511913  24.9303293  59.2102528 102.2919846  26.0883331
  90.7301426  10.2802014  25.4539418  89.9985504  10.3010213  24.8370337
  90.5776978   9.4950891  25.9798622  13.6806238  17.7525580  10.5724645
  14.3791199  17.1414828  10.8068168  14.0900934  18.6161280  10.6255162
  81.4418983  33.2448864  14.6084332  82.0426083  32.7374005  15.1541710
  81.1994076  33.9943767  15.1522136  75.0455761  14.6568370  13.5292578
  75.1648521  15.1617742  14.3336487  75.3437424  15.2418709  12.8327930
  71.0045958  24.0647006  13.0959237  71.3472605  23.2254267  12.7886319
  70.8618307  24.5721173  12.2969365  88.4641838  34.5009661  14.9792862
  88.1312943  33.6482692  15.2591467  89.2409229  34.2957973  14.4588816
  14.0109777   8.0857301  33.8590503  14.0750456   7.4793303  34.5968890
  14.1350579   7.5357258  33.0855322  96.5480666 109.1396218  20.9137273
  95.7818394 109.7049614  21.0112929  96.3668089 108.6240539  20.1278710
 106.4301968  42.4844360  52.0285559 106.4895725  41.8043613  51.3575888
 105.6665230  43.0035686  51.7764902  81.5909576  35.4392433   6.6100234
  80.7117558  35.0687146   6.5329254  82.0402813  34.8631358   7.2284395
  34.0496850  99.7663975  33.1400061  34.8430657  99.7019005  33.6716247
  33.3449626  99.8912525  33.7756228  97.5641155  25.1094961  52.7061319
  98.4399033  24.8538446  52.9957438  97.4940491  26.0343337  52.9427719
  59.0910530 107.9494667  26.9240999  59.6973801 108.3827496  27.5248241
  59.3628025 107.0316792  26.9301581 113.1387997  41.0913420  75.6898689
 113.5965347  41.1424685  76.5289736 113.5978985  40.4033136  75.2081251
  19.9507535  48.1797171  51.3682365  19.5202422  48.8865900  51.8490934
  19.7180247  47.3859644  51.8499327   0.9409564  30.1538825   4.7288877
   1.7505285  29.9791574   5.2087790   0.3271699  30.4581761   5.3973967
  88.3225155 103.5662365  44.0480089  89.1913033 103.1688404  43.9887857
  87.7238178 102.8772259  43.7597895  61.9622040 107.9782391  54.7051191
  61.5713930 108.2264614  55.5429029  62.6552725 107.3603916  54.9378252
 110.8861637  26.1206913  31.9935417 111.0135174  25.6778550  31.1545491
 110.0173473  25.8414173  32.2823286   2.1258490  86.1551666   9.1367519
   2.8828108  85.7977581   9.6009684   2.0637169  85.6293297   8.3393407
  93.6414146 106.2022495  41.5932035  94.0083790 106.9825554  41.1776257
  94.3821621 105.8031082  42.0495081  47.0598888 101.9354248  39.5894122
  47.5003386 102.7026844  39.9548554  46.3262081 102.2952271  39.0909266
 105.7177544  34.1619062  20.0552607 106.0839272  34.5448995  19.2580974
 104.7929096  34.0230322  19.8513138  70.1289940  13.6953020  69.2690229
  70.5281115  14.3590033  68.7064981  69.8533106  13.0047500  68.6662197
  89.6228504   1.2986334  34.7684073  89.6623898   2.0202571  35.3960419
  89.3198776   0.5502882  35.2826238 112.9348660  14.4305980  23.7835455
 112.4040604  14.1119170  23.0535364 113.4604454  13.6746740  24.0454268
  99.4629478  37.6857257  45.4982996  99.3965054  36.9044542  46.0473251
 100.3133392  38.0639768  45.7218933 104.2141819  18.4003401  61.4231443
 104.3661594  17.6409996  60.8605289 104.7293568  19.1012836  61.0237646
   5.9080249  14.3595529  63.5416698   5.9134394  14.7014201  64.4357204
   6.7996436  14.5037246  63.2247114  27.7755690   7.3967886  34.9755907
  27.3308349   6.6587603  34.5587492  27.8061819   7.1647590  35.9037375
  91.4305210  80.2919006  61.5510654  90.5667973  80.3607368  61.9578505
  91.9773865  80.9025478  62.0453119  10.3573847  32.3991275  30.1755762
  10.7644999  32.5885558  31.0209203   9.8662990  33.1927848  29.9630332
  86.0983562  36.9892335  34.3239737  85.2537537  37.1009278  33.8876200
  86.6846085  36.6770577  33.6347151 112.3985577  38.0470395  20.9785891
 112.0301723  37.7425027  21.8079138 111.9360638  38.8652134  20.7971454
  91.7906475  51.4529181  60.8291197  91.0262299  51.5794706  61.3911533
  91.5211773  51.7965508  59.9773359   7.3470730  22.4279070  21.7476606
   7.9672140  22.3417783  22.4717045   7.5019670  21.6538596  21.2062788
  95.9793377  34.1868830  35.8630633  95.0298691  34.3018651  35.8239651
  96.3294983  34.9053526  35.3363538  35.4052401  35.2711105  32.9505205
  35.7487488  36.0209656  32.4647713  34.9480700  35.6583714  33.6970162
  88.9360619  11.9708574  36.3525820  89.7732449  11.5525675  36.5535569
  89.1558647  12.6550794  35.7203150  53.5659122 103.0306435  84.0604401
  53.3300114 102.7591515  83.1733894  54.4408464 102.6673603  84.1973972
  23.5542798  11.7046201  46.4982414  23.7011600  12.6377356  46.6530085
  22.7194262  11.6677606  46.0314560  69.8470068   3.8217661  80.1581955
  69.4489813   2.9658839  79.9992323  70.6515980   3.8117439  79.6397734
  93.8446426  61.0120106  65.5043888  93.8811684  61.9012880  65.1521397
  94.7592163  60.7810211  65.6669283  91.5003395   3.1297287  49.8245716
  91.5570927   2.6966575  48.9728308  92.3825359   3.4664714  49.9813032
  75.4982615  23.6649108  37.0622373  75.2199411  23.2143641  37.8595948
  74.9338722  23.3083725  36.3762498  32.0358062  38.1332278  61.9301176
  31.9933915  38.3003998  60.9885836  31.3198757  37.5201869  62.0970201
   3.0349211  31.7177033   0.3231204   3.1847958  32.6522278   0.1801742
   2.6301245  31.6697716   1.1891902  95.0084591 107.4615192  31.8022656
  94.3963146 106.8083286  31.4633679  95.6030941 107.6339817  31.0722661
  81.9211578  47.7289820  55.4431534  81.5491772  48.1005049  56.2430477
  82.8543949  47.6350689  55.6341553 111.5156364  35.6435513  22.7271175
 111.6382599  35.0076914  22.0222211 110.5664158  35.7476282  22.7933478
 100.4378605   1.9656678  32.1256852  99.9591827   1.3212761  32.6470828
 100.2959728   1.6932929  31.2190914  50.2687502  98.7656593  35.8861589
  50.5043745  98.9204693  34.9714231  50.0271463  99.6293259  36.2207294
   9.7293901  19.0328991  20.7796836  10.2945161  18.7545824  20.0589871
   9.2858624  18.2320595  21.0592723   4.0016785  19.7698820  30.8067203
   4.7809431  19.9558854  30.2829075   4.0881762  18.8469481  31.0453486
  23.3222151  68.8785934  86.5295696  22.9279780  68.3199406  85.8597088
  23.9690566  68.3183002  86.9584084  16.9375122  15.9355462  19.5390284
  16.7968321  16.8480194  19.2863762  17.8671062  15.8895075  19.7625625
  94.3199062  34.2113519  48.6128759  93.8538933  33.5369802  49.1071367
  94.3855953  34.9497414  49.2184305 102.1397686  21.5242195  12.0198667
 102.3845863  20.6862998  12.4125314 102.9632854  21.8840051  11.6903138
  60.7908440  75.3764772  82.6408291  59.8427582  75.3857946  82.5093842
  61.0081148  76.2770367  82.8816986  16.3263547  80.9588909  46.5182495
  16.4383066  80.0527859  46.2307072  15.4748809  81.2183952  46.1662865
 115.0461388  83.9676189   7.6547688 114.4632339  83.4979630   7.0582116
 114.7456646  84.8756790   7.6177806 104.5261955  27.7631664  47.2241783
 104.2357826  28.3353353  46.5138865 103.9245319  27.9512978  47.9444838
 115.6481361  15.1185381  19.2660964 115.5739403  14.1978633  19.0149271
 115.6649590  15.1051295  20.2230549 104.2636967  37.1317482   8.2499999
 103.7415504  37.7418423   7.7290529 104.4198322  36.3902330   7.6651847
  27.3862886  36.4706254  49.2383528  26.8136883  36.5900016  49.9960566
  28.2127523  36.1612034  49.6090937 101.6059875   3.9883465  58.5044384
 101.6590309   4.8387986  58.9404964 102.1585464   4.0821671  57.7284813
  46.8218374  23.8034940  54.0068388  46.4465952  24.5928979  53.6166191
  47.7584267  23.9902020  54.0714216 111.2596989  20.3014016  32.8525257
 111.6292477  21.1788726  32.9510784 110.3215504  20.4184175  33.0022502
  96.4602470  39.9688435  56.2795353  96.8698978  40.5627728  56.9085550
  95.5226326  40.0399971  56.4585066   2.9336217  44.2781401  54.3981647
   2.2948225  43.7118053  53.9652300   2.4097109  44.9832726  54.7783422
   3.3119822  26.1227512  36.2086129   3.4348005  26.5486908  35.3602481
   3.8331348  26.6464233  36.8172193 106.5890789  49.6149206  10.0812554
 106.5767765  48.9074373  10.7258868 107.3547077  49.4300413   9.5373201
  70.6938267  28.5251951  21.9714761  71.4308596  29.1283536  22.0674801
  71.0346794  27.8151798  21.4274788  94.6847820  36.2409258  26.7482686
  94.1067982  35.4925895  26.5994024  94.6684742  36.3712645  27.6964140
  13.8637292  73.6352968  94.4434929  14.1421509  73.5479689  93.5318470
  14.3959856  74.3519878  94.7888756  34.8942780  51.9944859  34.5872688
  34.5429349  51.2343121  35.0508714  35.5096436  52.3886824  35.2054667
  28.8039994  45.7707977  22.4077535  29.3928766  45.2896118  22.9890633
  29.3019581  45.8775377  21.5972757  73.1327629  16.7763150  36.0964680
  72.9336786  15.9337831  35.6881332  73.9953375  16.6526330  36.4925694
  97.8874969  26.9289923   8.6422724  97.4561596  27.7638626   8.8243884
  98.4592724  26.7853022   9.3963683   6.5482664  22.5901055  28.7430358
   6.3922739  21.6536331  28.8651729   7.3009324  22.7824783  29.3022490
   3.6388242  73.7361956  12.3510146   4.2466563  73.6851168  11.6133404
   4.2002961  73.7145996  13.1259429 111.2217140  53.0248022  58.2888079
 110.3313351  52.8715420  57.9726315 111.3160038  52.4330330  59.0352297
  96.9774342  20.6367350  45.9459496  96.6469097  20.4395604  46.8223619
  96.1904716  20.7685590  45.4172230 107.7225304  27.1418810  38.6249638
 108.5194874  27.6426053  38.7992215 107.9688931  26.5347338  37.9271770
  28.9476180   2.5277489  22.1272993  28.7293959   1.7788194  21.5725803
  29.7797036   2.8488228  21.7797685 103.3015347  35.6350732  72.7751303
 102.9067421  35.1092148  72.0795441 103.5405827  36.4573550  72.3474121
   2.1721473  69.2374802  17.2028828   1.5647599  69.9733114  17.2794437
   1.8934731  68.7783194  16.4105785  13.2834375  50.8325481  55.7786512
  12.4750042  50.6948757  56.2723255  13.1213677  51.6273737  55.2705002
   2.2848321  38.5526705  65.1343822   1.9994459  38.1599259  65.9593296
   1.9126627  37.9865456  64.4581985  10.8160925  28.3584404  23.4559369
  11.6757953  28.5160875  23.8461804  10.2298331  28.9577174  23.9178896
   2.3818007  29.3504810  48.8693237   2.5875437  29.1844368  47.9493618
   2.7944133  30.1931643  49.0587139  10.7313132  18.5305381  53.0395985
  11.5055609  17.9963470  52.8623676  10.1655555  17.9652286  53.5655022
  90.4720020  18.7697780  68.4436512  90.6235600  18.0716908  67.8065157
  91.3304424  19.1762543  68.5623169  58.9021826  96.3572884  27.5511289
  58.0361605  95.9512424  27.5142431  59.4218111  95.7643223  28.0939126
  -0.0953330  35.6767869  28.7835932  -0.2372493  36.4752555  29.2920589
   0.6413708  35.2451086  29.2162013   7.0203274  14.3829072  27.6614785
   7.2271049  14.1422713  28.5645676   7.6715767  15.0469995  27.4354529
   9.1365552  31.8292046  35.5273485   8.7404668  32.6681590  35.7629299
   8.8857621  31.6941381  34.6135139   0.4994953   8.2465512   2.4990337
   0.9251124   9.1010165   2.5695366   1.0566218   7.6586431   3.0091375
  40.7333279  91.8370724  93.4914589  41.1165428  90.9714890  93.3495331
  39.7886491  91.6925907  93.4371948  85.2490520   4.2626435  50.1035166
  85.7655430   4.9232778  50.5650663  84.3412685   4.5415398  50.2234411
 115.9159851  22.0547962  15.7737136 116.7382050  22.0262837  16.2629580
 115.3438663  22.6140523  16.2992108  69.3764687  36.2701368  43.2257128
  68.7731457  35.9127069  43.8772297  69.1820574  37.2072172  43.2078886
 100.7522583  32.9774618  47.4012136 101.1917305  33.7413645  47.0276546
  99.9406910  33.3250809  47.7710104  19.2882240  49.9346638  25.4430580
  18.3613670  49.7206736  25.3363872  19.5418251  50.3246212  24.6064878
   9.7007018  20.1277590  33.5081029   9.6478242  20.1924086  32.5545526
   9.4871324  21.0071564  33.8199973 106.2200832  43.6423540  32.1771717
 105.7545948  43.0412483  31.5956020 107.0906448  43.7260056  31.7881274
  75.4981661  19.3459082  26.8280506  76.0614443  20.0823069  26.5900111
  75.8992958  18.9830267  27.6177621  33.6742330  25.6130910  40.3304815
  32.8284311  26.0594082  40.3711176  33.5009861  24.7392273  40.6805897
  20.4948282  17.8843009  47.4125862  19.6243584  17.7587104  47.0347738
  20.3940892  18.6306322  48.0034113 115.7497215  26.1891150  49.9942112
 115.7912540  25.5269527  50.6841755 114.8220253  26.2364507  49.7632074
   2.2065403  63.1298780  54.7956610   1.7569497  62.9807425  55.6274414
   1.5416986  62.9556322  54.1294336 111.3061428  17.8115761  58.7406397
 111.2045193  17.5680578  59.6607494 112.2290993  17.6449287  58.5493040
   3.4611052  18.9490044   9.3963939   3.1823847  19.8381138   9.1772330
   4.1923743  19.0697002  10.0021255   1.1980660   2.6709685  28.7201476
   1.8904158   2.0427155  28.5147667   1.5069430   3.1188139  29.5077133
  27.8887129  19.2922509  43.0309868  27.2487569  18.6134338  42.8167534
  28.7375784  18.8815892  42.8666210  33.2701945 108.6889076  73.6834860
  33.7722802 108.1534195  73.0691624  32.3635077 108.6057568  73.3881283
   2.1185379  44.1991234  61.1811781   2.5472650  45.0144863  60.9211731
   1.2666136  44.4739914  61.5201521   3.3969298  84.9754906  22.3562026
   3.9067411  84.6637917  23.1039810   3.5587829  84.3284988  21.6695857
  92.3265076   2.7758077  17.3824227  91.7548847   2.8660300  18.1448793
  92.0772171   1.9371936  16.9940746 113.6087036  99.7781563  83.3991337
 114.1996384 100.4370308  83.0345440 113.9478016  98.9449978  83.0718994
  37.9894447  45.6786489  93.4829807  38.1730294  45.5070543  94.4066048
  37.2356749  45.1241255  93.2815647  98.1274986  91.2395668   9.5232487
  97.7161312  92.0899010   9.3685234  99.0672016  91.4171696   9.4826269
  60.7295895  13.1492090   7.0522517  60.9318209  12.6081598   6.2889689
  60.6120586  12.5222230   7.7659094  29.2143989  29.6160889  90.4608727
  30.0507450  29.2937660  90.1249218  29.0689206  30.4380870  89.9924850
  81.8672562  31.7399192  38.8392448  81.1850452  31.1295605  38.5594678
  81.4700699  32.6051140  38.7397027  77.1897268  11.9264138   6.2837458
  77.3026323  10.9809792   6.1855817  78.0721235  12.2843850   6.1864829
  46.0838842 102.4791050   0.1321352  45.9314203 102.4767303   1.0771123
  45.9484291 103.3896828  -0.1300419  46.0540438  93.9343548  13.7189901
  45.5431843  94.6635056  14.0705609  46.0371685  94.0652275  12.7709293
 104.3639946  27.6447964  31.3552332 103.6642265  27.8034949  31.9887710
 105.1563072  27.5703716  31.8871450  75.6763458   1.2353117   5.3253573
  75.7727098   0.5921376   6.0276914  75.8628845   2.0760314   5.7432401
  62.3936129  95.0148010  33.9557815  62.1107769  94.1072941  33.8432121
  61.5896654  95.4927158  34.1594958  42.9682115 108.4439575   5.3531945
  42.0432237 108.4064503   5.5965507  43.4066632 107.8805598   5.9908259
  40.7342672 101.2208366  37.2068095  40.7599974 101.9328022  36.5675282
  39.8751402 101.3018036  37.6210260  13.1358933  62.4328613  81.6129589
  13.3007479  62.0127249  80.7688332  12.5440013  61.8333435  82.0673561
 100.2628136  17.1586990  14.3296123  99.6103096  16.6066265  13.8987076
 100.5649948  17.7529395  13.6427367  91.6044712  16.3174331  24.7336221
  92.4652863  16.3582444  25.1502323  91.0743141  16.9513607  25.2166414
  62.2584963  39.1032624  33.4084415  61.8523502  39.1898799  32.5460172
  61.6760063  38.5155010  33.8895559  74.5106268 104.4357777  10.6422091
  75.2332878 103.8753796  10.3594542  74.6927261 104.6141815  11.5648377
  96.5198517  14.2432463  40.8698845  95.6387138  13.8791430  40.7847309
  96.4716434  14.8094165  41.6401863   2.6347080  14.6205544  50.4593801
   3.5309064  14.7305822  50.1416492   2.7329773  14.4309497  51.3924551
  80.6792781   0.8350648  31.0397792  81.1687419   0.8587731  31.8620300
  79.8580024   0.3967274  31.2624812  96.8630791  12.5878096   8.2743210
  96.4573860  12.1530175   9.0243888  96.1581993  13.1084609   7.8892231
  45.5317736 107.1208954  17.8640258  45.5456734 106.8464565  18.7809348
  44.8665571 106.5653038  17.4577796  49.1668177  99.9536896  21.9093060
  49.7774220  99.2232513  21.8100548  48.4140348  99.7115612  21.3699341
  25.9587669  49.7983694  78.0786610  26.0828161  50.1965570  78.9402246
  25.3046227  49.1145849  78.2227707  11.5490007  37.9683590  16.7167604
  11.4916480  38.4529161  15.8932638  10.7720542  37.4092770  16.7202985
  48.7017918  88.8271046  42.8057909  48.2844543  89.4524288  42.2133112
  47.9721928  88.3792400  43.2339668  98.4706020   8.7423080  32.0910740
  99.3404198   9.1411757  32.1144772  97.9540730   9.3264979  31.5359545
  81.0757256  19.5592511  17.7352524  82.0035172  19.3481731  17.8395164
  80.7410240  19.6162987  18.6302137  87.7892208  27.6441860  25.1239705
  88.3441162  28.4088516  25.2776265  88.2463837  26.9250178  25.5598855
  73.4606028 108.4337234  25.3554130  72.5380230 108.2604790  25.5426741
  73.9292860 108.0764771  26.1096931  75.6596851   8.4211797  23.9133215
  76.1222935   7.8820044  23.2718253  75.5517006   7.8494418  24.6733761
  28.0258203  60.2853918  83.2831478  28.9474773  60.0471830  83.1829643
  28.0415869  61.2174892  83.5003376  46.3427973 109.7454548   6.5922099
  46.9908094 109.2008114   6.1453533  46.8533278 110.2628136   7.2150487
  50.6833172   7.1471918   7.5245374  50.8733320   6.5053004   8.2087165
  50.7752705   7.9949856   7.9593039 113.6456299   4.1255343  21.9326758
 114.1366959   3.7790555  22.6776838 114.1675282   3.8825494  21.1679411
  60.4057264  19.9126482  24.7486687  60.8075666  19.4237423  24.0305257
  60.4595327  20.8282232  24.4746995  74.0006971 109.3428993  20.3611612
  74.3877697 108.4921455  20.1546741  74.7408199 109.8808956  20.6422544
   5.6881845  10.8864498  10.7140899   4.9118078  11.3839495  10.9709275
   6.3916999  11.5351331  10.6915569  40.7420349  52.9098845  87.0116138
  39.8420382  52.7110529  86.7533398  40.6632614  53.6689186  87.5894547
  42.4319839  35.0037265  33.2090807  42.9631519  35.7944345  33.1148839
  42.5338221  34.7548103  34.1277194  18.7077144 109.5458211   7.3358113
  19.2194894 109.3702294   6.5461999  19.1161063 109.0043368   8.0112666
  62.0714664 108.1934643  43.8133383  61.1462021 107.9720497  43.9186716
  62.0956230 108.7616348  43.0433750 107.3476124  24.1775703  15.7499707
 107.4281502  23.6614871  16.5520954 107.9225349  23.7379169  15.1235557
  71.2631702  21.5863109   5.8006102  72.1717453  21.3132477   5.9277284
  71.3273430  22.4623609   5.4202771  86.8895626  20.3065157  49.7758389
  86.0161209  19.9649811  49.9673653  87.2897053  19.6407700  49.2164660
  27.9019833  87.3005295  18.2939649  27.2285891  86.6250420  18.3745039
  28.1777024  87.4724102  19.1943347  45.7439184 106.1327076  20.2225614
  46.0763931 106.5781784  21.0018206  45.3502655 105.3268337  20.5569935
 102.7673435  64.8258018  76.7854309 103.0486298  65.7070065  76.5392685
 103.0087376  64.7463751  77.7082777  22.4245811  75.8941174  76.2216902
  22.3509240  75.6009531  75.3134680  23.1815982  76.4799118  76.2236357
  98.3613586   5.1662976  38.5408115  98.6639977   5.3683949  37.6554918
  98.6531448   4.2676857  38.6943889  94.7067165  92.7252102  19.0569758
  94.1502571  92.8874016  18.2952166  94.7679234  91.7714500  19.1101599
  12.1853364  70.9580755  86.5452003  12.5704539  71.6316509  85.9846497
  12.1480060  70.1782131  85.9914398  75.9729958  40.7252407  26.8495631
  75.9894228  41.1770916  26.0058880  76.8165684  40.9352493  27.2502065
  55.5237389  94.8834801  17.1472323  54.7387266  94.4423294  16.8226171
  56.0342264  94.1887379  17.5631249  61.6756344 100.4015255  71.2414551
  60.9881258  99.7361565  71.2705994  61.7836905 100.5936337  70.3099823
  15.4070771 105.1185989  18.8102043  14.6312654 104.6231079  18.5478473
  16.1430943 104.6054173  18.4768140   6.6768837  46.7183208  77.5746202
   7.0573580  46.4573383  76.7359543   7.4317688  46.8693113  78.1434631
  91.1102486  45.2857590  87.4947739  91.9451714  45.7507515  87.5487518
  91.2778664  44.4428253  87.9162025  87.9047203  21.3930178  19.6061587
  88.1147385  22.3095775  19.7851610  88.7296391  21.0128379  19.3041718
  24.0848947  47.7931356  62.3982382  25.0016785  47.6620483  62.6402235
  23.5891509  47.4267960  63.1305408  92.0224953  15.9921563   9.1002607
  91.7011356  15.1426077   9.4022989  91.9257259  16.5682185   9.8585618
  61.8302679  16.5176594   8.3481872  62.2767115  15.7136214   8.6135995
  62.5100374  17.1908057   8.3802062  29.5872879  64.0144348  76.1520338
  29.5771146  63.4308815  76.9107151  29.6294904  64.8941088  76.5270329
  68.8362551  12.5684977  46.8378448  68.1390333  13.0469930  47.2863483
  68.5339832  11.6603601  46.8256426  77.6278162   0.8755898  31.4231324
  77.8233957  -0.0089572  31.7322564  76.7795515   1.0840207  31.8145943
 102.9577255  64.0660381  89.6976471 102.6634121  64.9663019  89.5593166
 102.5351810  63.7986612  90.5138588  86.7892838  25.5398273  42.0330858
  86.1194801  25.1456666  42.5918674  86.7270565  26.4784217  42.2102833
  28.1838489  50.7816792  86.5028763  27.2619557  50.8079195  86.2466431
  28.6628413  50.9507608  85.6915760  38.8270164  33.4754157   2.5188184
  38.0413294  33.0748296   2.8909212  39.5367670  33.1901932   3.0942613
  77.3906612   3.5953557  18.8842022  76.7458105   3.3658180  19.5533121
  78.0447578   4.1158795  19.3505156  83.4205723  43.1583500  29.4829965
  82.9492378  43.3418655  30.2956486  84.3135357  42.9585171  29.7639155
   6.7579669  12.2397971  25.9271669   7.0525485  12.9649973  26.4781094
   7.0473295  12.4757195  25.0457811  15.5979073  68.7996292  86.6837311
  15.5901206  69.7559881  86.6443634  14.6817327  68.5476828  86.5680599
 109.6514511  21.8474579  17.4470115 108.7003613  21.9399738  17.3912132
 109.7956371  20.9053850  17.5361264  57.6977730  84.5761871  19.2830873
  57.4468088  85.4961014  19.3667436  58.1918764  84.5362282  18.4642494
  74.4741583  54.0860939  35.5956411  74.3098307  53.3770800  34.9739289
  74.5071602  53.6535835  36.4489174  35.9351754  64.3297672  77.5420761
  36.3263202  64.7148323  76.7578793  35.0934267  63.9842463  77.2449112
  16.9636035  52.3619986  49.6953773  16.4809704  53.1425762  49.9674034
  17.8823364  52.5832605  49.8477221  28.8435555  59.4239855  92.6717949
  27.9523110  59.1614819  92.9020214  28.9013243  60.3398705  92.9439259
  53.5870981  90.1858997  32.1102715  54.0437031  89.8705101  32.8901887
  53.6617899  91.1389923  32.1580076  14.2659271  72.1174335  46.8030024
  13.3864570  72.1498060  47.1794510  14.6178091  72.9969358  46.9404411
 102.8364754   9.7641605  26.6917014 102.6402473   9.3655884  25.8438420
 102.4218082  10.6260061  26.6529250  30.9939194  82.0903969  83.3286953
  31.2008905  81.7675304  84.2057037  31.7985535  81.9560719  82.8279400
  13.3941698   0.9837306  29.9258184  13.4357083   1.2989339  29.0229607
  14.1545475   1.3786058  30.3525877 116.2348366  48.9315319  93.7622833
 116.5397835  48.4601164  92.9870415 115.3861904  49.2918921  93.5050583
  81.9697285  35.7610297  10.2127516  82.8787327  36.0496163  10.1311696
  81.8974304  35.0231576   9.6073180  93.7355328  24.5324779   7.1338844
  93.9826584  24.0930128   6.3202292  92.8149033  24.3028283   7.2600770
  87.4542522  23.1649446  39.0333962  87.6343536  22.9068637  38.1294131
  86.5040398  23.0880809  39.1196346  74.2413473  39.5538855   2.7691507
  74.4921780  40.3153753   2.2462259  73.5913754  39.8904896   3.3859673
  58.5989237  47.8852749  16.5398026  59.4313955  47.6599216  16.9550645
  58.2041454  48.5287285  17.1283162  22.9129124  26.8651152  44.4071722
  23.7744093  26.6421723  44.0545368  22.2937870  26.4421725  43.8121605
  47.5466585  86.9845676  13.7306738  46.9247866  86.2832546  13.5366249
  47.6826048  86.9292068  14.6765518  42.3228121  90.7706738  85.7676125
  42.6145220  91.5463161  86.2466812  42.9323292  90.6995964  85.0329876
  90.9452915  23.0655932  46.7174053  90.5372047  23.3812284  45.9111357
  91.2758923  23.8561797  47.1439171  76.6473484  13.6688817   1.5486506
  76.5768862  13.6068714   0.5960637  75.9287071  13.1289208   1.8776290
 106.0829544  16.3781309  45.1926184 105.3462124  16.9295096  44.9291325
 106.5941334  16.9287658  45.7856941 101.9499683  28.6127830  50.4096031
 102.6414490  29.2385721  50.1940155 101.1772633  28.9421201  49.9505901
  52.6946831 107.5463772  34.8558927  52.6982450 106.9430733  35.5990267
  52.9425859 108.3910084  35.2318978  63.6653042  17.6007116  89.5445728
  63.8400269  18.4253013  89.0909672  64.0727901  16.9329178  88.9929962
  24.9813271  66.0169315  74.0665627  25.8795929  66.1864376  73.7826300
  25.0744414  65.4371023  74.8224449  30.5512333  48.7731695  67.7401257
  31.0934162  49.0203905  66.9910288  30.9387040  47.9574299  68.0574083
  21.0232425   1.9579138  37.7266622  20.6871700   2.4105132  38.5002518
  21.2742567   2.6612362  37.1278644  18.0455887   9.5704395  50.7266855
  18.3815265   9.3039346  49.8709106  18.7156320  10.1590204  51.0743141
 114.0465641   6.2076730  32.0256329 113.2979202   6.2334597  32.6215386
 114.4062233   7.0942670  32.0543861  53.3007050  45.7840824  93.4972858
  52.7115250  46.5082502  93.2859039  54.1708946  46.1821699  93.5201931
  33.4521818  56.8821764  77.6791191  33.7825727  57.7734995  77.7914381
  34.2355561  56.3323975  77.6964712  42.9593992  99.7248268  61.4822245
  43.0628109  98.8310051  61.1556959  43.8381815  99.9806023  61.7624903
  64.3638515  26.1846781  63.8977194  63.5232925  26.0539103  64.3365765
  64.6739817  27.0304418  64.2213440   8.0072254  48.0996418  16.6044307
   8.0603802  47.5064611  15.8550668   8.7776375  48.6614418  16.5203106
  63.6297607  87.5278187  21.5745616  64.3392181  88.0889797  21.8876100
  63.0174160  88.1295681  21.1512804  39.1004872  30.4131913   2.4129376
  38.3623147  30.0665426   1.9117717  38.7003112  31.0029960   3.0518591
   4.1901040  32.6558113  13.4268880   4.1055575  33.4805202  12.9484129
   4.3014151  32.9192138  14.3403757   4.9430054  56.0579252  78.9800262
   4.2038968  56.6234446  78.7560987   5.4452133  55.9874439  78.1682062
  67.3800993  78.2661390  76.9919109  67.4276829  77.6948547  77.7584648
  66.8655682  77.7701521  76.3551283  75.1446915 101.8112373   7.5973386
  74.4616175 101.1749268   7.8088838  75.6193161 101.9352818   8.4192717
  73.0549049  38.0865574  30.6682777  72.8364134  37.4604201  31.3585281
  72.4338484  37.8948021  29.9656057  80.6079102 107.5972557   8.8802814
  81.1463547 107.5332642   8.0914772  79.8356342 108.0905533   8.6037391
  39.3332458  73.7612677  75.6901407  39.7751832  73.9381075  76.5205956
  39.3783355  72.8101158  75.5926180   2.5365120  86.4219856  92.4011040
   3.1654602  86.2040520  91.7132378   1.8229936  85.7954216  92.2805023
  19.0854251  14.3469560   8.1631613  19.0790713  13.3958232   8.0557549
  18.9977849  14.6890473   7.2734851  99.8267746  23.7076235  25.1238370
  99.9725628  23.9500093  24.2093825 100.3349781  24.3456793  25.6246877
  77.6585960  80.1198578  64.6066856  78.3762550  79.9305868  64.0022278
  77.0085239  79.4406748  64.4268227   0.2019586   7.1665215  21.4661098
   0.0722430   8.1122470  21.3953328  -0.2120143   6.8085521  20.6807947
  99.1382694  19.9907529   7.8477126  99.1336727  20.3212118   8.7460494
  99.9439049  19.4776273   7.7853817  12.9087758   4.5457661  11.5009618
  12.1855509   4.8406187  10.9475732  12.7044058   3.6309755  11.6949272
  59.5373774 102.5302792  13.8543284  59.9519920 102.9478168  14.6093059
  60.2682972 102.2632027  13.2969654  68.5212517  25.2664924  31.0889697
  68.4434605  25.7939506  30.2940083  68.2392597  24.3909740  30.8240509
   8.0590349  73.1633044  94.4368248   8.0893713  73.5254550  95.3223520
   8.0238634  73.9304257  93.8654056  42.0388985  92.0901394   3.5646141
  41.2036276  91.7988300   3.9302546  42.5846004  92.2725868   4.3295673
  98.8663673  31.2133694   5.2608478  98.3998585  30.5455852   5.7635093
  99.7426987  31.2339187   5.6453568  82.0747566  22.2274327   3.0627090
  82.1883297  21.4740109   3.6420971  82.9463577  22.6188922   3.0052137
  80.4712772  98.1529713  13.3087814  80.0738907  97.2963333  13.4652185
  80.9493351  98.0486012  12.4861026  12.5232518  57.3049927  86.3992786
  12.7625418  56.6904068  85.7055569  12.6639462  56.8169832  87.2106266
 113.7934113   2.5518799   5.1019102 114.0086555   3.3916044   4.6959981
 114.1201782   2.6284289   5.9983468  14.9433506  31.8707561   6.0082442
  14.5555043  31.4846683   6.7935741  14.3984973  31.5500402   5.2895594
  70.3386021   9.8892832   5.8145183  69.5327139  10.2682352   5.4635519
  70.8865404   9.7365624   5.0446689  23.2676840  63.4930468  88.3260632
  22.9577708  64.3556213  88.6020088  22.7422500  62.8756714  88.8349819
  96.4038849  49.7668171  19.4636703  95.7209873  50.0176859  20.0857162
  95.9995270  49.8838329  18.6039996 103.7866879  21.7237139  36.6953468
 104.0850830  21.0926175  37.3502612 102.8788185  21.9078398  36.9363594
   7.7619153   2.4474910  54.8351812   7.3525953   1.6316488  55.1234341
   7.5933248   3.0646470  55.5471706  22.9509854  70.5003977  90.1206779
  22.1811962  71.0689354  90.1412392  23.6285830  71.0298109  89.7001839
 108.7068653  46.1388922  28.8292551 108.6523628  45.3475809  29.3650627
 107.8819275  46.5960693  28.9926553  38.7116981   9.9889201  29.8841429
  38.6520505   9.4685787  30.6853414  38.5565162   9.3609411  29.1785979
  90.1405621  19.2800593  22.1299958  89.7346306  19.7481394  22.8596187
  90.6818867  19.9385178  21.6945267  49.0967560  93.9671516  20.3102326
  48.5463762  94.2162418  21.0527062  48.4977055  93.5325718  19.7031832
 101.5128136  31.8444610  14.7142112 101.4511108  32.3581433  13.9088833
 101.7134476  32.4878669  15.3939199  95.9746933   5.7855117  19.7958100
  95.4420567   6.2462264  19.1475272  95.4052258   5.0887990  20.1222014
  66.0842466  26.5805888  37.4545717  66.2326717  26.2368441  38.3355045
  65.1427317  26.4805770  37.3139310  82.0670223   2.5651062   9.4000667
  82.9846573   2.2961955   9.4432068  82.0989799   3.5211456   9.3654376
  45.5837440 104.9818802  11.0030246  46.5137434 105.0529003  10.7878637
  45.3002214 104.1733837  10.5761981 114.7485542   3.3115643  19.6734416
 114.3822289   2.4832386  19.3637407 115.6889534   3.2322708  19.5134485
  76.8822432 102.1324062  28.3998489  76.7869234 102.9908371  27.9872298
  77.5664473 102.2574139  29.0574765 114.2915344  46.9716167   9.3064296
 114.3847847  46.0427332   9.5178664 114.9512959  47.1310329   8.6314970
  91.7002869  47.3951435  16.8998837  91.8305397  47.7576494  16.0236120
  90.8349228  46.9875622  16.8642700   3.5029414  87.1468735  85.8896923
   3.7764099  87.4951744  86.7383003   3.0120850  86.3533878  86.1033916
   7.6058364  72.6828718  80.9237194   8.3162135  72.0418119  80.9488869
   6.8078184  72.1550703  80.8950233  92.8502750  33.9075613  12.1183538
  93.6299801  33.3849907  11.9306707  92.5409317  34.1934299  11.2588096
  20.6494927  79.9518490  92.4260044  21.5814543  79.9741983  92.2087860
  20.6270003  79.7786903  93.3671379 115.6713009  25.2707124  20.1747322
 115.7443523  24.4162130  20.5998540 116.3685513  25.2723551  19.5189369
 103.2186890  42.4801254  32.9669595 103.0339527  41.9382906  33.7341094
 103.8801670  41.9884920  32.4801588  19.5246351  25.9872723   6.2949586
  19.6282339  26.7072654   6.9171405  18.6831892  25.5923796   6.5235609
  77.9295492  34.1956687  30.6570864  78.1537294  33.6761284  29.8850441
  77.1677876  34.7087955  30.3875399 111.1319542 104.3832970   4.4000170
 110.2495956 104.5656395   4.7231573 111.5079784 103.7912369   5.0513971
  91.3052368   4.8650268  78.5893965  92.0028687   4.3788558  79.0289211
  91.7341709   5.6552196  78.2610083  90.3907394  26.7897916  44.2826319
  89.9444675  26.1921000  43.6827660  90.9410477  26.2215447  44.8215961
  83.6940384  26.0423851  18.1168330  83.1875610  25.2570415  17.9096138
  84.5789433  25.7189941  18.2859528   2.7259549  29.0517616  14.4933355
   2.6605830  29.6182537  13.7245405   2.4940780  28.1812453  14.1698146
  36.5138769  59.1176510  68.3035231  36.1155939  58.3799791  67.8415155
  37.4554491  58.9542818  68.2488871 104.3737030   6.3761163  37.6391149
 103.5730171   6.3753188  38.1636477 104.6013832   5.4508466  37.5481868
  10.8630812   1.7284614   8.8088745   9.9939215   2.1112539   8.9283067
  11.3774347   2.0690748   9.5407581   7.3743260  24.0795231   4.9908271
   8.0370474  24.2206860   4.3147323   7.8501773  24.1736555   5.8160156
  22.8894567  90.6773281  69.9718714  23.2090521  89.9963474  70.5637741
  23.0595446  90.3320503  69.0954638  12.9849625  52.8381014  27.4458909
  13.2927167  52.9588079  28.3441949  13.7399113  53.0624676  26.9018865
  83.2352448  15.3847468  93.2760143  83.9387131  14.7781289  93.5070610
  82.6386547  14.8654866  92.7368641  52.4847031  17.4260950  94.0701675
  52.2731256  16.9743633  94.8871136  52.1464014  18.3131349  94.1924095
 111.0699463   3.5851744  41.6846609 110.1783371   3.6635578  42.0239449
 111.5543842   4.2866707  42.1199274  57.9861212  99.1265202  17.2459018
  57.9269600  98.4731960  17.9429650  58.1560516  98.6168289  16.4537120
  61.2799835  71.5629053  79.8601389  61.4233208  71.6990805  78.9235783
  61.4817286  72.4093914  80.2588844  97.7763176  39.9107838   7.6166487
  97.3931313  39.2969966   6.9900149  97.0376492  40.1967716   8.1540710
  83.2669926  49.1870594  16.2362099  84.1336155  48.9588499  16.5725338
  83.4305000  49.5028877  15.3475308  61.2868595  18.5741985   5.8171457
  60.7015467  18.7082160   6.5625858  62.1313763  18.9154601   6.1113513
 113.9842987  43.7353945  26.5236998 113.8387012  43.2676601  25.7013512
 113.4033298  43.3043480  27.1505237  35.2389312   9.6267581  16.6606092
  34.6727514  10.0143206  15.9931743  35.4423261  10.3512132  17.2522390
  87.8363228  29.0937090  15.8624363  87.0519733  28.7616587  16.2992048
  88.5592937  28.6253071  16.2797475   5.2434742 106.0155392  85.7923985
   4.3564993 105.9587479  85.4370403   5.6012082 106.8197060  85.4161358
 107.9215905  -0.0143539  17.5130606 108.5910747   0.5787839  17.8539670
 107.0923802   0.3779114  17.7865160 114.3642902  20.6227875  32.4763393
 114.6897793  20.7421970  31.5841341 114.6710491  21.3966870  32.9487872
 100.2741718   8.0223560  42.6581573  99.9484539   8.8991827  42.4549103
 100.3364277   7.5869465  41.8079996  65.8031178  40.2973461   1.8390886
  66.4185667  39.6978354   1.4171413  65.4518747  40.8243370   1.1213533
 111.4690495   6.9383222  40.0112104 112.1444988   6.2609625  40.0457335
 111.9095516   7.7315724  40.3160858  94.3083191  40.2957630  19.5130348
  93.8551426  39.5181251  19.1872287  93.6535835  40.7499075  20.0434208
  97.3103237  18.7615991  11.4291072  97.9981804  18.1331789  11.2096143
  96.7313957  18.7589836  10.6668293  85.7510185  14.1894448  11.2995100
  85.4536533  13.3789039  10.8861923  85.5609989  14.0676641  12.2297227
   6.6783410  25.2869868  24.9499750   5.7603091  25.0296211  24.8650503
   7.1596837  24.4596243  24.9535847  60.1335716  99.1986752   6.3992512
  60.7873249  99.8704338   6.2053829  59.2979908  99.6652603   6.3808012
  19.3271255  67.9190874  80.0264454  20.2377915  67.6385403  79.9358225
  18.8153517  67.1252775  79.8709345 104.9092388  11.2748909   6.4578557
 104.6071815  10.4730511   6.8845254 105.4560757  11.7047298   7.1154559
  12.1073365  78.4271240  79.1784286  11.2777138  78.6364698  78.7493181
  12.7415657  79.0204191  78.7759495 104.5368958   2.1796644   2.0642553
 105.3589916   1.7069951   1.9339697 104.5863914   2.5028211   2.9638949
  64.6538115   0.5590634  48.6232996  64.5558786  -0.1592461  47.9982615
  65.2378702   1.1788537  48.1863070  32.7654076  70.1844835  85.4445648
  33.7093830  70.1868200  85.6031132  32.6228261  69.4412899  84.8584270
  19.9284339   1.3357870   7.5291616  20.5519271   1.8002322   6.9707906
  19.1092348   1.3467935   7.0341623  80.3110409  26.3305306   1.4990693
  81.1005592  25.8422279   1.7324200  79.8870945  26.5150905   2.3371851
  12.1037626  36.1662698  47.8308058  11.7246068  37.0408344  47.7435732
  12.9945850  36.2565780  47.4924088   7.1193868  63.6350012  81.0964394
   7.3817366  63.0705547  81.8236256   7.8184682  64.2858791  81.0341644
  29.1671467   9.8783988  36.3926649  28.9254880   9.1315579  36.9404459
  28.3540440  10.3728330  36.2895417  84.9185753  31.1746001   8.2887465
  85.0924110  30.2336431   8.3135027  84.6844864  31.3986969   9.1894209
  96.5024567  24.7653174  28.4064865  97.1258163  24.1160154  28.0808091
  96.5366554  25.4736829  27.7636194   7.4748594  21.8987083   9.4680524
   7.9532325  22.6788950   9.7485811   7.0062858  21.6105008  10.2513838
  22.7407956  43.2729912   4.8586297  21.8878484  43.5810137   4.5523092
  22.8389549  42.4069643   4.4629011 113.2781887  46.6974449  24.4898105
 112.6019382  47.0233583  25.0836992 113.1032372  45.7589912  24.4195747
  85.2951336 109.3849087  23.8561869  86.2289906 109.4633484  23.6612844
  85.2301598 109.5657063  24.7939110  19.8289108  51.5259552  60.5563641
  19.5981872  52.4016142  60.2461672  18.9910376  51.0686874  60.6278229
   9.0195847  12.7435374  21.4883447   8.5926890  13.2578945  20.8031964
   9.3909240  11.9915199  21.0270309   3.1931973  16.6929185   5.3590089
   2.7972192  15.9824383   4.8543793   2.8907236  17.4914289   4.9264306
  30.9062886  84.6404171   2.8239870  31.1573172  85.4812622   3.2063630
  30.1533914  84.8447609   2.2693500  73.6477327  81.4101696  37.9035974
  73.6694717  81.3477039  38.8585091  74.3203735  80.7966137  37.6080656
  94.6069717  14.9729705   7.5643623  93.9485455  15.5397367   7.1625203
  95.2946758  15.5725873   7.8537828   1.3978046  45.5238295   3.3339331
   2.0498943  46.1411524   3.0023915   0.5673862  45.8371258   2.9754916
  82.7103615  39.4630551  19.4215214  81.9863510  40.0221443  19.1396165
  82.2877312  38.6624098  19.7323096  59.6773148  81.3049793  66.9759512
  59.2051220  81.1904430  67.8006601  59.2468071  80.7039070  66.3679981
 110.0978279  16.6968727  25.5979156 110.3656673  15.7897437  25.7449079
 110.5539894  17.1942818  26.2766886  95.7272530  18.4247315   6.1911976
  96.6100597  18.1579483   6.4475542  95.6290436  19.3058527   6.5520477
  88.2284546  33.5231972  11.8103623  87.6796055  34.1074061  12.3335242
  87.6891041  32.7438021  11.6766512  10.6906068  71.2557507  74.7357321
  11.3251746  70.5831480  74.9830389  10.3332031  71.5654087  75.5679607
 114.2056465   5.6324404  18.3354950 114.8052883   5.7101917  17.5934589
 114.3571281   4.7501612  18.6744189  33.7675595  28.2716060   1.0624285
  33.6650443  28.7865639   0.2620918  33.3689976  27.4261761   0.8559611
  54.8198843 100.9396267  19.2459679  54.9250174 101.8910122  19.2397773
  53.9761209 100.7946777  19.6740866  13.0285227  79.7022486  87.7193069
  13.7196517  80.1882839  87.2694874  13.4967542  79.0855169  88.2820034
   8.8581139  41.5827084  15.6086969   8.5273814  40.8337498  15.1128054
   8.2519484  42.2938681  15.4012132   8.5199076  90.3627777  90.8448982
   9.2655730  90.6658745  90.3268719   8.7912142  90.4921436  91.7536831
  57.1412420 100.4145145  92.5445938  57.5152206  99.8258686  93.2002449
  56.2249517 100.1461315  92.4766254   2.6479498  33.3124709  17.6326287
   3.3547258  33.7047625  17.1199834   2.8889108  32.3889542  17.7053440
  42.8069735  14.4119191  23.1215477  42.6804590  14.6136022  24.0486670
  42.5008011  13.5097671  23.0287361  24.6609044  61.1740589   7.7939934
  24.3261576  60.3296423   8.0958891  25.3500772  60.9489155   7.1690273
  31.5237308  89.5921421  82.9236317  32.1595573  88.9385700  82.6324368
  32.0242119  90.4063797  82.9762173  27.5410914  90.4581547  84.4497299
  27.0307326  90.0731182  83.7373257  26.9703436  90.3934002  85.2154160
  62.5698614   7.6907271  91.0834217  62.7113056   6.7469007  91.0098171
  62.4941587   7.9928660  90.1783180  55.3961754  69.5894957  91.5210915
  54.8531675  69.7806454  90.7563400  56.2741089  69.8757410  91.2690449
  -0.0626983  30.0824261  18.9818108   0.8315812  29.7974849  18.7939453
  -0.1423683  30.0098872  19.9329269   7.4905068  24.9417090  11.7560995
   7.6370680  24.2060399  12.3506916   8.0655426  24.7659612  11.0113323
 113.2995415  28.1199479   5.5342811 113.1589699  28.6139965   6.3419884
 113.2657051  28.7793231   4.8412350  88.6137676  43.6702585  19.0520132
  88.6904049  42.8183651  19.4817066  87.6909924  43.7318563  18.8051713
  79.0176392 108.8644791  87.9072952  78.8943863 107.9809570  87.5602627
  78.4426928 108.9039707  88.6715698 102.8083992  42.8863144   3.0441150
 103.2143593  43.0099535   2.1861276 102.1468449  43.5760260   3.0976972
  83.4879684  53.2400322  19.3687201  83.8717651  52.5219536  19.8720062
  84.0024471  54.0081501  19.6167958  30.7829213  22.5953412   8.4361279
  31.3062286  22.8285718   9.2029297  29.9274039  22.3572731   8.7934071
  38.4316730  29.1087151  15.4613495  38.3349013  28.3860350  16.0815096
  38.0122948  28.7946725  14.6602690 102.2139645  30.1090264  28.2190061
 102.7223206  29.4537234  27.7411103 102.4761105  30.9443879  27.8321195
  74.9473715   2.4391642  62.2161293  74.2213058   3.0528408  62.3277378
  75.2296782   2.2373521  63.1082106  24.2560554  90.0961590  74.3566942
  24.6628690  90.9570694  74.2588568  23.4759235  90.2587700  74.8869658
 110.3471088  40.5388689   8.1338882 110.0641060  40.6709814   9.0387022
 110.2390575  41.3959312   7.7215761  11.9542921  43.8159752  50.3649092
  11.1879051  43.6366367  50.9096289  12.6794875  43.3936310  50.8252859
   4.0606517  80.7237434  93.0733490   4.4942299  79.9202204  93.3607388
   4.7381645  81.3970184  93.1359005 111.8312073  24.6248078  36.9245696
 111.6917610  25.4431796  37.4010754 111.9839859  23.9725852  37.6083040
  79.0529442  67.2741032   7.3085159  78.3191919  67.0378113   7.8759736
  78.7583303  67.0434046   6.4274865   8.8119757   7.5118876   2.1478620
   8.1189495   7.1858948   1.5736884   9.0395933   8.3683777   1.7861345
   4.4465929  23.8604140  48.9048576   3.8049108  23.8700819  49.6150589
   5.2877504  23.7337804  49.3437767  19.5130873  33.0796552   9.4499177
  19.7296393  32.6660967   8.6142707  18.8864970  33.7664390   9.2220050
  98.8260078  38.1559420  36.5648651  98.3855343  37.5128388  37.1204066
  99.4915867  38.5460424  37.1314907   1.0106663  27.5273156   0.2430976
   0.5055050  26.7316270   0.4102004   1.5617852  27.6285386   1.0191501
  73.6880350  30.9393549  34.3879008  74.3096209  30.5054617  34.9723649
  73.4658766  30.2732325  33.7373948 112.5069046   9.7535700  30.2948308
 112.8814983   9.2828715  29.5502782 111.5603828   9.6854907  30.1695871
 103.2549763  51.1091137  45.8803701 103.3101273  51.8318129  45.2551556
 102.3603916  51.1523724  46.2181425  32.6923585 105.1225185  44.0199804
  32.9368877 105.5875969  43.2199001  31.7965984 104.8254108  43.8600540
 106.8398285  20.0580382  10.8743453 107.7808475  20.1695371  11.0095298
 106.7535591  19.1799736  10.5031383  25.3133798   7.5524855  31.1214638
  26.2607622   7.4198061  31.1545324  25.1321268   8.1640732  31.8351436
  83.6300850   1.6993399  85.8217716  83.7226105   2.2668459  85.0565243
  82.7938461   1.9558848  86.2105083  34.3986893  96.1639786  59.5758867
  34.5302725  96.4389801  58.6685324  33.8340688  95.3935814  59.5131826
 113.0317497  12.4751949  12.7760065 113.4486294  13.1126511  13.3557463
 112.0963764  12.5587785  12.9612494  16.3330710  96.3475037  88.9386845
  16.3108170  95.9552193  89.8115253  15.4747689  96.7594051  88.8392544
  13.9104259   8.1132174   7.5853711  13.7436533   7.1715975   7.6274526
  13.7213385   8.3495992   6.6772950  62.8200722  68.7951183  31.4242435
  63.6667824  68.7494278  31.8683410  62.5309753  67.8845119  31.3655019
  35.8734608  90.0409412  91.7325592  35.2605057  89.6671391  91.0994720
  35.8790016  89.4165134  92.4580193  96.6191769  16.2852585   3.8329118
  96.1014080  16.5074813   4.6067059  97.5148296  16.5299165   4.0656823
 104.8276234  11.6920292  89.6310329 104.1640663  11.8956673  90.2901649
 104.5922184  10.8194125  89.3158245  13.8324094  44.1666937  16.2442434
  14.5741713  43.8405895  16.7538261  14.0707767  45.0670958  16.0235798
   9.8587048  55.4848528  20.1136971  10.7367957  55.1204681  20.2251101
   9.4297284  55.3380346  20.9567022  20.1791477  13.5210037  17.2153640
  19.8735511  13.5445321  16.3085628  20.1236224  14.4298792  17.5104821
  26.9422102  87.4666214  88.9050770  27.7669168  87.8193855  88.5709476
  26.7495632  86.7244244  88.3321381 106.2071228  54.6904325  35.0436640
 105.9763718  53.9209366  35.5641103 105.4115963  55.2227068  35.0374126
 109.2616940  35.1167274  33.0927491 109.6428204  35.3638101  33.9353180
 109.0836334  35.9500885  32.6568151  73.0952024   3.2578412  29.5466924
  72.2142887   3.4545937  29.2280889  72.9767036   2.5097042  30.1319122
  67.7717257  98.9166641  22.5556469  67.5328779  99.8030376  22.8268003
  68.1799698  98.5309124  23.3307362  28.7890863  69.1167450  89.6543694
  28.6781240  68.3913136  89.0398216  28.3944416  68.8036394  90.4682827
  15.6759763  60.4978132   7.3815775  16.1902869  59.7296333   7.6297963
  15.7214367  61.0733891   8.1450415   1.2446019  49.2209339  11.0308623
   0.3177968  49.0539122  11.2022328   1.2450550  49.8586226  10.3170133
   9.7186440 108.2182980  90.5012798   9.5406449 109.0909958  90.1506615
   9.5709735 108.3038807  91.4431381  83.0371380  11.2673068  11.8426061
  82.7834034  10.6841493  11.1272204  83.0216312  10.7114339  12.6217055
  86.8952274  33.4204865   2.4745196  86.9247723  34.3681550   2.6059884
  86.9821739  33.3071589   1.5280369 114.7994328   5.7076770   7.9774600
 114.7663593   6.0741436   7.0938087 115.7030296   5.4086328   8.0790651
  44.7623634  94.5415974  74.9817610  44.5880365  93.8966084  75.6672001
  45.7024574  94.7102547  75.0450850 110.3057671  54.6859312  18.9868569
 110.2231598  54.7687721  19.9368811 110.8211517  55.4484558  18.7238562
  24.4140100  89.4962120   9.8672068  24.3538499  88.5444069   9.7854352
  25.1685858  89.6403313  10.4382372  27.1809745  68.2033014  91.8428040
  27.6421213  67.4003601  91.6001987  26.2670708  68.0328178  91.6148949
  19.6580505  65.5195808   4.5304552  20.1376462  66.3373232   4.6628365
  18.9503777  65.5500412   5.1742733   5.8991194  71.3716793  75.4504061
   5.8685535  72.0005417  76.1713982   5.9012979  71.9126081  74.6607113
  35.1144958 106.9436932  49.4428730  34.8934627 106.1072445  49.8524237
  35.1350808 106.7531586  48.5050535 115.4763126  69.8714209   9.3343735
 116.4046478  69.8853159   9.5672369 115.1867676  70.7764006   9.4501573
   5.5174613  37.3974752  33.6022115   6.3043737  37.8587389  33.3119750
   5.1332372  37.9723954  34.2640805 106.0730934  48.4877348  14.6901035
 105.5701637  49.2860126  14.8514760 106.8450832  48.5738325  15.2494371
  78.3383465   9.7841805  53.7139416  78.7330341   9.3795532  54.4864273
  78.9226580  10.5113947  53.4995317   9.6515340  77.6352406  88.3782959
   9.2128384  77.2093773  89.1147804   8.9783120  78.1929731  87.9884911
  16.0314679  22.6555347   0.3333187  16.9490266  22.4912858   0.5508995
  15.6268084  21.7880774   0.3312991 108.0834198  24.2216277  19.7028649
 107.8294754  25.1103687  19.4540906 107.6060104  24.0547442  20.5155540
  21.6009450   9.1613102  36.8731189  21.5306854   9.6314985  37.7039123
  20.8038712   9.3950772  36.3974547  88.1119919   9.0343946  18.6667287
  88.2702446   9.6081477  19.4163930  87.3938084   9.4529831  18.1921554
  91.7003345  21.8807602  23.0129337  92.4259472  22.0190883  23.6216974
  90.9189320  22.1116138  23.5152650  83.3985233  21.3729382  24.1117525
  82.8887272  21.9728184  24.6562624  83.0238628  20.5103755  24.2902207
  22.0938206  26.0123849  10.5972993  21.1770558  25.7603717  10.4865694
  22.1544600  26.8785405  10.1944017   4.4494221   7.9043698  22.7564669
   4.7223786   7.0144361  22.9795027   4.2460269   7.8653902  21.8219399
 114.4483757  29.9824119  24.9672484 113.8265991  29.9935627  24.2395806
 115.2002048  30.4811788  24.6475363 108.9828491  15.0706422  31.2445641
 108.2991219  14.7101772  31.8092084 108.5522461  15.7829273  30.7718420
  15.4551673  37.2150111  49.3090916  16.3942051  37.3990250  49.2850304
  15.3953505  36.2633824  49.2251015 105.1197052  59.3962479  32.1986628
 104.8897457  58.7526941  31.5284467 104.5598888  59.1768837  32.9434514
  97.7993774  64.1488647  14.6731710  98.5146999  63.7854624  14.1511691
  97.4602032  64.8712730  14.1446638 108.3929825  23.8947892  25.7458568
 108.1251335  24.7931838  25.5525231 107.5958920  23.3773160  25.6313610
 100.9807014  22.4167824   6.4234126 100.5602074  22.1241689   5.6148344
 101.8864727  22.1175718   6.3441938  29.0762377  98.1684303  89.7372341
  28.9738989  97.4699211  89.0908337  28.4788227  98.8561440  89.4433308
   8.4487528   2.8457099   9.7803658   8.2166523   2.1858644  10.4337919
   7.6480746   3.3564618   9.6608710  39.8554707 106.7173576  92.9103470
  39.8016810 106.1963081  92.1091938  39.0014839 106.6039848  93.3275795
 101.5097141  37.3790097  22.2610164 101.9484806  36.5619278  22.4978709
 101.0862732  37.6666665  23.0698299  98.9344025  22.9270363  18.3836746
  99.3249321  22.6059747  17.5708783  98.0261612  23.1216407  18.1524777
  26.7786622  64.8345900  21.5318871  26.2064910  64.6572542  22.2784829
  26.4889121  64.2207861  20.8569622  36.2881231  71.9471502  69.1247082
  35.7304668  71.1694527  69.1456079  35.8733010  72.5558233  69.7359943
  54.2330694  66.7359734  82.8537750  54.9593067  67.1548653  82.3918915
  54.0042782  67.3523808  83.5494232  14.8377848  11.1405325   3.5210437
  14.9680102  10.8693027   2.6123589  14.4720387  12.0228207   3.4575769
  82.8449535  33.9924741  12.3476517  82.4030972  34.3963933  11.6007626
  82.1340656  33.7203646  12.9280102 110.0908661  53.0531549  36.3397145
 109.9915504  52.1015978  36.3096833 109.3856621  53.3495331  36.9151092
  71.0455751  43.6089087  55.8297682  71.8945122  43.1913328  55.6842947
  70.7734680  43.3032751  56.6950893 106.1598778  96.4396095  85.4661942
 106.4565182  96.1212540  86.3187695 106.7166138  95.9851933  84.8339081
  27.7124524 101.0137653  41.2219429  27.8713608 100.7481861  40.3161573
  28.5844421 101.0625935  41.6137075  69.0160847  95.5218315  93.1769180
  69.6427679  94.8035145  93.2636166  68.6581898  95.6350327  94.0574455
  15.8919501  17.0111084  22.1280169  16.1686802  16.1365700  21.8544555
  16.1533678  17.5819802  21.4055228  98.8874626  57.3467207  20.5182171
  98.9069462  57.4175930  19.5638442  98.4080219  56.5359259  20.6884384
  81.8071175  56.1530685  33.5818291  81.5019703  56.3247156  34.4726992
  82.1422482  56.9962168  33.2768250  87.5537395 103.5165691  20.3745961
  86.9214058 103.0671978  19.8138404  87.1007729 104.3108654  20.6576991
   9.4734335  38.5927510  13.0018711   9.9567199  37.9936361  12.4329019
   9.7240031  39.4654226  12.6987350  23.0916786  44.4907618  19.5314145
  23.2294941  44.3730354  20.4712963  23.0898118  45.4397917  19.4066370
   2.7882752  16.5931880   8.1187236   3.0472270  17.4687183   8.4061646
   3.2696366  16.4568782   7.3026711  11.4074206  58.2036448  35.9948015
  11.1036038  57.4161959  36.4463019  12.3597527  58.1811047  36.0885501
  96.7690849  49.1911459   2.9990456  97.4452686  49.0498447   3.6616462
  97.2551537  49.3214941   2.1848097  63.1406021  96.6475201  86.8195724
  62.4250364  96.0216236  86.7079926  63.8154268  96.1583996  87.2903156
  17.2343218  25.2636242  25.4116750  16.8896365  24.9052143  26.2295771
  16.6412055  25.9835649  25.1968980 113.0741692  45.8086586  47.4866247
 112.7585697  45.3928375  48.2889462 113.7410355  46.4276075  47.7839804
   6.0468185  77.1239805   9.0992612   5.6048518  76.4204788   8.6238903
   6.6192257  76.6715813   9.7188693 112.7433395  49.7561169  20.6389880
 112.6049519  50.6252289  21.0154557 112.2200108  49.1715097  21.1872554
  29.7845149  12.5687993   7.2638404  29.4940972  12.4043560   6.3667077
  30.2801466  13.3858645   7.2091770  18.3041525  56.4479256  27.6109767
  18.9115047  57.0343208  27.1598721  17.8204751  57.0178604  28.2088566
  53.4005404  65.9610796  91.3355923  53.8627577  65.2671242  90.8654690
  53.1850529  65.5733109  92.1837807  20.6511021   8.4720391   2.4952757
  20.4399228   8.7693083   1.6102526  20.6997633   9.2758620   3.0127046
   3.1881168  35.7129622   6.7968935   3.6068863  35.2671385   7.5331712
   2.6546732  36.3963270   7.2027045  88.6221790  46.1286449   2.3355523
  88.2360172  46.3171482   1.4802299  89.1141605  46.9196463   2.5558019
  40.2454662  73.4216404  91.3831615  40.3564739  72.6566076  90.8186817
  40.5145264  74.1617966  90.8390999 102.1053123  34.3984318  15.9452438
 102.8106213  34.9137759  16.3366354 101.4578819  35.0479388  15.6709874
   9.3719548  17.2208023  55.0055885   9.7160697  16.3780117  55.3014231
   8.4481031  17.0509923  54.8214865  53.4448338  97.7722073  11.1944890
  53.0612135  98.5512829  11.5971148  52.7224445  97.3725986  10.7100224
  19.1797543 101.5905380  19.7694910  19.8963296 101.1834812  20.2563763
  18.8887489 100.9123421  19.1599059   2.1777974  83.0111504  88.7273502
   2.9589537  82.5782871  88.3828735   1.4980373  82.3379040  88.6973953
 103.4989834  85.0580215  84.5167160 102.6628590  85.3978920  84.8354816
 103.3144474  84.7670555  83.6236763  13.0763233  70.3773975  72.3325300
  12.2066510  70.0003767  72.1992683  12.9085159  71.2912989  72.5624418
 113.0895615  26.7482495  10.6203544 112.7230072  27.6297188  10.5504715
 113.0062771  26.5270662  11.5479183  52.6545048  83.7938023  92.1573639
  52.4581623  84.5904541  91.6643810  53.5893965  83.8573265  92.3527336
  88.7460380 109.6797151  31.0023785  89.6436267 109.7924129  30.6895447
  88.4348564 108.8909600  30.5582356 115.5028343  16.6252136  13.5369539
 115.4140568  17.4148846  14.0705931 115.1403046  16.8695700  12.6854312
  86.1575222 103.2182407  16.4926445  86.1038303 102.6234341  17.2406793
  87.0543861 103.5518932  16.5158403 103.2605171  80.4898834  12.0605183
 102.8789616  80.0385857  11.3075352 102.5965214  80.4156208  12.7459562
  30.0829720  74.4877768  79.7120953  29.9222636  73.7381363  80.2851963
  30.6948423  75.0370646  80.2021313  80.1425457  36.2849927  22.6433468
  80.7757378  35.6753492  23.0223417  79.3620062  35.7533526  22.4872994
 102.5543594  15.1654482  73.4263086 101.7317867  15.5951142  73.6608219
 102.4289322  14.8868775  72.5191689  23.6447906  17.9329205  27.0146418
  22.9496169  17.8721011  26.3594556  24.4246101  17.6037431  26.5677023
  23.2233810  63.6035585  51.1766720  22.4850154  63.1408978  50.7804394
  23.5758948  62.9869509  51.8183565  37.7375722  16.6186559  87.8559399
  37.2798467  16.1404800  88.5473633  38.6646080  16.4416909  88.0156803
  25.2973270  39.3466043  23.2690501  25.9385848  39.2457247  23.9724994
  24.8403430  38.5060668  23.2391834 106.5988445  49.2879200   1.1832709
 106.4805889  50.2373409   1.2125017 106.8453693  49.0496397   2.0769605
  80.6793499  60.4637337  21.4576483  80.6721878  61.3959599  21.6747403
  80.1551056  60.0535870  22.1455359  23.8051915  21.7736793  15.6704247
  23.4663963  20.9178758  15.4076517  23.8086748  22.2880507  14.8631823
  26.7586684  22.6063108  14.9734664  26.8327880  23.3536720  14.3800128
  27.6057291  22.5682259  15.4176176  11.6092610  50.6076288  28.3106112
  12.1950269  51.3156891  28.0427289  10.9326601  51.0405397  28.8312149
   5.2241302  33.6938119  15.9604657   5.6783348  34.3617916  15.4469180
   5.6001973  33.7691307  16.8374681 113.7494558  48.6039567   0.6765998
 113.6743492  48.7420582  -0.2676045 112.8623289  48.7390732   1.0097373
 105.8221817  49.0407848  35.0224161 105.5090904  48.2763195  34.5388889
 106.0611916  48.6980867  35.8836126  17.3875439  60.8616924  52.1159983
  17.8177512  61.4785528  51.5238523  17.6764536  61.1267662  52.9892063
  18.1282401  66.9322348   1.1567019  17.9757106  66.2513399   1.8119514
  17.3995781  67.5423050   1.2711459  99.9742699  21.3311696  10.3397000
 100.8862782  21.1618543  10.5759227  99.5470238  21.5420771  11.1698830
  96.6848469  12.7919698  24.3781996  95.9864807  13.3711469  24.0731215
  97.1376991  13.2976532  25.0530624 102.7798939  38.8953519  12.3437667
 103.4229565  38.4055543  12.8564060 103.2963657  39.5509195  11.8750298
  84.5234680  47.3157167  32.0221138  85.0002098  46.5654898  32.3772335
  85.0842381  47.6452351  31.3198423 104.9517632  33.8579345  13.9623189
 104.3628502  34.4230127  14.4624209 105.7151413  34.4067645  13.7827027
  62.2277403 107.8907967  93.5848427  61.8522072 107.9343796  94.4642258
  61.4711571 107.9236412  92.9994106 107.0135403  46.1559153   5.0600564
 107.6692486  46.4793491   5.6778538 106.7706013  45.2939653   5.3980702
  63.3479977  85.5964088  89.9981785  63.3828259  86.3563633  89.4172478
  63.4947968  84.8469162  89.4211578  98.6448669  61.9811058  11.5748775
  98.9303493  62.5253773  12.3087025  99.3279552  62.0929670  10.9137392
 101.6249275  25.1616001  36.3643241 102.2876644  25.3866315  37.0173001
 101.3884830  25.9986520  35.9647346 115.7910538  61.2297297  11.7414522
 116.6029549  61.6832638  11.9680631 115.1943874  61.4323378  12.4619853
   2.9147530  35.2079988   1.8538328   2.6484823  34.8991609   2.7198300
   2.0965934  35.2754807   1.3616005  62.5054646 103.4851170  91.0014534
  62.3856783 102.9675674  90.2051926  63.0380630 104.2307281  90.7246304
  11.8113422  26.2336540  17.8054881  11.7733645  25.3055644  18.0366540
  11.0931432  26.3553977  17.1845198 109.5884895  34.8275757  20.3718805
 110.1089191  34.7550964  19.5718014 108.7564468  35.2025652  20.0832319
  90.1057907 109.0919614  94.6679147  90.0375171 110.0245881  94.8723313
  89.5327135 108.6646581  95.3044907  17.2042489  51.3035059   0.6501884
  16.3557446  51.5183783   0.2627572  17.3610282  50.3945255   0.3944489
  45.0838614 103.5898209  92.0513058  44.8421764 103.6915588  92.9718876
  44.7483730 104.3794823  91.6269207  55.4171515  82.5424862  86.8551350
  55.1479769  83.4561157  86.9502640  54.8134661  82.0553112  87.4159050
  72.9895592 105.4798985  86.4654255  72.6813126 105.9836960  87.2186947
  72.9312706 104.5671272  86.7476940 107.9219246  52.2045612  38.1830406
 107.8937626  52.5828743  39.0618563 107.2143936  51.5598965  38.1770062
  76.4489269  80.0309277  79.1329145  77.0506525  80.3598499  79.8007250
  76.9778728  79.4287968  78.6095715 111.7294788  67.2706127  13.5992563
 112.3280048  67.7826452  13.0553603 111.3069344  66.6673660  12.9878795
  14.3222320  63.9335155  21.0841727  14.5031357  63.8038588  20.1532078
  13.7980866  63.1727123  21.3345385   9.3027359  11.8988037  88.9575577
   8.8313651  11.1917770  89.3981934   9.8300964  12.3014486  89.6474934
   9.6375525  81.6024399  18.9876163   9.4739765  81.6880989  19.9268377
  10.2655244  80.8833408  18.9184713   5.6712657  60.7841587  24.3514252
   5.2334589  61.5551329  24.7121978   6.5228426  60.7660151  24.7881413
  48.7118769 102.3165607  84.1694164  49.1210175 102.8279591  83.4713364
  48.1500196 102.9421329  84.6268082  63.9147139  90.8198547  93.1819534
  64.7471189  91.2808037  93.2861710  63.9068460  90.5439281  92.2654152
  58.1258535  83.9357471  92.0826530  57.9139996  84.6318245  92.7046013
  57.2775221  83.6542320  91.7401409  18.3247721  31.7168522  30.4951453
  18.1155646  31.7905068  31.4262938  19.1625190  31.2543035  30.4737425
  38.2331395  48.7665796  16.6093898  37.8964114  49.4954586  17.1305227
  37.7174330  48.7901068  15.8033347  67.3998690   9.1496098  90.3869057
  67.2410679   9.6371388  91.1951923  68.3080912   8.8560134  90.4587841
  22.4273324  74.3720341  28.5530543  23.1696224  73.7756729  28.6510062
  22.2388434  74.3677139  27.6146054 104.1816807  44.1660500  10.0289905
 104.3898487  45.0153112   9.6395618 103.5848713  44.3722582  10.7483828
 109.2493153  44.7722769  32.9856825 109.0482044  44.0984297  33.6350775
 109.6605206  45.4749250  33.4891009  13.0444014  73.3057213  13.3542359
  13.4417450  74.1726589  13.2719898  13.3949041  72.9584408  14.1744661
  32.3634887  44.1893435  45.8508825  32.0349383  44.7888041  45.1808596
  32.3627949  44.7066689  46.6562414  98.2300854   8.6283106  84.1746807
  98.6588287   9.0324718  83.4203148  97.3802185   8.3404803  83.8413525
  11.3056731  37.3825288  21.6428471  10.3748953  37.1823120  21.5438628
  11.3353848  38.3322382  21.7586136  10.8481789  57.9031467   6.6051310
  10.2942514  58.6712313   6.7445785  10.8709514  57.7936792   5.6544840
 113.4824944  84.1670322  14.7684872 114.3562317  84.3333721  15.1222563
 113.5743237  84.3099022  13.8264740  81.9261265  84.4883919   6.0726458
  82.2773457  83.7085533   6.5024489  80.9951878  84.2987633   5.9559107
   5.8565909  74.2457676  45.4187250   6.5269291  74.4488716  44.7663212
   5.4154408  75.0804281  45.5767059  59.7342348  83.5662365  74.9220419
  59.6229219  82.7348137  75.3831053  59.9219656  84.2005157  75.6139088
 104.3531418  40.5583572   7.8691351 103.9754391  39.7347665   7.5604874
 103.8407993  41.2366247   7.4290347  64.3203497  73.8460398  73.1013823
  64.7777414  74.5302868  72.6126814  63.4118080  73.9076614  72.8064489
  37.8858876  80.2843094  19.1984332  38.3256793  80.6204128  18.4175038
  38.1762600  79.3745756  19.2639983 113.7215996  45.5451202  18.8421357
 113.7891674  45.8932877  19.7312045 114.5236683  45.8371258  18.4089553
  61.4089441  27.0486259  91.3080883  60.7439137  26.5721893  90.8111191
  60.9659576  27.8462672  91.5975094 111.9236374  58.6829472  10.6445754
 111.0694695  59.0054369  10.3571200 111.8542576  57.7304697  10.5797458
 116.5939035  62.5229502  84.2188549 116.4090711  63.2943916  83.6831856
 115.9868718  61.8566370  83.8967228 110.5464840  46.2182474  15.3565919
 109.6004391  46.1663389  15.2204204 110.7074356  45.6759501  16.1287594
  71.8603659 101.0015678  89.2547321  71.7538881 100.2147007  89.7892666
  71.2535000 101.6351128  89.6375656  27.4002695  86.2489414  25.8791065
  26.7772150  86.3678455  26.5959716  28.1197858  85.7510662  26.2672353
  16.3886213  84.5464993  67.8701115  17.2097719  84.6717548  67.3944473
  15.8079708  84.1226768  67.2380924  45.6085539  84.9286652  79.1455269
  45.4383898  85.8469009  79.3555737  46.5511799  84.8240757  79.2749357
  25.1848364  34.2226171   3.0974677  24.3533087  33.7494111   3.1269768
  25.1301312  34.7536826   2.3029819 112.7426529  20.0768995  20.9795189
 112.4527454  19.9166143  21.8775678 112.4500561  19.3066812  20.4923034
  94.8096085  76.0910797  22.1591687  95.0620079  76.8536186  22.6798010
  95.6086922  75.8435631  21.6939425 111.4569283  17.2072768   3.0147657
 112.3679066  17.1931481   3.3082938 111.0114384  17.7749729   3.6436439
  38.9384604  19.7028446   3.1522253  39.3385434  20.4280710   2.6724190
  39.1000915  18.9349329   2.6041201 105.4931927  31.5650535  41.9789648
 104.8001099  31.3608980  41.3511181 105.7295132  30.7186675  42.3584604
  64.2268372  97.9266644  82.6545429  64.0364885  97.0256138  82.9155159
  63.8297129  98.0140209  81.7879963  17.9296975  36.1665845   0.1657451
  18.0273537  35.3315758  -0.2919328  18.8263325  36.4773869   0.2909339
  89.3703651  18.7484050  82.8252316  88.5332012  18.4681404  82.4552917
  89.5572472  18.1053805  83.5092068 104.3511772  76.8029833  34.3709755
 104.2903042  75.8731413  34.5898986 104.4283009  77.2437191  35.2171636
  35.0952935  35.9392929  38.3221674  34.5729613  35.7701588  39.1062570
  34.9871421  36.8764138  38.1598711 113.5609531  51.7267466  12.3197782
 114.3467903  52.0017719  12.7920592 113.0372524  51.2650537  12.9746091
  30.0596714  35.6751466  13.7263870  30.8359718  35.6811070  14.2863476
  30.2571630  35.0272131  13.0500662  11.5490186  49.5244074  47.7979136
  12.2738087  50.1238012  47.9757738  11.3518858  49.6555042  46.8704510
   2.7244252  28.7614918  19.2853642   3.2842070  28.0084085  19.4744205
   2.6797342  28.7927938  18.3297205  28.5468626  49.2118263  14.7660232
  28.4466505  50.0166607  15.2743900  28.1834292  48.5270691  15.3274965
  48.1911659  88.3517742  89.6743107  47.4624586  88.6369705  89.1230488
  47.8029394  87.7142906  90.2735901  20.5322337  67.8234529  13.9793599
  21.3879347  67.5953865  13.6160529  20.5019665  68.7793255  13.9390647
  24.0881491  24.9166799  73.1452417  23.5156035  25.0663900  72.3929071
  24.5622182  25.7411933  73.2532692  44.8816633 107.4713516  10.5091882
  43.9913511 107.2653866  10.7940638  45.3183842 106.6213226  10.4547250
   8.9686847  48.4810257  59.0858746   9.3795228  48.0026340  58.3657455
   8.7243742  49.3243456  58.7046242  27.5704336  80.6314278  19.7985721
  28.3978724  81.0561752  19.5723677  27.6112342  79.7801256  19.3628502
  37.5330997  83.5929680   3.7085813  36.5925169  83.4324837   3.7846091
  37.6617479  83.8327789   2.7908835  37.5177956  48.7110758  64.7318029
  37.6616931  48.3829260  65.6194115  36.8971276  48.0930948  64.3456650
  93.5870647  31.0825539  80.6577492  94.2653370  30.7966709  80.0458241
  92.8079700  31.1996603  80.1141262  18.8760948  59.6461916  18.8572156
  18.7579024  59.4303846  19.7822511  19.5728767  60.3024673  18.8515091
  35.5450845  43.5847855  79.6274328  36.0227299  43.5656500  80.4567242
  35.1155448  44.4401455  79.6181154  60.1081181  67.2847509   9.5568323
  59.8179865  66.4641142   9.9550873  60.2062893  67.8872252  10.2941370
   7.1887720  33.0189204  94.5730877   6.8420804  32.9809618  95.4644871
   6.8373579  32.2377062  94.1459560 100.3597069 101.3886356  11.8430781
 100.8602715 101.4039421  11.0273349 101.0072041 101.1836815  12.5175965
  24.2135715  66.1799049  10.7647920  23.3407521  66.1721992  11.1576784
  24.6350765  65.3894901  11.1021531   6.7870301  39.2595029  63.5262394
   6.8898863  38.5454559  64.1553545   5.8524799  39.4653296  63.5482264
  34.6333838  28.5061455  77.2313452  34.6368670  27.5514936  77.3010540
  33.8567805  28.7052798  76.7084074 103.8898945  15.3610504  77.7096701
 103.2692909  16.0888660  77.6726246 103.9273453  15.0322711  76.8114853
   6.1639822  37.9429650  93.2259846   6.3250327  38.8230014  92.8856468
   7.0073289  37.6669002  93.5848522  28.7243271  91.0212898  14.1915905
  28.8703871  90.6947041  15.0794196  27.8947711  90.6255531  13.9242685
  22.0320344  33.3657193  81.5168190  21.1695695  32.9545164  81.4593697
  22.0544171  33.7541270  82.3913860  46.7376518  85.8767891   9.8840773
  47.4161291  86.4965630  10.1519990  46.9772959  85.0574017  10.3169775
  39.1112065 104.6374702  46.3338089  39.8253608 105.2743340  46.3089085
  38.8597798 104.5954990  47.2564411  64.5698282 100.4595457   0.1570190
  64.5623896 100.6167780   1.1011852  65.4819915 100.2500473  -0.0437295
  50.3515482  89.6948338  48.3263397  49.4946909  89.7387695  47.9019547
  50.4447365  90.5400085  48.7659073  57.6060820  97.2965336  19.1404676
  56.8524742  97.0974827  19.6960604  58.2737541  97.6154327  19.7477150
  63.7841415  92.3392391  47.5751925  64.3032455  93.0543900  47.2073221
  63.9280128  91.6063023  46.9765854  12.5598347  49.1664171  50.8684778
  12.8908730  48.7619734  50.0665617  12.5509346  50.1043606  50.6776428
 108.8436031  26.1632156  60.3420973 107.9920006  26.4003778  59.9749899
 109.1429520  25.4329944  59.8004341 110.9762383  54.6631241  94.0864849
 111.0044193  54.2027140  93.2477570 110.3123665  55.3418970  93.9649200
  58.4722519   3.8064256   4.4238392  59.0526104   4.4765869   4.0628716
  57.8281260   3.6501694   3.7332469  84.1733646  59.0198946  11.2811422
  84.4611454  59.6555567  10.6258965  83.6591434  58.3819580  10.7863152
  33.4804916  64.9962568  90.9668064  32.7923679  65.6384087  90.7925701
  33.7411213  65.1642418  91.8723965  71.4899397   6.6425031  33.4597683
  71.5065813   5.8637553  34.0161014  72.4106741   6.8176675  33.2653332
  10.4737854  24.9349284  67.2544193  11.0448360  25.6347823  66.9376612
  10.0537610  24.5928741  66.4652348  10.1439536  64.9426317  92.6192188
   9.4849586  64.2678070  92.7822399  10.4275560  65.2161503  93.4915733
  87.3885632  54.0111542  92.9547119  87.7695847  54.1879845  92.0946026
  87.2816277  53.0602407  92.9783916 107.9028893  52.7487040  63.6493778
 107.4502182  53.5602427  63.4197617 107.6502132  52.1310949  62.9631233
  50.4879951  74.7907066  14.4686306  50.4780293  75.2038765  15.3320122
  49.8102236  75.2519464  13.9745474  28.6823034  21.2144589  80.4200649
  27.8325057  21.5983248  80.6362247  28.4724426  20.3459239  80.0767994
  37.1310616  31.5920854  58.9110184  36.4240289  30.9939766  58.6689377
  37.1340799  31.5844202  59.8681831 110.6655693  98.0130863  85.1560783
 111.4670277  97.7511215  84.7030163 110.1766396  97.1978951  85.2685452
  35.6383920  22.5144458  76.7005014  36.0390091  23.0436802  76.0108280
  36.2433052  21.7827725  76.8228388  34.1508508  54.2355728   7.0800000
  33.6895156  55.0702143   7.1623296  33.4818149  53.6207914   6.7788965
  61.9471216  88.9222336   6.0392559  61.8897915  88.5670280   5.1522535
  62.0499611  88.1527615   6.5992188  65.5226994 106.6015053  22.6323962
  66.3976669 106.2137890  22.6507306  65.1139879 106.2334156  21.8490076
  14.8343566  19.7972263  94.4647184  14.6207097  19.0215172  94.9832390
  14.1183475  20.4076256  94.6407111  32.4331665  52.1413279  91.9437218
  33.2209587  52.2403336  91.4091015  32.5436020  52.7749586  92.6526260
  23.0835509  99.7982597  22.5702643  23.3870125  99.0903568  23.1386018
  23.6831856 100.5226421  22.7489829 102.5293827  36.6076207  76.2000418
 101.5889549  36.4313984  76.2277031 102.9178143  35.7877779  75.8947325
  60.8564138  70.7514191  30.5794191  61.4502335  70.0008535  30.5954313
  60.9525299  71.1513567  31.4437342  29.3068600  78.7664318  10.5813706
  30.1721478  79.1611528  10.4731822  28.6960459  79.4959593  10.4768538
  40.0959539  49.2885160  59.1023779  39.5978570  48.8259077  59.7762680
  39.5355511  49.2579460  58.3269787  22.3887157  15.6286347  72.8121662
  22.6858163  14.8042119  73.1972504  22.7952790  15.6485736  71.9458294
  51.4881611  13.4302139  13.6452520  51.7482376  12.5813162  14.0029716
  51.9209290  14.0707481  14.2097509 104.2412949  41.5279818  81.6339779
 105.1089668  41.8345022  81.8974590 103.6982536  42.3162317  81.6351509
  99.5697403   5.5252939  36.1562181  99.4867992   5.7717240  35.2350116
 100.4268932   5.1033217  36.2150288  65.7421494  75.0844431  10.2057815
  65.4445982  75.4896116   9.3912065  65.0080013  74.5361996  10.4827106
  17.7308309  29.0435457  84.4121075  18.6799967  28.9596462  84.3211365
  17.4457371  28.1918645  84.7431469 114.3365383  61.0273647  61.1137104
 113.9642715  61.9079208  61.0660601 115.2620029  61.1690283  61.3128757
  84.0445042  92.9126740  11.0362017  84.0730667  93.7766933  10.6252539
  84.5256996  92.3450565  10.4341233 103.9830017  34.1795349  78.2912970
 104.0273380  35.1308060  78.3879852 104.1035271  34.0282011  77.3538494
  13.1403148   2.4221006  76.5661049  12.4683225   1.7616509  76.7348194
  13.2115483   2.9068163  77.3884249 107.0926952  75.8281612  80.5811691
 106.4728165  75.8391571  79.8518801 106.6662312  76.3435841  81.2657833
  27.4728537  72.2825527  90.5407238  28.0608964  72.1910334  89.7910118
  26.6862178  72.6912594  90.1796246  84.4364166   8.0170983  16.5722191
  83.8440514   7.8041577  17.2933304  85.1914501   8.4259874  16.9952595
  20.3437424  40.2456808  61.0165882  20.8432722  40.5614853  61.7695618
  20.2717543  39.3014145  61.1559105  29.7850156  85.7197571   7.2691274
  29.8727560  84.7667694   7.2508079  29.0807819  85.9074211   6.6485846
  66.2362814  87.4111938   0.1012206  66.9250870  87.8993797   0.5522788
  66.6958666  86.9268322  -0.5846459  17.2523618  42.4872494  72.7971411
  17.1970999  43.0854416  72.0519257  18.1535292  42.1650553  72.7793264
  21.2644815  21.3677931  62.5197792  20.5061913  21.4584756  61.9427156
  21.5973973  20.4882598  62.3413897  34.3273711  94.6986008   7.5294012
  34.2252445  93.7562466   7.3960614  33.4510922  95.0568676   7.3879409
  17.4340737  12.0682800  75.8400202  18.3901298  12.1128857  75.8259392
  17.2343504  11.1507320  75.6544209  12.1651042  65.7888079  61.1485529
  12.3235667  64.8448706  61.1383390  11.8900239  65.9951687  60.2552557
  64.4936228  77.3972511   1.1397728  65.2956867  77.8613949   0.8999863
  64.6107960  76.5166664   0.7833080  13.9311540  64.2111540  86.1150360
  13.4572315  64.7453499  86.7524242  13.3344996  63.4894562  85.9165764
  62.7764654   9.2195958  15.6818676  62.9617214   8.4016621  15.2204609
  63.6333895   9.6314394  15.7927310  66.5377092  91.0015392   9.4925106
  65.9831572  90.3901768   9.0078002  66.1465788  91.8599796   9.3302476
  44.3574429  87.1883965  16.1360335  45.0920153  87.0040607  16.7214036
  44.6188974  87.9799271  15.6655514  19.8819697  62.4855518  87.0188427
  19.0357149  62.0541525  87.1370697  19.7162306  63.4023285  87.2385788
  20.2666783  89.9443626  70.3529501  19.6950674  90.6566715  70.0663996
  21.1315274  90.3473473  70.4295540  55.6570673  99.5206928   3.4573153
  55.8774614 100.3179550   2.9756090  54.7244596  99.3881989   3.2872707
  29.1861677  71.7240334  76.8259382  28.3096027  71.4685392  76.5385532
  29.1140342  71.7984724  77.7775097 114.1042519  34.3601775  92.7215958
 114.6568966  33.5958552  92.5584126 113.9299774  34.3332696  93.6624146
  15.8260667  48.3342218  87.2415638  15.9700561  49.2590857  87.0412540
  15.7739329  47.9090548  86.3855648 112.2604275  34.8625326  90.4747677
 113.1232548  34.4678044  90.6010342 111.6864681  34.3787098  91.0686588
  32.9184532  29.5112300  94.2452621  33.0140495  28.7232804  93.7102604
  32.6381087  30.1871514  93.6281967   2.0926939  24.2011714  73.8054800
   2.4383830  24.5454764  72.9819584   1.8722288  24.9797249  74.3168306
  33.6851478  84.1429138  28.8085151  33.2676840  83.3735466  28.4211731
  33.3392739  84.1796017  29.7002864  66.8998289  77.1516609  33.5723972
  66.7003298  78.0500555  33.3091092  67.0962334  76.6996098  32.7518463
  33.4585714  83.2572460  85.8343506  33.0768228  82.8865719  86.6300201
  34.0100765  82.5573444  85.4847527   0.9108412 106.8949890  72.3700142
   1.5585956 106.9392395  71.6666746   1.0471170 106.0348892  72.7673674
  27.7182126  18.4050429  69.6383905  28.4516048  17.9197216  69.2604637
  27.8964925  19.3191051  69.4171715 114.9997997  14.8744082  54.3832731
 114.3707085  14.3218505  54.8471355 115.2422047  14.3644702  53.6103344
 111.9013977  40.3196669  78.8928843 111.4379406  40.4840183  79.7141171
 111.2637615  39.8612595  78.3456087  76.3061523  84.0204906  11.6037405
  76.3107872  84.1304111  10.6528842  76.9842958  83.3663750  11.7725337
   8.9881539 103.1919956  11.3299179   9.8485768 102.8983974  11.6294253
   8.8802361 104.0579128  11.7233181   1.5408826  66.6988134  85.1967049
   1.0711142  67.2419453  85.8296013   1.5100452  67.1997881  84.3816566
  37.8838706  39.1362357  69.5600510  38.5139918  39.7631335  69.2048359
  37.8163934  38.4577084  68.8882828  10.1979601  31.1215711  68.0580521
  10.3874123  30.5180860  67.3396206  10.1647687  30.5648899  68.8360262
  52.9460141  96.0921560   0.6247390  53.2778856  95.2937494   0.2140868
  52.3902866  96.4922939  -0.0440537  88.2300377  57.7997303  91.9941902
  89.0180874  57.3611879  91.6734314  88.2700348  57.6987982  92.9452133
  -0.2278470  37.1119976  48.3800030   0.0872036  36.5043569  49.0491438
   0.4720120  37.1334410  47.7273417  19.1509536  46.2173332  95.1846131
  19.9331906  46.6744389  95.4934589  19.3331674  46.0255016  94.2647053
  31.0639286  40.6265211  84.2628288  31.7392039  40.1292992  84.7243500
  30.2381706  40.2650881  84.5848846  51.5217018 104.1022873  14.8903561
  50.8052826 103.6712074  15.3563464  51.2980843 104.0051556  13.9647245
 101.6510105  45.7153463  91.4429665 101.9002533  45.4009533  92.3120308
 101.0354900  46.4282608  91.6136074  17.8198338  64.2685890  79.8447037
  17.8298450  63.3505774  79.5738077  16.9175386  64.4265223  80.1224709
  13.4420443 106.7368126  25.9803557  14.3971813 106.7329693  25.9176564
  13.1911421 105.8195782  25.8709764  95.9877777  11.1432552  10.3767014
  96.4630127  10.6005466  11.0058665  95.4994869  11.7644656  10.9169853
  70.7944155 108.6940956   5.3895074  71.1047029 109.5824909   5.5647504
  70.0016403 108.6084652   5.9190422 111.2698269  88.7931252  85.0346088
 110.4195881  88.7622547  84.5960045 111.8996525  88.5589981  84.3528938
  71.5843296  87.9868031  12.8651619  72.2098112  87.4997330  13.4016061
  70.9333563  88.3084583  13.4888613  49.0706015  32.8923082  63.0251360
  48.9036894  33.8204360  62.8609610  49.5465231  32.5937939  62.2501373
  33.1360984  20.8544850  85.2533245  33.9353204  20.9428310  85.7726288
  33.3272505  21.3191509  84.4386005  37.7530479  41.4310598  80.8910370
  37.9057956  41.5636349  79.9554539  37.6496124  42.3146152  81.2444019
  27.8146076   7.7919227  75.0993824  28.3325958   7.3679394  75.7836008
  27.7169251   8.6959416  75.3984451  86.3130093  98.2601357   4.3313125
  85.9430981  98.9228630   3.7480497  87.2603130  98.3611202   4.2383292
 108.9416409  19.7723842  28.1410980 109.0173244  20.6423640  27.7491283
 109.8314476  19.4204175  28.1166124   8.7402326  56.9048119  78.4904289
   7.9394788  57.4271059  78.4431744   9.4446594  57.5506878  78.5438967
 109.2349243  72.1211910  80.4019737 108.3935642  72.5251627  80.6144619
 109.1383648  71.2088871  80.6751251  21.7887211  84.2805862  18.7376630
  22.3398161  84.6823311  19.4093227  21.1787057  83.7286186  19.2269981
 100.9422874  11.5644515  22.7522302 101.2647247  12.3594785  22.3277307
 100.5105305  11.0767007  22.0508647 110.1615524  31.9571471  40.6151104
 110.2177238  32.5718832  39.8835516 109.3280411  31.5049839  40.4845333
  29.2518568  55.4356909  93.6378765  29.1608191  55.1845551  94.5570469
  28.4746861  55.9639835  93.4558201 100.1943398  67.0137215  73.7996960
 100.1342106  67.9687881  73.8211966 100.8980370  66.8041515  74.4138002
  72.3435450  95.7291412   3.7243247  72.7174616  96.3315868   4.3673509
  72.8648043  95.8688831   2.9337603  37.0825911  31.6535139  82.7258682
  37.3878264  30.9855461  82.1119595  37.7272749  31.6411543  83.4332943
  15.7322848  15.6984520  89.9623013  15.2309263  15.0708270  90.4828358
  16.0841918  16.3150811  90.6043053  92.5246716  79.1013432  72.0660496
  93.3170414  78.6286545  72.3208952  92.0121574  79.1618633  72.8722143
  38.7157106  96.3311577   3.9672521  39.2874360  96.3967228   4.7321451
  39.2325735  95.8479214   3.3226097   5.0694394  59.2394972  83.9292812
   5.6134284  58.5759306  84.3535233   5.6099749  60.0294685  83.9313793
 101.8960780  22.2556853   0.7730449 101.0551447  22.1863246   0.3211082
 102.2097486  21.3534712   0.8351386  35.2155066  72.7609873  88.0308151
  35.8822179  72.1356583  88.3148766  35.0218463  72.5107622  87.1274281
  14.1447711   2.7597517  42.1698761  13.8976741   1.8362649  42.2183228
  13.7104964   3.0827871  41.3803911 112.7374268   0.6753258  15.5323231
 112.4936199   1.5997967  15.4859877 112.2821522   0.3461140  16.3072944
  41.1157894  63.8365746  93.7259865  41.8060207  64.4851685  93.8643456
  40.3012466  64.3221664  93.8561726  76.3462591  80.6911564  20.6938028
  75.8737612  81.4349461  20.3199649  75.6736851  80.1843452  21.1487913
 114.7321796  61.6478157  73.0992365 113.9044571  61.2819815  72.7873659
 114.7918415  61.3623190  74.0109158  23.0139279   4.7574496  22.4893498
  22.2715688   4.2869061  22.1102381  23.6717153   4.7671109  21.7940426
  23.1629992  57.1698713  75.7187176  23.5235119  58.0435848  75.8699989
  22.6232815  57.2660351  74.9340582  22.0692253  78.4478140  48.1867981
  21.6751957  77.7150583  48.6601305  21.9169688  79.2065048  48.7502146
  95.4620647  27.3239422  55.4025030  95.1775169  26.9238758  54.5807934
  96.4156628  27.2416973  55.3913307   1.7451924  74.8192549  85.2289391
   1.7488964  74.9141932  86.1814117   2.6637694  74.6801043  84.9985409
  45.9480190 105.4175949  71.2151814  46.8700314 105.4159355  71.4723206
  45.4992437 104.9658012  71.9298220  19.4793367  55.0939655  80.8583927
  19.9963212  55.8401775  81.1619186  18.9203608  55.4540634  80.1698399
   8.7260598  23.1592250  93.9668941   9.2130041  23.8641381  93.5400295
   9.2064083  22.3635530  93.7379837  12.9956985  65.2594519  65.4893208
  13.8393080  65.6839848  65.3333426  12.3872423  65.7146597  64.9072552
  86.6257381  26.0474610  15.6256664  86.3984108  25.1710606  15.3150523
  85.8878422  26.3045001  16.1785471  57.5520229  90.8780098  19.0497768
  57.7757168  89.9792957  19.2916679  58.3970118  91.3160229  18.9479613
  52.2078991  75.9331036  86.0372448  51.7982149  76.6725874  86.4861965
  52.2481251  75.2432442  86.6995907  39.9586654  92.3039150  11.7214894
  40.3307438  92.7297878  10.9492099  40.5714655  91.5969467  11.9237375
  77.7919531 109.2207623  10.4987252  77.9806614 110.1112175  10.7948911
  77.7764130 109.2842197   9.5437574  34.1892552 103.2791615   6.4561474
  34.2917538 103.4005070   5.5122191  35.0791478 103.3399200   6.8034691
  27.7950287  69.9946451  85.0541973  27.3655272  69.9157906  85.9059906
  28.6451745  69.5715570  85.1745510   7.3498726  76.4874554  68.4431267
   6.5079421  76.3322115  68.0150080   7.1408963  76.5234947  69.3765402
  82.2011948   1.5248059  15.0224185  82.1152210   1.3803250  15.9647369
  82.0198059   2.4573681  14.9055588  82.5278664  14.9616897  25.0349236
  82.0018959  14.4572508  25.6555128  82.3196697  14.5826733  24.1809726
  53.0619192  93.5711479   5.4482871  52.5617647  93.9221478   4.7114855
  53.9769745  93.7132931   5.2060091  26.4669609  30.0378752  85.7981586
  25.8035946  30.1620150  86.4769554  26.1421800  30.5405045  85.0510883
  69.3823719 102.5079727   2.9479381  69.1220808 103.3781719   3.2500008
  70.1828289 102.3145771   3.4358841  12.7594018  85.7980728  93.4257889
  11.9744956  85.3728771  93.7712765  12.4424493  86.3281631  92.6945019
  17.0791471  66.2559462  86.3785362  17.7398860  66.7384958  85.8817482
  16.4326167  66.9180250  86.6232300  50.1542854 102.1162701   3.1409422
  50.1938391 101.1599159   3.1482196  50.9742308 102.3930168   3.5500133
  50.9583044  50.8115149  91.0155964  51.5098906  50.1236725  91.3882351
  51.0512352  51.5472269  91.6208553  76.2437296  92.8714180  20.9879780
  75.6073570  93.5632420  21.1686397  76.1852026  92.2885132  21.7449689
   2.1279785  26.9876242  23.7537980   1.9191131  26.9004321  22.8237414
   2.8848147  27.5732541  23.7754321  15.7985473  70.0247002  78.4608841
  15.2173042  70.0332165  77.7004147  15.8752859  69.0993357  78.6933470
  16.5077651   1.2493156   2.9639041  15.9339476   0.4876174   2.8815547
  17.3624444   0.8820531   3.1894532   4.6046707  17.6077175  25.2144432
   4.6178049  16.7065012  25.5367327   3.8579971  17.6373017  24.6162510
  77.7279711  92.4953079  36.6763878  77.0754290  93.1948948  36.6449761
  77.2132397  91.6888428  36.7065477  82.4779129 107.3116875  18.6354113
  82.1142673 106.5081120  19.0072525  81.7246056 107.7599907  18.2509851
 100.4329586  59.9681807  87.3844337 100.9683800  60.7579470  87.3081207
 100.9157467  59.3031549  86.8936253  80.5056286  30.7722855  17.2393608
  80.9344482  31.6277242  17.2632706  79.5965385  30.9663725  17.0110667
   7.4455994  53.1238127   5.7755041   7.4314493  52.8497076   4.8584989
   8.2763720  53.5890198   5.8736384  25.8988976  58.2886744  92.0299244
  25.1127362  58.8281012  92.1147633  26.3619113  58.6568213  91.2773800
  60.1843882  22.4523759  23.8347125  60.4898739  22.9813743  23.0977798
  60.5138922  22.9079080  24.6094036  66.7520905  -0.3119776  19.4733691
  67.4209595   0.2994899  19.1652286  65.9242916   0.1473915  19.3320727
  60.0489044  40.1215076  90.6062031  59.4937038  39.3585420  90.4453754
  60.8074570  39.7715092  91.0734653  30.6294584  42.8962755  88.2993317
  29.8625922  43.0103540  88.8606930  30.2668691  42.7406359  87.4272442
  79.3792772  18.7258005  30.5385470  79.0026140  19.5899177  30.7048559
  79.0320778  18.1742251  31.2395811  54.7232103  43.5577488  93.0799294
  54.2101622  42.7861071  92.8399754  54.0693045  44.2295265  93.2732010
  97.8685760   6.6644758   4.0854329  98.4444046   7.4207115   3.9724958
  98.4390450   5.9788013   4.4327697  87.3548031  18.8939047  38.6154175
  87.5937653  18.3014011  37.9026270  86.6123581  18.4670568  39.0429688
  28.2811666  10.5785298  90.0512886  27.6190639  10.7185066  90.7282352
  29.0966654  10.8867550  90.4465008  53.3308840  89.6178150  15.8277833
  53.2684040  89.6057796  16.7828655  53.5248041  90.5299664  15.6119156
  45.4258347 101.2327480  32.7440929  45.8750963 100.4132462  32.5371790
  44.5095110 100.9810829  32.8592300  69.1435671  74.1508389  32.0656586
  69.8922110  74.7467995  32.0412660  68.7427568  74.2342281  31.2004256
  83.0898476  88.7032509  93.1407070  83.4758759  88.8078976  92.2710705
  82.3620224  89.3247604  93.1560421 110.9006214  68.8194275  91.4854813
 111.1179638  67.8992319  91.6345882 110.6390858  69.1462851  92.3462868
  50.6554985  11.3266122  86.1740875  49.8747587  11.8357229  85.9561729
  51.3791704  11.9461524  86.0808086 102.9680157   9.3720901  29.3071103
 103.0403900   9.2444223  28.3612275 102.0964241   9.7475189  29.4321203
 104.8361683  82.3106575  83.5015297 104.6692276  82.0650768  84.4115067
 105.3392887  83.1227875  83.5610676  20.3853774  73.5105467  52.7441311
  19.4330120  73.4157944  52.7281761  20.5308199  74.4325447  52.9562569
 113.0239201  35.8933473  57.6441431 113.5573196  35.2980900  58.1708193
 112.7157879  35.3564262  56.9140720  74.3207121  11.9395399   4.4580793
  74.2441463  11.9321883   5.4121840  74.9342728  11.2316155   4.2615733
 102.2434139  14.6992218  20.4633379 103.0083847  14.3335497  20.0191069
 102.1290493  15.5644608  20.0702548  37.7166939 101.8274498  16.7331886
  38.2948828 102.5074291  16.3874137  37.0511246 102.3070240  17.2263944
  98.2834911  43.6168957  56.0471344  98.3744240  44.5570898  56.2020302
  98.0758190  43.2514572  56.9071102  76.4913273 106.1888313  33.1975389
  76.0072374 107.0145035  33.1846642  76.5391445 105.9248734  32.2786951
  37.5972533  71.5295649  74.5851851  38.5284758  71.5077209  74.3647766
  37.1501708  71.5004063  73.7393141  36.2598491  60.8441877  86.3411331
  35.6345320  61.0382605  87.0393753  36.3211584  59.8889875  86.3331890
  90.9223938 104.6638393   7.9389375  90.1063347 104.8561192   7.4770850
  90.6556225 104.1206264   8.6805433  63.5559368  90.9877777  22.7205968
  63.9082861  91.6688251  23.2935309  64.3273497  90.5152988  22.4076772
  13.1575084  45.9550476  84.5144463  14.0507638  46.0883331  84.8315620
  13.2333851  45.2461910  83.8757038  46.0901976  67.5464678  86.0286427
  46.9891405  67.4350119  86.3380146  45.7837820  68.3417130  86.4644623
  65.1856232 105.6045532  26.4660621  64.3634415 105.9022808  26.0766959
  65.6573868 106.4107513  26.6751599 103.2394409  10.0021827  42.8676462
 102.7718163   9.3545020  43.3949661 104.1505814   9.7091395  42.8809500
  70.1632595  99.6006298   4.5747265  70.1413441  98.6534119   4.7108632
  69.7320175  99.9638176   5.3482610  47.5982475  25.8889771  84.7551346
  47.2206879  26.7649245  84.8351097  47.6226902  25.5558848  85.6521797
 107.3395252  66.6856766  13.1587839 107.1629143  65.7478571  13.0843353
 107.5771809  66.9557953  12.2717750  39.3242049  85.1407528  94.5067024
  39.9323916  85.6230450  95.0668240  39.4855547  84.2204475  94.7146320
  50.1144841  36.1159958  94.9024379  50.4997685  36.9218315  95.2465394
  50.8635190  35.6026043  94.5997691 115.4966164  28.8563395  75.3847551
 116.3121033  29.2545962  75.6890583 114.9996185  28.6868334  76.1850643
  98.5583496  87.6348019   3.9589858  99.2161942  88.3137321   3.8088802
  98.3006382  87.3527908   3.0813277  47.8649330  60.9437323   2.7435842
  47.3157930  61.5049648   3.2910305  47.5710011  60.0545454   2.9415366
  10.7731771  14.9259996   4.1461378  10.7316804  15.5966067   3.4643781
  10.5612910  15.3928077   4.9544853  84.8877430  34.0937591  27.3789215
  85.6368256  33.7168455  27.8404903  84.7287464  33.4937310  26.6502810
  27.4770546  79.4121504  83.4224224  27.8657317  78.9298582  84.1521835
  27.5256109  80.3301620  83.6891174   4.7527024  11.6760874  16.1064827
   4.3877953  11.2965190  15.3071070   5.6991893  11.6707051  15.9637761
  32.2849536  75.8957005  86.1225414  32.4922252  76.2458229  86.9889641
  31.3696218  76.1364698  85.9796143 115.0653839  11.5666246  10.8056080
 114.6890259  12.3527157  11.2013936 115.1981926  11.8010187   9.8871028
   1.6494618   2.9952303  19.6817827   1.9210529   2.1814814  19.2571855
   1.6130555   3.6355633  18.9712334   1.1744731  19.9002993  85.4896927
   0.6380491  20.6608534  85.2659988   0.7426082  19.1659212  85.0533295
  45.6316996  29.4277906  47.0286131  46.1151218  29.9283767  47.6858425
  46.0182333  29.6924567  46.1938858  35.4220390  61.5302372  62.8914213
  35.6549644  61.7761278  61.9961452  34.4667554  61.4703512  62.8825140
   8.2774746  61.7629385  87.3591042   8.1651741  61.0829735  88.0233860
   8.2744539  62.5829601  87.8528500  71.0242319 102.8710270  32.9604387
  71.8277645 103.1736565  33.3835077  71.3178062 102.2090340  32.3344922
 116.3883400  71.1811829  67.5716352 116.4546490  71.3960648  66.6412258
 115.9689808  71.9464922  67.9649115  95.8945274  20.0988269  13.4830213
  96.3393402  20.5258894  14.2151308  96.5903950  19.6342897  13.0180478
  93.8386373  46.9634880  94.5461133  93.5525911  47.7198566  95.0582828
  94.6926503  47.2193302  94.1976308  36.8325758  58.0729675  93.5256386
  36.5504479  57.2698832  93.0878067  36.4931631  58.7781525  92.9745102
  79.0194511  20.2325583   2.3633003  78.2535982  19.6613085   2.4213617
  79.0091133  20.7308149   3.1805307  21.7899084  48.8469839  81.9956970
  21.9327307  48.6310768  82.9172325  22.5966001  48.5749054  81.5581512
 106.6633892  54.0326738  89.8994541 106.0509777  53.6632538  90.5356312
 106.8518353  53.3099461  89.3008041  42.8370142  65.4373169  82.5220680
  41.9126511  65.5417347  82.2964954  42.9036713  65.7674217  83.4180641
  38.0202556 103.4478664   4.3656197  38.8713336 103.1353855   4.6726280
  37.5874543 103.7768173   5.1534694  36.7415118  90.1435280   7.2951442
  36.4187551  89.2649460   7.4955267  36.1260939  90.4822636   6.6449511
  49.6576595  91.9441032   2.8797388  49.3449736  91.0879898   3.1721932
  49.8982191  92.3996258   3.6864972  96.9262314  12.4350607   4.8751923
  96.8741798  11.4795756   4.8512822  96.0517883  12.7158940   5.1448512
 115.0176811  66.9719076  85.7868671 114.3055248  67.0692635  86.4189911
 115.1419067  66.0259342  85.7098293  34.5608878  96.3176155  33.5713935
  35.1718140  96.0478783  34.2571354  33.7858510  96.6183567  34.0458417
 116.0242652  78.4677315  92.0767879 116.9592658  78.3662605  92.2548580
 115.9465406  79.3424225  91.6958523 115.8944778   6.2490064  25.0463891
 116.7209722   6.6940105  25.2337670 116.0730251   5.3261268  25.2270722
  34.1259980  99.5253754  17.0010507  33.6988425  98.7087536  16.7423856
  33.6365962 100.2076721  16.5415096  39.1179872  26.4067316  64.2802382
  38.4571648  25.7484794  64.4952965  38.6206841  27.1287203  63.8959789
 103.0044365  45.2837801  88.9425945 102.2272682  45.2912092  88.3838654
 102.6679039  45.0947046  89.8185158  10.6717598  89.4526482  89.2256260
  10.8431292  88.7978172  89.9024200  11.4951444  89.5183182  88.7419319
  54.9946880 105.0202751   5.0224847  54.9997807 105.7669926   4.4236317
  55.6538773 104.4239616   4.6673673  79.4935846 109.0740871  20.7579637
  79.1921663 108.9552784  21.6586661  79.9716139 109.9032402  20.7727623
   9.6591473  23.4239554   2.7976009   9.3459791  22.5221062   2.7281183
   9.1713649  23.8993645   2.1250787  74.6578217  13.3990538  42.2656155
  74.3450594  13.4884536  41.3653803  74.3660212  12.5281811  42.5351763
  94.1591644  55.3017569  68.1400108  93.3732128  54.7614431  68.0589676
  94.5199776  55.0727558  68.9965200 104.2302132  14.1400719  12.6272726
 103.5305500  14.7912014  12.6795876 103.7729263  13.3032513  12.5445175
  92.6447105  97.0060253  17.1310747  92.2936916  96.1590767  16.8559253
  92.2836781  97.6307011  16.5020490  19.0739179  65.2436256  87.2854328
  18.2009125  65.5824518  87.0872211  19.0801454  65.1396799  88.2369518
  51.3853598 100.3308296   9.1977441  52.3040676 100.0851154   9.0889668
  51.2019587 100.1684952  10.1230776  16.6629243   1.5108618  28.6818027
  16.3971591   0.6162676  28.4689569  16.2924707   1.6706677  29.5498228
  95.3627682  12.5775373  69.6517563  94.7473335  13.2787085  69.8658419
  94.8605061  11.7720783  69.7750568  58.6115599  47.7600336  87.1623135
  58.5577059  48.6972427  86.9752979  59.2486525  47.4260092  86.5308285
 106.4875126  26.5537930  19.7273731 105.7598877  26.4831853  20.3452802
 106.6217804  27.4956608  19.6220827  65.8540058  95.7453632  26.3919210
  66.5834951  96.3647175  26.3702512  65.3130388  95.9860420  25.6398201
  32.2767282  61.0578299  92.4863052  31.3620710  61.3399887  92.4910259
  32.2629786  60.2080917  92.0458698  94.0379810  15.5378962  50.9180164
  94.4082451  16.2479997  51.4423180  93.2213974  15.3119779  51.3634109
  73.9690495 101.6250324   3.4604356  74.5143700 102.3946857   3.2976881
  74.5027924 100.8868313   3.1664744  19.9247694  85.2374935  78.4154129
  20.1876259  85.2254581  79.3357372  20.2182961  86.0898590  78.0936098
  56.3803530  62.0325232  32.7696848  57.0714331  61.4965773  33.1587887
  55.9526682  62.4511623  33.5167170  65.3110743  25.6552482  27.3736668
  65.7586002  25.0598764  27.9749060  65.5870390  26.5285945  27.6517677
  93.1664181  69.5107269  43.3807707  93.6958408  68.8929987  43.8851070
  93.4069729  70.3702879  43.7264919 116.4446545  12.9779863  22.2818708
 116.0717392  13.8001382  21.9636989 115.9979916  12.8182840  23.1132674
  15.3990006  84.2253208  79.5180845  15.8875203  85.0483322  79.5030737
  16.0697281  83.5505486  79.6231651   4.8615786  69.4981098  67.7065134
   5.2524740  69.3251753  68.5629749   4.5845976  70.4133224  67.7500391
  59.1980457 108.8995743  24.0681100  59.8336983 109.6137714  24.1139126
  59.0900230 108.6164761  24.9760866  37.8678441  10.5716133  90.5910969
  37.8337193  11.5158105  90.7445908  38.1693816  10.4867375  89.6866035
  43.8386154 108.0996227  24.3605185  43.3804369 107.2747326  24.1997075
  43.6677361 108.2927608  25.2823257  31.9174194  47.9632854  76.3875198
  31.2533760  48.6479807  76.4679575  31.4185500  47.1650171  76.2139225
 103.5112095  83.2959938  12.2337162 104.0449047  83.3479118  13.0266261
 103.3965015  82.3576832  12.0832241  62.8308678  65.0914240  22.0410967
  62.1090984  64.8174477  21.4752197  63.2487488  65.8094215  21.5656114
   6.2162423  80.1468849  83.2739544   6.4872372  79.6218634  82.5208664
   5.5964261  80.7809258  82.9133224  88.9611912  96.1152458   9.4748747
  88.3195305  96.4249802   8.8356870  88.8167095  95.1701164   9.5206004
  78.3595657  88.5134792  25.9730768  78.4305096  89.1551304  26.6798139
  77.8244209  87.8102207  26.3408923   4.0734327   3.9574105  19.9981344
   3.1724125   3.6376846  19.9515533   4.3512538   3.7611818  20.8928657
  72.6861000  86.0027122   8.9349568  72.8172874  86.3982582   8.0732352
  72.8309965  86.7197990   9.5522237 105.2043438  10.5796540  18.0065024
 104.8039627  10.7763600  17.1596038 106.1234188  10.4066348  17.8025246
  38.1764555  54.0079355  90.4523563  38.6958194  54.1650248  89.6638012
  37.5541735  54.7348070  90.4780388 106.7373466   6.1358279   7.1213847
 107.6387787   6.3817787   7.3291403 106.8059349   5.2472168   6.7722458
  54.3823481 103.2136345   7.7792227  55.1993036 102.9959488   7.3304105
  54.6223927 103.9119625   8.3882737  65.0158072  94.1383171  43.1692410
  64.5085049  93.4392071  42.7567816  65.5906773  94.4590759  42.4743509
  22.9116511  99.0536118  10.8186221  23.0059862  98.4107399  10.1157355
  22.2650599  99.6770668  10.4877889  97.7894211  12.6217771  84.5670223
  97.0092678  12.0689130  84.6110535  98.5088158  12.0410514  84.8149204
 103.2763767  11.5226102  12.1753776 103.9103889  10.8840239  12.5016689
 103.1081390  11.2532079  11.2724113  56.6649199  84.5341969  29.9048543
  56.6128874  83.5997105  30.1055145  57.4319983  84.8406696  30.3884816
   4.7668403  90.5501556  84.7712231   5.1224357  89.7423077  84.4008541
   5.0044167  91.2283993  84.1389465  22.8494453  50.6299686  52.9842854
  23.1809902  50.3418875  53.8347673  23.1584334  51.5319777  52.8997946
  60.7042027  16.9658184  81.6577053  61.6305780  16.8201327  81.4657688
  60.7055187  17.5735414  82.3972321  54.3518782  35.9247494  79.7665787
  54.6898842  35.0542784  79.9769688  54.1636896  36.3207102  80.6174755
   3.7673312  26.0828781   1.2222700   3.1874532  25.9383082   1.9699816
   4.1775277  25.2316809   1.0691958  70.6414747  86.5264320  30.1802921
  71.5431738  86.2433434  30.3320575  70.7222795  87.2806931  29.5965266
  56.8944359  40.9923363  32.3948288  57.3168135  41.0966682  31.5422201
  56.9597769  41.8562412  32.8018022  26.2646937  19.9458551  84.2356873
  25.5217505  19.4822204  84.6220875  26.7036319  19.2877746  83.6967087
  34.7964263  47.9221869  66.0501480  33.8656187  48.0741882  66.2136316
  34.8769474  46.9701910  65.9913874  91.4886284 104.6369934  16.5763140
  91.3668537 104.8093796  17.5099564  92.2299099 104.0325642  16.5390408
  76.4133167  78.3938169   8.5255408  76.4224958  77.6552248   7.9167455
  75.6126308  78.2734489   9.0360773  10.8135378  49.9702358  78.7313557
  10.0853872  50.5759573  78.8696623  11.4709616  50.4881239  78.2667923
  69.5046997   0.8920932  28.9331055  69.3296909   1.8140492  29.1217875
  68.9978504   0.7091174  28.1419945  62.8076410  99.8184490  25.4104924
  62.6663113  99.2207527  26.1446691  63.2399750  99.2827988  24.7453690
  17.6310933  34.3507004  92.0902538  17.6439488  35.3077173  92.1037674
  18.3869815  34.1085458  91.5552521   0.9308110  10.9654808  89.2928314
   1.8722211  11.1126840  89.2016697   0.5835496  11.0811400  88.4083843
  25.1557040  54.0733624  84.5449638  26.1078620  54.0032482  84.4763279
  25.0103211  54.8712015  85.0534439  12.7718961  83.7861729  78.8181210
  13.6903942  83.9111996  79.0567827  12.6549566  84.3163490  78.0297899
  40.4607725  48.1079054  93.7068081  39.6293831  48.4539461  94.0312672
  40.3742361  47.1583652  93.7911797 114.3548489  14.8993790   9.2673028
 114.1112232  14.4005835   8.4875083 113.5211849  15.1044047   9.6906197
  41.9577646  36.7263246  92.0299149  42.0296478  37.2807407  91.2529469
  42.1170378  35.8394647  91.7068958  71.5019464  23.9919925   4.8377198
  71.4995480  24.4511247   3.9978239  71.4387703  24.6882844   5.4914927
  85.4952049  28.6855650   9.1024226  86.1898041  28.0727339   9.3436730
  85.0006962  28.2307720   8.4206223 102.7146435  41.7575216  62.0454168
 103.3642769  41.8717527  62.7390718 102.9964161  40.9695101  61.5807867
  34.7691584  56.4327240  86.2276745  34.6318030  55.5542850  85.8731079
  33.9043999  56.8418694  86.1956024  38.1776118  51.3244057  91.7259216
  38.3773851  52.2209692  91.4566612  38.8935471  50.8010054  91.3657570
  82.3309612 105.9707069  10.2941871  83.0993843 106.4615154  10.0028861
  81.5877533 106.4491081   9.9267572  13.8184059  73.7783146  83.0658913
  13.2404709  73.5535049  82.3367214  14.6501255  73.3558989  82.8513145
  96.9419765   1.6554490  25.4089022  96.0294056   1.8963540  25.5683041
  96.9385338   1.2706307  24.5324707  83.4501648  95.6105137  10.3597021
  82.5385380  95.3870487  10.1720107  83.4211540  96.0343266  11.2174749
 104.4207573  25.0974441  12.3009062 104.2491341  24.5568109  13.0719399
 105.3676987  25.2367759  12.3120391  15.5646431  10.2063119   8.4582275
  15.7763076  10.8180523   7.7531004  15.0659788   9.5104802   8.0299962
 109.1353226  14.0863085  38.3827043 108.9000225  14.6866584  37.6752830
 108.3530903  13.5499477  38.5117888  36.4199090  83.7452030  87.1882534
  37.1627641  84.2131233  87.5696278  36.6857600  83.5687256  86.2858105
  10.2858067  28.7705946  12.1257007  10.1013100  27.9531407  12.5882602
  10.0478089  29.4572663  12.7486527  93.7739468   3.9257190  55.9777927
  93.2037830   3.3671772  55.4494286  94.6427536   3.8144812  55.5917454
  41.2782812  60.9879398  94.8574543  41.5643787  61.8894434  94.7102451
  41.8376684  60.4626703  94.2852592  85.3418255   4.8151922   7.8243041
  85.2035427   4.0241945   8.3452934  84.5230007   4.9306431   7.3421949
  83.7871075  88.4882545   2.7848288  83.6100197  87.6301098   2.3995280
  83.2798004  88.4956646   3.5965031  66.2719440  29.7455335  88.3087540
  66.9719315  29.1262245  88.5154152  66.0273457  30.1214409  89.1543961
  88.8089657  99.8076630  10.3601158  89.4896126  99.2304802  10.7062531
  88.4990883  99.3654633   9.5697576  25.6877184  16.6956639  12.1923506
  25.8138776  17.6155102  12.4251592  25.2483130  16.7218184  11.3423681
  91.3617134  26.6547108  10.9690738  91.8839550  26.7694616  10.1751399
  91.2845802  27.5360465  11.3344860  37.9808307  42.2484684  84.5979691
  37.2186542  42.0079660  84.0711975  38.5451984  42.7329016  83.9954281
 105.7480526  27.9402113  14.5051646 106.2963104  27.9880190  15.2883351
 105.8880329  27.0551872  14.1684616  79.1562796   6.7731661   1.3851321
  78.3761263   7.0145410   0.8857953  79.5807409   6.0986036   0.8550130
  30.3406620  95.3973866  79.1876173  30.7315779  94.5382404  79.3466234
  30.0627637  95.3683472  78.2721043  96.1767769  17.5263631  45.5142879
  95.4975700  18.0693507  45.9143829  96.5405655  18.0726123  44.8175097
  50.4167986  15.9061944   8.8444924  51.0794449  15.8291960   8.1580478
  49.5829248  15.8116674   8.3841139  46.7442417  52.9057646  84.2310810
  46.7152929  52.6300573  85.1472569  46.7799568  52.0874834  83.7357330
  55.8663416  11.8734848  79.1587114  55.2260542  12.5424922  78.9164448
  56.3648129  11.7173994  78.3565950  91.4000797   9.2299575  18.5541105
  92.0917225   8.8717991  17.9977047  90.5908871   8.8671768  18.1938004
  93.4572887  29.5999789  17.2591889  93.9439201  28.9698410  16.7278290
  93.7618923  29.4450784  18.1533110  25.5788541  47.7283144  85.0113297
  25.7360911  48.6682987  84.9222469  25.4798841  47.5902510  85.9533310
  52.4934101  62.0081711  88.7384987  52.7480793  62.8705311  88.4103012
  52.8568840  61.3926888  88.1018734  49.6914387  54.7775650  87.5301170
  50.6101942  55.0460100  87.5225163  49.5742226  54.3014145  86.7080593
  97.8728867  35.7587790   7.9939401  98.6844063  35.6258583   8.4838450
  97.2905350  36.2020445   8.6108828  21.6913509  94.6534252  80.7462215
  22.0947862  95.3963757  81.1950970  22.4303722  94.1178131  80.4577827
  40.4710817  72.3906898  72.1090984  40.6370449  71.4572144  71.9775152
  40.1116323  72.6900959  71.2740040  84.8315620 107.8905678  58.6710215
  85.4959297 108.0951118  59.3290567  85.0039864 106.9799709  58.4315920
 100.7400227  74.5934534  90.6129646 100.0104618  74.6951580  91.2242031
 101.3482666  75.2944422  90.8472443  89.2097950 101.5168762  38.7963915
  88.9511681 102.3307991  38.3641028  88.6779308 101.4886189  39.5917201
  44.6652031  40.5058336   5.1309299  45.0686455  40.3620863   5.9869695
  44.7799206  39.6750569   4.6695423 100.7527256  36.6228509   5.9051907
 101.0999107  35.9021521   6.4308202 100.4940128  37.2843266   6.5468681
 106.1824036  12.4416232   8.3634436 106.8548393  11.8702912   8.7344390
 105.8987236  12.9859543   9.0979248  55.7475233 104.0855312  45.5990791
  55.5283499 104.9964046  45.7952881  56.5304422 103.9097977  46.1209869
  35.9920168  55.8567238  78.3112955  36.1495876  55.0749207  77.7819681
  36.8070817  55.9858704  78.7962961  71.2928534 101.9703865  11.2201095
  71.1359167 101.3853550  11.9612837  72.2128534 102.2211456  11.3035190
  46.9068432  64.4467258  61.2963057  46.4606428  63.8443565  60.7010841
  46.2059784  64.8147202  61.8344545  13.0625272   9.2882681   5.1504123
  12.2550023   9.3651980   4.6422610  13.6637712   9.9099499   4.7402316
  23.6485624  52.7142715  68.6838198  24.4980884  52.9668236  69.0454149
  23.5809422  53.2058811  67.8652954  35.0951314  59.5399952  65.0177002
  35.3356194  59.9911880  64.2084885  34.1595721  59.7144699  65.1202583
 113.9087391   5.9026802  40.5922937 113.5593700   5.5954778  41.4288330
 114.8541737   5.7719553  40.6650782   1.9367854   2.5286761   8.0784535
   1.4827508   2.0393686   7.3924053   2.7887529   2.0991395   8.1551445
  13.7173343  22.9928303   8.3452123  13.5789526  23.8926625   8.0496091
  14.6266162  22.9759717   8.6438000  30.4032874  76.1933374  82.5999451
  29.8466611  75.4189682  82.5177860  31.2262058  75.9423923  82.1803474
  90.0670052  10.6493163   2.0563258  89.6851158  11.2472916   1.4138190
  91.0038662  10.6533861   1.8600839   0.2889369  27.6388168  25.9014606
  -0.5640030  27.7916694  25.4948139   0.8793823  27.4764705  25.1657629
  50.5580521  59.7891569  87.7433586  51.3033962  59.5093250  88.2747555
  50.4832554  60.7285023  87.9115009 103.0888748  49.4945192  25.8948636
 103.5183144  49.6388912  25.0516725 102.2857475  50.0130463  25.8465075
  39.3326926  52.3270035  93.9861298  39.2053819  52.1906281  94.9249744
  38.6422300  51.8085337  93.5729885  27.9353666 104.3515205  71.1470604
  27.6742268 104.1351891  70.2519417  28.3087468 105.2304745  71.0818291
  28.2966426  48.1970848  94.3716750  28.5730746  48.5772671  93.5378438
  28.0179313  47.3087944  94.1492072 110.2998829   7.9593408  32.1506667
 110.9931850   7.5457257  32.6649404 110.1369381   8.7918395  32.5940919
  31.6367888  55.2906847  69.8764849  30.9870434  54.6260834  70.1053286
  31.4380026  55.5171490  68.9679527  41.1871338  59.0741158  91.6255283
  40.8893776  59.9588919  91.4140129  40.7048941  58.8424540  92.4192619
 102.7917385  27.9604602  17.5094688 102.1545887  28.5782385  17.1508253
 103.5002804  28.5123324  17.8405750  51.9162321  69.9445200  84.9485016
  52.0823765  69.0504360  84.6497536  51.6890764  70.4247808  84.1522694
  67.8218460  94.6128464  30.0883317  68.5317898  94.7749329  30.7095718
  68.1075478  93.8451576  29.5930934  26.7377067  88.0184937  71.1461401
  26.0677004  88.3072662  70.5265141  27.5655675  88.1602383  70.6870222
  26.4626932  63.4714842  90.6193733  25.6005883  63.1961918  90.9311771
  26.5517139  63.0547094  89.7622776  30.1689935  84.8803043  57.0079708
  29.7562671  85.7351017  56.8846226  29.4533277  84.3058014  57.2799969
   1.2085900   9.7624493  14.9137568   1.1183074  10.3494835  15.6644034
   0.6218478  10.1281571  14.2517722 106.4143658   3.1700090  14.8424506
 106.6068363   3.7660441  14.1186202 105.4891300   3.3199328  15.0366139
  15.3627784  -0.2406417   9.8309124  14.9543769  -0.0647460   8.9832705
  16.0597236   0.4117478   9.9009550  63.0246925  98.8016510  22.1807432
  62.1436119  99.0978241  21.9522262  63.5812044  99.5653343  22.0280409
  45.1869822  50.0802183  74.0536833  44.3522882  50.4949713  74.2716265
  44.9430323  49.2364550  73.6731720  49.9015093  67.8320742  72.7184868
  50.7032061  67.6515388  72.2276449  50.1082087  67.5760078  73.6173391
  51.1581707  41.5641022  88.6629963  50.6519794  41.3299084  87.8850842
  50.5441761  41.4570045  89.3894768  54.6542883  84.1890812  75.3812551
  54.2092609  83.9005375  74.5844364  55.1761675  84.9423504  75.1047277
  27.1560979  53.8898373  91.2328625  26.9638777  54.4545174  91.9814777
  26.2965512  53.6198854  90.9095383  50.3044796  72.1754980  15.0237834
  50.2906752  71.6080141  14.2530680  50.4238415  73.0569172  14.6701133
  56.0467196  34.8663926  77.4612474  56.7541170  34.6040583  78.0503178
  55.3680277  35.2120543  78.0410099  32.1853161  79.1365480  81.0928917
  32.3917389  79.6364927  81.8826294  31.2805748  79.3734837  80.8890820
  92.4725056  71.2232351  15.7393074  93.2105446  71.5394020  16.2604189
  92.7846146  71.2597466  14.8351610 114.2012024   4.9073595  74.1260672
 114.9242973   4.8703688  74.7521591 114.5144844   5.4877383  73.4323502
  61.8000698  74.3737030  93.2878304  62.7428293  74.3372679  93.4494209
  61.7234135  74.4749212  92.3390961  30.1789093  65.0714636  93.3956623
  29.7875667  65.2066660  94.2586803  31.0266638  65.5131483  93.4452343
  98.6150742  44.4485950  15.0037086  98.1963539  43.5878944  14.9936974
  98.2791042  44.8691940  15.7951951  16.2888515  95.2350616  82.7621746
  16.7618406  95.3286266  81.9352818  16.0545957  94.3077564  82.8005028
  40.2624559  75.3695488  93.8602829  41.0600233  75.7464027  94.2318916
  40.5714893  74.8088503  93.1486988 101.0344028  87.7722263   6.3005126
 100.8687115  88.6521626   6.6388756 101.7043495  87.8963566   5.6282097
  30.1644564   0.0167692  39.7537661  30.6684446   0.5792790  40.3418255
  29.2556715   0.1341849  40.0304556 105.8391094  11.0159206   3.9992219
 104.9910259  10.6376708   3.7670100 105.7296085  11.3129580   4.9025556
  42.3706770  99.4592762  14.7674751  41.6130400  98.9611435  15.0741971
  42.2367430 100.3395462  15.1187944  45.8976316  90.3045082  60.6506205
  45.1820564  89.6725559  60.7199764  45.8507490  90.8094692  61.4624405
 107.2677135  20.6586123   1.3822649 106.6716194  20.0370169   1.8000337
 107.4913979  21.2791300   2.0759165   2.2122949   0.8859140  17.7969849
   2.0903090  -0.0632454  17.8181434   2.7687281   1.0389178  17.0333064
  92.0693207   1.7648658   1.8761721  92.1427250   0.9994274   1.3061298
  91.2958717   2.2288802   1.5556957  49.3626308  10.0870633  21.2380362
  49.0528727   9.5206398  20.5313206  50.3105116   9.9546677  21.2530899
 112.8636074  11.7987847   1.3853836 112.4902153  10.9444344   1.1688255
 113.7539101  11.6038668   1.6779491 105.2797031   1.0108174  10.2300656
 104.4979095   0.4636749  10.1548314 105.7511425   0.6527794  10.9822536
   6.1741376  75.3894615  87.1929550   6.5508634  76.2499237  87.0088005
   6.7420113  74.7749090  86.7281151  13.2290030  50.6882524  88.0793476
  13.6285174  51.5287447  88.3033848  12.4883687  50.6073475  88.6803055
  29.9874163  50.0094795  82.6234818  30.0555038  50.7014894  81.9656658
  30.1291394  50.4571390  83.4575939  87.3191071 106.0130024  31.5638161
  86.5943336 106.5724087  31.2845445  87.1953011 105.9140301  32.5078011
  94.8229218  40.3681183   2.8163266  94.1127491  39.8195767   3.1494746
  94.5231533  40.6490946   1.9517890  28.8134408  78.4085321  70.7701683
  27.9050016  78.5941601  71.0078907  28.9659476  77.5173521  71.0844421
  40.2137184  53.0974722  81.0480022  39.8171973  53.8322639  81.5160656
  39.6701264  52.9892302  80.2676105  15.9952199  37.1172667  19.4368029
  15.9125078  37.5562525  20.2833748  16.5057755  36.3296080  19.6243095
  88.0287266   5.2384293   6.2798297  87.3893166   5.3143042   6.9880903
  88.3187294   6.1368310   6.1216980  68.0600309 108.6548424   3.1447569
  68.5534096 107.9211044   2.7781019  68.5553360 108.9116859   3.9225358
  28.4724331  77.6663876  60.2877140  28.8089275  76.7830133  60.1372242
  28.6699748  77.8445196  61.2072134  35.9864450  35.3931737  91.7482758
  35.4287720  34.6254945  91.6221714  36.1535335  35.7158971  90.8627415
  14.5090938  78.1085777  89.2474651  14.3346155  77.1687984  89.2984390
  14.9535799  78.3146143  90.0697803 103.4381771   6.6233867   1.7114845
 103.7985325   5.7684082   1.4761409 104.1681099   7.0858431   2.1232575
  59.8780918 107.6137352  92.2950649  59.9268055 106.6852856  92.0673847
  59.0916634 107.6867867  92.8358269  43.4664774  85.3279209  93.7424850
  43.7921762  86.0627365  93.2226753  43.0889034  85.7348919  94.5222569
  24.6406126  73.5083151  91.3704395  25.1710224  72.8541422  91.8253613
  24.5636845  73.1747675  90.4765320  82.2205448 107.5533199  25.7103562
  82.0073223 108.1535149  24.9958444  83.1038666 107.2447586  25.5084300
   3.3914739  37.6889467  25.0055838   3.9910415  37.3297834  25.6596112
   2.5190580  37.4920297  25.3466797 105.1634693  16.4854324   7.6498395
 104.8745632  17.2970474   7.2326487 105.4143715  15.9177089   6.9211620
  49.2884922 106.9498444  24.8244858  48.8806486 107.5384808  25.4596233
  49.9890757 107.4701500  24.4311762 113.4572506  14.7270060  14.3968415
 114.2620087  15.2331460  14.2853737 113.2921505  14.7441602  15.3395402
 102.0476437  14.0607333  16.4437079 101.8650627  13.2672215  16.9469333
 102.9756165  14.2355096  16.6004133  37.4498129  78.0298233  64.5705175
  36.9995880  78.2198524  65.3935719  37.6586914  77.0970869  64.6215773
 104.9626350  61.0149956  14.9065733 104.9790478  61.7121601  15.5622602
 105.2357197  61.4429331  14.0950775  87.7839184   5.1645094  55.5069590
  88.0170727   4.4641873  54.8975182  87.6569939   5.9333575  54.9510860
  62.0968676 106.7445374   1.2261435  61.6555882 105.9652042   1.5640041
  62.8826714 106.4072895   0.7960168  21.0972452  83.1865120  54.1679907
  21.2043333  83.4068871  55.0932980  20.1601148  83.2915020  54.0036774
  43.9715481  71.5582466  82.5578213  44.4784546  71.8137121  83.3285522
  43.0586767  71.6627836  82.8261089  93.3273315 103.6436081  19.2513955
  92.4891186 104.0997601  19.3259740  93.2262802 102.8656483  19.7998428
 116.3402653  17.4165666  24.0084362 115.8316994  18.2265341  24.0478086
 116.1214256  16.9567168  24.8189187  55.1000023  81.9476509  72.8207254
  55.1380825  81.0248184  72.5694132  55.5694771  81.9885635  73.6538887
  35.1980451  36.2328686  94.7297831  35.2058890  35.9074940  93.8296148
  35.0487044  35.4534019  95.2649123  39.6336937  41.3085651  69.0386391
  40.4151678  41.5143394  69.5516586  38.9156199  41.7178774  69.5214081
  38.5459471  49.0146732  85.0999355  38.8327408  48.7702751  85.9798527
  38.7073827  49.9567556  85.0484371  85.3502846  28.1409812  17.3375678
  84.5062637  28.5370159  17.1207249  85.1355934  27.2431874  17.5907612
 101.1893082   4.6716833  15.1534092 100.5701160   3.9500105  15.0437558
 100.7992840   5.3979254  14.6669090  92.9289532  10.5366790   0.9180471
  92.9669666  10.7748461   1.8443641  93.1108856  11.3533568   0.4531063
 114.4946384  44.0582371   1.1847112 115.0589848  44.2112732   0.4268677
 114.6664143  43.1495285   1.4316402  92.0806122  11.1005449   8.6184800
  92.6515675  10.9252489   7.8704751  92.2788429  12.0040905   8.8645375
  25.9058714  67.4316549  79.9732637  26.7441654  67.0957756  80.2905655
  25.2550721  66.8274736  80.3305531  47.7760887  76.7271137  72.9588127
  47.4262905  76.0024548  72.4404097  47.5165272  77.5129032  72.4777746
 108.1325531  49.7345018  93.2703209 107.9741287  49.3254900  94.1211033
 107.2624493  49.9832535  92.9584122  82.3468781   1.3338235   1.7060246
  81.8962669   1.0538638   0.9092822  81.6425610   1.5808560   2.3053129
   7.2693580  35.1900911   5.1023459   7.0697552  34.4258404   5.6430036
   6.5282255  35.7802606   5.2389282  59.3596077  74.3031454  19.4994569
  59.6156168  73.6649752  18.8335526  59.9142456  75.0641346  19.3276775
  69.2214346  14.4982648   2.1271800  68.9246225  15.3963614   2.2740094
  70.1063204  14.5930588   1.7747283  57.6631260 103.2300663  47.7091599
  58.5582781 103.4139824  47.4243546  57.6141119 103.5921383  48.5938835
  33.2054448  56.1743689  83.6351967  33.8334084  55.5999947  84.0733624
  33.6022115  56.3576555  82.7836037   3.9830199  12.7332020  24.4482136
   4.7222936  13.2449877  24.7765160   4.3835312  11.9538689  24.0629077
  28.2011247  42.5382137  93.4867382  27.3359561  42.4913883  93.0798912
  28.8024426  42.2352552  92.8063965 100.8051109  22.3299813  38.1687546
 100.2701855  22.7480817  37.4940109 100.4211235  22.6236439  38.9949179
  86.0777187 105.9650135  27.9761982  86.1838436 105.0526524  28.2455635
  85.8448315 106.4269733  28.7815475  56.1999655  88.4933853  86.8291473
  55.6263638  89.2183685  86.5809441  55.9857655  88.3216190  87.7461243
   1.8843491  10.7712543  63.3646488   2.6632214  11.3100612  63.5034895
   1.2710969  11.0578537  64.0414143 107.0428085  13.7945795   0.8178635
 106.7337513  14.2912364   1.5755215 106.4664650  14.0648413   0.1030112
   9.3817800  17.6735473  11.4871728  10.1930940  17.7632749  11.9871223
   9.6284032  17.8937089  10.5888748   5.6276155  13.9055407   9.3268538
   6.4500165  13.6249173   9.7282755   5.0719225  14.1517639  10.0663209
  38.5054779  58.6810827  73.0045700  39.1530991  58.1289673  73.4427357
  37.6631856  58.2835722  73.2253933  21.9740224  48.2449007  78.3123875
  21.5659738  48.4217310  79.1600084  22.4804783  49.0342855  78.1210423
  25.2417874  52.0120287  94.0922260  26.0646009  52.4623823  94.2829800
  24.6608472  52.7009964  93.7696362 105.9326649  17.5206661  12.3689091
 106.5831375  18.1519175  12.0612788 105.5795002  17.1315110  11.5688670
   3.9156881  23.7113571  22.3374844   4.8487008  23.9036703  22.2440243
   3.6857635  24.0543723  23.2010269  19.7395539  25.0015903   9.7285879
  19.0289617  25.6072950   9.9393266  19.6205449  24.2719316  10.3365910
   3.8969931   3.1044492  13.1017327   4.8147818   3.3702067  13.1589031
   3.4462085   3.8735464  12.7531433  92.1504593  98.5786057  24.0694547
  91.4917850  99.0567398  23.5657072  92.3297882  99.1404629  24.8233700
  15.9637272  89.8737144  15.9777927  15.5255675  89.3424511  16.6426289
  16.5225184  89.2553234  15.5070758  34.4916177  76.6570568  89.3014908
  33.5790968  76.8460178  89.0827847  34.4406319  76.0757494  90.0602436
  55.6580591  76.6231155  81.4574814  56.0148191  75.7806253  81.7388344
  56.4153528  77.1048069  81.1247444  46.2027645  80.3524876  92.8860664
  47.1516037  80.4635620  92.8260899  46.0781002  79.4090509  92.9891109
  98.5358047  21.7438126  15.3933930  99.2126179  21.1326337  15.6842613
  98.5996914  21.7351699  14.4383669  92.7046967  12.8743708  15.4488170
  92.1708584  13.5233033  14.9904120  92.4817181  12.0425260  15.0310254
  10.0823212  10.5731988  20.1999378  10.9355986  10.3281057  19.8420560
   9.4949216  10.5671418  19.4441891  83.7578392  91.5566254  39.5098472
  84.0872383  91.1970901  40.3335333  83.9900684  92.4846077  39.5436978
  19.7982037  71.8971729  83.8326359  20.6469965  72.3395967  83.8263035
  19.6083224  71.7300558  82.9094601  77.1868086 105.2003479  35.6148767
  76.9267893 105.6231689  34.7964358  78.0582714 104.8472500  35.4357123
  73.6061049  89.7701168   2.3138191  73.9277935  90.6345844   2.5696424
  73.6939192  89.2381763   3.1047398   5.8191842  92.1220493  82.7471924
   5.0639963  91.9062901  82.2000504   5.9929579  93.0450249  82.5623989
  46.9841480  39.8498416  88.0798721  46.3322258  39.7676635  87.3838329
  46.5559816  39.4833231  88.8535500 113.7036228  24.6016765  25.4097033
 113.6446285  25.1223540  24.6086764 112.7937412  24.4191360  25.6442738
  17.8769255  58.5389662  66.8296528  18.3177686  58.9413357  67.5779772
  18.5888946  58.2129431  66.2791634  14.4275522  20.3709340   1.0109115
  13.5225797  20.3664398   0.6990859  14.8061371  19.5652783   0.6590263
  30.8902907  61.6831923  89.3837357  30.4714179  60.8307981  89.5029259
  31.0067558  62.0191860  90.2724266   0.4879555  92.5052357   8.1270897
  -0.1425541  92.0843887   8.7115395  -0.0266605  92.7552891   7.3597103
  30.7443595  29.4936275  11.2670791  31.5439296  29.9076533  11.5918911
  30.5353284  29.9726844  10.4651785  73.2325363  93.4112072  29.4258356
  73.7606049  93.0748749  30.1498866  72.8060722  94.1905308  29.7822404
  28.7535405  26.8910384  83.0505562  28.6174464  27.7328062  82.6156616
  29.1755581  27.1153903  83.8799000  88.2654953 109.3483448  14.4425523
  87.9880714 108.4707165  14.7053134  87.4582100 109.8626137  14.4354260
 112.4068165 107.5132370  27.7823901 112.3901749 106.6119957  28.1044269
 113.0338955 107.9594135  28.3515429  27.4377346  61.8363142  63.5688925
  26.6717553  61.7345047  64.1338205  28.1564617  62.0263672  64.1718388
  54.7503996  64.6284676  89.1263580  55.4162312  65.3103256  89.2156601
  54.6220684  64.5412588  88.1818199  85.9379578  93.6653042  35.5865574
  85.3359509  92.9965305  35.9130025  86.6371346  93.6974621  36.2395167
 111.0856438  32.5888014  91.8515205 111.7025089  32.4461579  92.5694180
 111.0779572  31.7592812  91.3739586  33.2869744  60.8812141  75.5339670
  34.0933466  60.9119320  75.0191355  32.5863981  60.9629250  74.8868608
 106.1433220   3.3498919  17.6778877 107.0112419   3.6640546  17.4244153
 105.6358051   3.3675677  16.8664980  77.2520113  76.6020203  10.9219658
  78.0004311  76.4295912  10.3506804  76.4952707  76.5885401  10.3359652
 113.2259846  14.9023652  46.7870045 112.3740196  14.6148610  47.1152210
 113.7007332  14.0903604  46.6095448 107.0735836  34.6494174  36.1057210
 107.9851341  34.3923664  35.9670734 106.8589497  34.3112493  36.9750929
 102.5821495  27.1341705   3.2962096 101.9040871  27.0301986   3.9637893
 103.2818127  26.5416265   3.5711491  39.6360540  57.8548002  93.7396812
  39.5246434  56.9277573  93.5289574  38.7435317  58.1897593  93.8259315
  35.6557417  68.0482006  82.8277779  36.4564991  67.6010704  82.5537491
  35.3464127  68.4912109  82.0376587  42.1361351  51.9405365  92.7354908
  42.3036909  52.3870182  91.9055367  41.2154579  51.6831064  92.6873589
  52.0496511  46.3576889  87.5111771  52.8156137  46.9317293  87.5137043
  51.4543438  46.7498350  88.1499767  32.7566767  95.0428486  72.5922060
  33.5286593  94.9827957  72.0294714  32.9521823  95.7636642  73.1908894
 101.8831921  31.2493730  23.5183406 102.5757217  31.1663795  22.8627968
 102.2717762  31.7837429  24.2109299  26.6562605  55.3884077  77.7703094
  26.3556576  55.1785374  76.8861008  27.1904874  56.1751318  77.6612425
 113.5576630   8.2128090   3.8669869 113.6286449   8.3742517   4.8078001
 112.6449776   8.4117448   3.6580321 107.3153877   5.0966883  44.3544817
 106.8810940   4.5148787  43.7306881 106.8061924   5.9065282  44.3211842
  78.2827139 108.8665581  25.8056998  77.7814007 109.1042042  26.5857244
  78.8376904 109.6278763  25.6365108 116.3391823  12.6982283   0.8926547
 115.8856625  13.0788016   0.1405204 116.1159653  11.7679476   0.8613551
 110.5864048  47.3018503  30.4735780 109.8474026  46.9347095  29.9884939
 111.2845898  46.6549397  30.3721762  80.9655285  19.2196023  36.5975928
  81.4544010  19.9432027  36.2056255  80.7038593  18.6767173  35.8539271
  16.6392958  39.9208832   2.8041279  17.5842977  39.7765207   2.7555218
  16.2633836  39.0408611   2.8260642 101.7740059  33.4954357   3.4581080
 101.7723370  33.6817813   4.3969926 102.3315334  32.7225614   3.3683094
  47.7950954 102.7307129  90.9776592  47.1669245 103.4522247  90.9452152
  47.3530579 102.0509720  91.4863682  76.9015598  29.1729093  26.1697316
  76.4388037  28.3583355  26.3660955  76.2676573  29.6962595  25.6793261
  38.6221600  70.4125547  76.9006968  39.5472145  70.1971817  76.7818546
  38.3535886  70.7865524  76.0615158  68.3859730  27.9514718  25.8512497
  67.8837013  27.1947360  25.5490780  68.3982706  28.5458326  25.1010418
  53.9798546  79.8531294  55.0255537  54.4401789  79.8484230  55.8647823
  54.4855785  80.4539871  54.4783449  38.5267568  85.1955795  88.1500149
  38.5979366  85.9149837  87.5226212  39.4226742  84.8728561  88.2470226
  43.0282402  98.1553650  94.0108299  42.4305820  97.8289604  93.3381557
  42.8749323  99.1000175  94.0294838 107.7975082  27.5285053  43.9507484
 107.4581909  27.3889518  44.8348379 107.3242569  28.2966518  43.6310434
  67.0488977  -0.1217240  79.0632820  67.3269749  -0.1370671  79.9790716
  67.6857090   0.4458778  78.6290836  99.5655060  23.3688068   8.5325146
  99.6163940  22.6466966   9.1587716  99.9376678  23.0127907   7.7256846
  27.6696658  58.3923578  20.2753448  28.1555200  58.2557917  21.0886860
  27.2059512  57.5673485  20.1319480  19.6775603  38.3338904  26.4678168
  19.3033516  37.8313589  25.7441711  19.8185861  37.6881266  27.1601534
   2.3380634  19.0080023   4.4520947   1.9890226  19.1311312   5.3348416
   1.9659719  19.7293031   3.9446455  17.0782983  81.0181236  66.6593838
  16.9063258  81.5688038  65.8955717  16.2131643  80.7174778  66.9375610
  76.6045237 106.9980431   1.0429590  76.1188364 106.1747456   1.0931316
  75.9362459 107.6765919   1.1389419  12.2081435   5.0505733  28.0938363
  11.8946064   5.7817382  27.5615549  12.4353397   5.4468232  28.9350247
  36.5476108  33.7030339  22.2292423  36.6674781  34.6010804  22.5380731
  36.4407158  33.1871796  23.0284309 100.4303837  58.5891342   7.7250868
 100.3681183  58.6598444   8.6776382  99.7427177  59.1682243   7.3964620
  12.6799941  67.0138597   5.4873943  12.8947234  66.8025732   6.3959539
  13.4046292  66.6495228   4.9790716  15.0068462  44.4943237   8.7155122
  14.5733821  43.6648893   8.5145628  14.3305290  45.1575422   8.5777855
  30.5644608  81.5675068  75.4911804  29.8446012  81.6263103  74.8630285
  30.2697682  80.9218216  76.1334276  78.9907551 105.4260826  22.3256755
  78.2431555 104.9069786  22.0292640  78.6015511 106.1393261  22.8316712
  26.1397386  47.3248291  19.3254769  26.7381191  48.0716705  19.3454647
  25.2871203  47.6948595  19.5542824 108.6580563  35.0642657  10.9968412
 107.8409290  35.2945995  11.4389789 109.0775681  34.4336677  11.5821457
  67.8422976  77.3457670  82.5440311  68.1895161  77.6811743  81.7174911
  67.8167439  76.3962936  82.4253750 115.9036707  12.6328802  18.6316299
 116.3660397  12.6183856  17.7936339 115.4191930  11.8075967  18.6521721
   8.5301822  37.2788119   3.4941041   7.8918886  36.6276431   3.7852943
   8.0041122  37.9572582   3.0707943  37.3809767  56.7267799  12.6787043
  37.6912165  56.0701847  13.3022904  37.7825212  56.4756680  11.8468761
  16.5114152   5.5665398  15.1079893  16.5160751   6.0595459  15.9284496
  15.8933687   6.0375381  14.5490515  16.2337446  43.9620638  18.2278776
  16.0580826  43.0712414  18.5308838  16.3790011  44.4636440  19.0300918
  49.5752716  92.7351952  64.3140411  48.7919617  93.2711506  64.4381714
  50.0902081  93.2109642  63.6623383  18.4814596  87.6171303  69.1031551
  17.7956736  88.2374859  69.3503046  19.2969835  88.1070328  69.2087603
  59.4711924  64.2696524  95.1598644  60.2683735  63.9051771  94.7752953
  59.0391207  64.7196388  94.4338799  12.9314137  28.4375048  16.6431820
  12.8297198  27.5860310  17.0684838  12.3082745  28.4183836  15.9168458
  20.8582020  18.7094522  18.6599267  20.2512121  19.4495618  18.6540961
  21.3673949  18.8236141  19.4623733  93.0796337  47.7540636  14.4230974
  93.8822365  48.2509995  14.5815611  92.6915455  48.1657267  13.6509848
  59.9398088 108.8192558  39.2291188  59.3531895 108.2192993  39.6897221
  60.2093649 108.3374882  38.4471536 114.7560787  23.7977219  17.5950003
 114.5716476  24.7314405  17.4930787 115.2276993  23.7360144  18.4256589
  28.7405896  60.6528902  17.4444127  29.0669847  61.5495777  17.5195837
  28.1590724  60.5457830  18.1971395  99.6049404  16.3325405  61.4273596
  99.5795155  16.7430067  60.5630064  99.1015339  16.9230413  61.9878244
  84.1999626  96.8480682  26.1685395  84.7427845  97.5970364  26.4147735
  83.3490562  97.0271111  26.5687060  98.5528660   4.8345089  20.8185410
  99.0109444   4.3836772  20.1092124  97.6666546   4.9701875  20.4832053
 108.2561207  17.7637422  10.1037395 109.0605831  18.0456889   9.6683437
 107.8657436  17.1319306   9.4998735  40.2885294  87.8311920  84.2171288
  41.2033463  87.5569439  84.1528606  40.1376009  88.3490086  83.4263611
  18.8323188  57.0995617  73.3704662  19.6034265  56.6042805  73.0942106
  18.9718091  57.9775476  73.0156231 114.7110462  22.8054309  35.0797892
 114.2800999  23.5961461  35.4042721 115.6144714  23.0754542  34.9150634
  33.1051326  79.3015385  61.6955328  33.1421351  79.1449547  62.6391172
  32.6016092  78.5644484  61.3499975  55.7425308  10.3500879  17.9903817
  56.6822910  10.2644205  17.8299201  55.4031038  10.7765925  17.2035432
  51.3314867   9.6180844   8.6165398  50.6968212  10.0602329   9.1803968
  51.7475414  10.3253317   8.1236571  13.6008513  33.1168318  23.6580110
  13.7013280  33.9633060  23.2225609  12.9242086  33.2660341  24.3184090
  10.6066787  40.0063419   8.5202014  11.1233115  40.0479984   7.7154738
  10.2393711  39.1224265   8.5235298  44.4318008  73.9120913  84.9717808
  43.7117100  73.4419346  85.3920841  44.4117165  73.6167240  84.0615177
  27.3385811   3.7148395  13.8774598  27.9584026   4.3270293  14.2740405
  26.5620971   3.7653917  14.4349086  26.4385915   1.9759619  31.1950183
  27.3323464   1.6782004  31.0253954  26.0997081   1.3591415  31.8438053
  93.2574749  33.2468176  53.2862902  93.2436562  32.5822926  52.5974894
  93.9384365  33.8613272  53.0126190  74.9135017  16.2117898  85.0725269
  75.3051233  17.0064461  84.7100544  74.5979023  16.4733696  85.9375191
  18.6053681  59.5213366   9.4343454  17.8708994  59.0792513   9.0084928
  18.9114022  58.8974094  10.0925922 105.7744503  43.8639259   6.4739227
 105.3835392  43.4038067   7.2166955 106.4954853  43.2994843   6.1950928
  17.4063540   5.7438993   2.2532608  16.7584300   5.0544494   2.3984662
  18.0133927   5.3712761   1.6138172   5.0191724  17.7560949  13.4480536
   5.0832897  18.2090557  12.6072514   5.8688408  17.3285186  13.5551703
  47.0913363  71.4982462  78.0320883  46.6003418  71.3841581  78.8458109
  46.6084385  72.1719933  77.5534344  14.7254431  21.4504790   3.7082085
  15.5768657  21.8876839   3.6954224  14.5237803  21.2918544   2.7860361
  12.6205039   5.1195920  14.2861378  12.8862572   5.1377755  13.3667493
  11.6751063   5.2679682  14.2651629   8.2488686  45.8433056  93.1976318
   9.1473758  45.7817841  93.5218716   7.8820080  46.6022158  93.6511707
  15.8737898  46.5803385  84.5363235  16.7029107  47.0539904  84.6030140
  16.1143148  45.7256079  84.1788197 109.1342258  48.7719488   9.5082158
 109.4271755  48.2532072  10.2574277 109.9233818  49.2201662   9.2039794
  12.8512788  34.9701762   3.9941645  12.3735833  35.6727600   3.5532367
  12.2950327  34.1985631   3.8872376   5.8481187  21.3124537  11.5810311
   5.9099376  21.2867570  12.5358868   4.9341881  21.5369010  11.4061415
   8.8635415  34.9971986   0.5419692   8.4499085  34.4569588   1.2152290
   8.3041793  35.7713985   0.4790255  43.4941721  77.4388409  79.1382170
  42.6174641  77.8223515  79.1612339  43.9230967  77.8660774  78.3967781
  67.7918959  10.6169796  14.9915731  68.5476923  11.1879718  14.8538220
  67.3050070  11.0317421  15.7037103  27.7712369  37.4685001  86.5135288
  27.7904868  36.9513845  87.3188019  26.8468618  37.6836181  86.3890743
  22.6455164  32.6725364  17.1385634  22.9502153  33.5763216  17.0575714
  22.4872828  32.3914552  16.2373483 109.5521832  19.4122350  18.3735490
 108.8981724  18.8261604  17.9927337 110.2234650  18.8266802  18.7238908
  26.1048055  24.1621971   1.5129881  25.3898931  24.7934794   1.5943332
  26.8658066  24.6138287   1.8778680  53.3840895  73.4863901  56.3691521
  53.3746099  73.3276701  57.3130560  52.4778175  73.7071609  56.1542892
  31.8264079  46.8592548  14.2316127  32.0581865  46.0642004  14.7116077
  32.4544740  46.8951607  13.5101724  16.9918525  82.2659683  29.4105172
  16.5745270  82.5382423  30.2277946  17.7152383  82.8819275  29.2941785
  87.7695942 102.5229931  12.8098893  88.3308887 102.3275661  12.0595634
  86.9959641 101.9746017  12.6795328  10.5914927  79.6319723  67.5068951
  10.9966791  80.4483891  67.2144556  11.0998392  79.3743420  68.2759476
  52.4050808  68.1409836  80.9483147  52.1493101  68.1000710  80.0268269
  53.3612251  68.0984735  80.9336090  38.3694363 106.3389492  76.7703581
  37.6758599 105.6819439  76.8297672  39.1549659 105.8864117  77.0775890
 104.0818024  52.7625370  21.4907885 104.6858025  53.4870577  21.6535068
 103.2592678  53.1867170  21.2463474  79.4057369  75.1006699  89.5249557
  79.2936087  76.0328484  89.3386555  78.5300016  74.7285652  89.4207668
  37.9922533  74.4033432  87.6482487  37.6705098  74.5469904  88.5382366
  38.1344771  73.4582901  87.5945950   4.9584100  70.7705784   5.0750446
   4.9396870  71.7049122   5.2821833   4.0548736  70.5591679   4.8401850
  18.0619407  51.4195967  13.5369933  17.9388297  52.3314857  13.2733107
  18.3158493  50.9694862  12.7312863  32.3790598  33.1349421  10.9907281
  31.4462590  32.9588675  11.1136508  32.7245355  33.2266617  11.8786848
   6.2160838  89.9348164  93.8388062   6.9184864  89.2850876  93.8121510
   5.8424413  89.8477745  94.7157574  63.0340385  98.7232494  91.2032127
  63.5944223  99.4992256  91.2110710  63.5633659  98.0413532  91.6168213
  81.6622639   6.5419304  83.6409092  82.1246243   6.9666672  82.9183769
  80.8259392   7.0043898  83.6948872 110.4700089  89.9767208  15.9306514
 111.2790012  89.4891739  15.7754850 110.3303146  90.4720211  15.1235628
  95.2695751  45.6181145  18.4266436  94.9302101  46.4319134  18.0540979
  94.6382236  45.3846550  19.1071773  39.9451494  70.9758949  89.6634865
  40.7941818  71.2752390  89.3382645  40.0578117  70.0346565  89.7961998
  27.6954198  42.0739126  15.1873481  26.9523168  42.1858597  14.5944738
  27.6896310  41.1418772  15.4053116  13.7276316  49.6393394   4.8936763
  14.2053449  50.3348637   5.3456372  12.8445852  49.9905777   4.7792578
   2.4865973 108.4502125  14.7803736   1.9626006 107.6506519  14.7318506
   3.2372344 108.2119942  15.3244579  39.0106869  11.9423544   4.6320572
  38.5124207  11.8684340   5.4459977  39.8442912  11.5117562   4.8215863
  45.1152229  99.9365616  15.0974166  44.6502256  99.3935108  15.7338929
  44.4600677 100.1358700  14.4286239  18.1866002  52.5500679   5.7815766
  18.9037824  52.2527647   5.2216721  17.8986096  53.3724928   5.3854585
  17.3350954  82.1382904  79.5144463  17.8258252  81.6988945  80.2089691
  18.0010581  82.3968124  78.8773537   6.9896901  63.9758492  56.1682796
   7.4893683  64.7518110  56.4221334   7.6454878  63.2826471  56.0932255
  43.1457472  30.7418060   0.8339629  43.5200596  30.8263421   1.7108768
  43.8000917  30.2468419   0.3409337  76.9821358  78.0973387  91.6783047
  77.5949287  77.7481556  91.0311699  76.8463326  79.0069962  91.4131355
  78.4107637  32.8782511  15.4617333  77.4848986  32.7178097  15.2793527
  78.7866831  33.1048083  14.6110940  33.3874726  96.5252304  93.8385296
  33.3975077  96.7688465  94.7641468  33.7839460  97.2721100  93.3899689
  33.7489510  77.7405691  71.4564753  33.8900924  78.6644316  71.6633415
  33.2674122  77.3974323  72.2092104 102.5761509  36.3476682  19.2670488
 103.1080341  35.6226373  19.5951700 101.9810867  36.5535879  19.9879622
  51.2218428 100.3646374  70.0768328  51.8560886 101.0334301  69.8186207
  50.7963705 100.7256031  70.8545876  28.1083560  45.6878805   6.3417411
  27.3325634  45.4698944   5.8251560  27.8687453  45.4622698   7.2405839
  49.6576309  87.3041058   2.9947770  49.9675369  87.1628284   2.1002197
  50.2139473  86.7407894   3.5327506  29.1752386  50.9809542   3.3137369
  28.8162637  51.0836124   2.4323571  29.0415215  51.8336248   3.7276295
  51.5876389  82.3339462  79.5013809  52.2292376  82.5501442  78.8247395
  51.9864416  81.6124535  79.9878263  95.9695244  29.5818949  27.7881765
  96.4026833  28.7602091  27.5570011  96.6814709  30.1577806  28.0669618
  53.8997030  40.3811979  26.9173789  53.9336157  40.7304668  26.0268211
  53.3645487  41.0103130  27.4011683  22.5210166  41.7033815  32.3422313
  21.6183138  41.3932991  32.4144077  22.9317975  41.1022425  31.7208457
  11.1334336  42.3432016   6.7391253  11.1229193  41.4545345   6.3836098
  11.3599539  42.8973103   5.9922093  79.5274687   6.4428777  95.0242615
  79.0351248   5.7029998  94.6687222  80.2493191   6.5683913  94.4083023
  45.4406166  55.8355570  74.2084408  44.8376513  56.4042759  73.7296724
  46.2771893  56.3001633  74.1856098  46.6937017  88.2485962  77.7572489
  46.0901546  88.0579758  78.4753180  46.2381887  88.9042282  77.2291565
  53.6918068  81.8647480  89.4760513  52.9281807  81.8003082  88.9025021
  54.0109205  80.9655094  89.5519352   8.8634759  37.6995254  28.8993835
   9.8083997  37.8408289  28.9575553   8.4925377  38.2862592  29.5584583
  35.3334904  19.9771309  16.4723563  35.7275677  20.6224942  15.8854651
  35.7847428  20.1051354  17.3067522  80.5799103 102.8639889  22.0306206
  81.0604954 103.4976864  22.5632501  80.7820034 102.0162296  22.4264693
 106.8338299  23.7306380  33.2003832 106.6515255  23.2209301  33.9898086
 106.3586617  23.2745910  32.5057817   1.5310295  20.3920054  29.6433353
   2.2901326  19.8942244  29.9469924   1.7919123  20.7271123  28.7855029
  18.7163484  90.8367920  79.6343899  19.4675696  90.3215694  79.9283981
  18.8853979  90.9986019  78.7062359 104.8954105  13.0569744  27.1914911
 105.7652092  12.6615882  27.2492862 104.7922993  13.5306299  28.0168700
   7.7611399  35.0904417  33.2156301   7.6558679  35.4639149  34.0906549
   6.8717963  35.0497437  32.8640008  43.8075495  53.7817383  74.0090275
  44.4767570  54.4630861  74.0735531  43.3633280  53.9600706  73.1801128
  13.4383810  35.5586720  22.0767212  13.8836014  36.3753414  21.8507552
  12.5600553  35.6549239  21.7086029  39.5367742  49.2358065  76.3685942
  38.8253736  49.7077751  75.9357119  39.1309357  48.8506603  77.1452475
  20.9761667  96.4709949  78.7379837  20.2818179  96.5740681  79.3887424
  21.5678930  95.8226490  79.1197491  62.9272079  86.3256264  93.6325169
  62.5204372  86.2967968  94.4985104  62.7705526  85.4556847  93.2652378
 116.3583660   1.0262729  85.9293175 115.4560471   0.7203458  86.0212708
 116.8419361   0.5528964  86.6063023 104.8428822  21.1221313  41.6624594
 104.7739124  22.0147872  41.3238716 104.6106148  21.1983871  42.5879145
  43.7600613  63.8313913  71.9723606  43.5723162  62.9851007  72.3782873
  44.5272589  64.1576767  72.4426556   1.6143858  41.8163824   0.6712497
   1.5593092  42.7713919   0.6372765   0.8195981  41.5468597   1.1315779
 112.1537399  29.2063379  11.4130604 111.6657352  28.9374685  12.1913850
 112.2511673  30.1539278  11.5069342 100.4800320  24.8220587  22.5229001
 101.0935688  25.5506706  22.6173878 100.0295067  24.9940014  21.6960382
  84.0216827  44.7635365   0.8715017  84.5619583  44.6862221   1.6578546
  83.2559299  45.2629328   1.1551756 104.2638969  46.6227770   8.8025457
 104.2602444  47.0726156   7.9576391 103.3730125  46.7311239   9.1354275
  20.7751083  57.5031185   6.2225693  21.6733050  57.3833036   6.5309840
  20.8087349  57.2764015   5.2932143  14.1620564  46.5969753  30.3248072
  13.4484422  47.1140385  29.9511290  14.1675675  45.7896090  29.8106480
  21.1116672  39.4536734  14.3024993  20.9320116  38.5243726  14.1598225
  20.6054473  39.9022317  13.6251736 100.0132084  35.2952600  18.5598755
  99.5759487  36.0840368  18.2391572 100.9364319  35.4292655  18.3455718
 115.0053978  27.2462964  13.5163891 114.3610764  26.5704250  13.3059442
 115.8260345  26.7672634  13.6317337  31.9751906  68.3262825  72.2342348
  31.5207982  67.9150677  71.4989328  31.6759372  67.8403521  73.0027103
  14.8892283  20.1872277  10.7502067  15.7680643  20.5141973  10.5579281
  14.4306195  20.9391570  11.1250567  14.2831171  11.0376215  42.0075274
  13.4546387  11.1405361  42.4757862  14.9476266  11.0251319  42.6963711
  27.7279544  55.6102037   5.4152203  27.3995209  56.4057684   4.9963591
  27.0657420  55.3943396   6.0718071  58.2235718  80.9870625  80.3731251
  58.1286716  80.1023960  80.0201321  58.4552717  81.5237808  79.6151781
  72.0150661  97.6726627  28.5918450  71.6949558  97.3469257  27.7506256
  72.8712463  97.2583008  28.6990261  42.5016403  26.6227484   3.1678560
  41.9915485  26.1032820   3.7892997  42.2446871  27.5277352   3.3445105
  63.1630087  78.1011677  77.3407507  63.5722303  78.8839722  77.7095175
  63.3228254  78.1682205  76.3993740  58.2645893  98.3587742  33.9996338
  58.1240225  99.2782688  34.2254496  57.4333000  98.0759335  33.6185956
  85.4193783  84.9913025   6.2718076  86.0023880  84.3320847   6.6483241
  85.5415440  85.7629776   6.8248129  52.6149321  88.5538960  74.0430117
  52.2234440  89.1641331  74.6679735  53.5496664  88.7592697  74.0611696
   9.2991006  44.2030478   1.8269274   9.8108649  44.9591494   2.1144046
   9.6862566  43.9572382   0.9867376  41.9008438 104.9770332  94.1469163
  42.5903718 105.6093097  93.9444023  41.1971851 105.5033803  94.5264633
   7.9092890  13.0571890  10.5008805   8.4918535  12.3014247  10.5761874
   8.4247619  13.7107909  10.0283098  19.8719060  20.9238172   9.2098826
  19.1692197  21.3897824   8.7567401  20.5909252  20.9019995   8.5784018
  18.6183798  19.9490011  25.6648445  19.0858579  20.7402039  25.3970885
  19.1837204  19.5487833  26.3254881  23.8671064  90.0626469  86.3698673
  23.5774708  90.4383183  85.5384731  23.0642939  89.7406673  86.7798042
   7.5674868  38.8705635  23.7268567   7.7618402  39.4905186  23.0239224
   6.6311568  38.6929846  23.6375022  63.3186483  81.8024731  69.9742174
  63.2429743  81.8031311  69.0200138  62.9733372  80.9506130  70.2412796
  25.6968212  30.6105638  44.0094948  25.5576825  30.1131725  43.2035971
  26.5573120  31.0142493  43.8962603  43.6268425  48.8744068  92.2167587
  43.4931612  48.3659601  93.0166626  43.1447601  49.6876717  92.3665237
  16.6374433   8.3343971   1.8969409  17.0823407   7.4870861   1.8779066
  16.0153639   8.2620752   2.6208320   1.4289947  35.2544403  31.6132092
   1.0678057  34.6391702  32.2513437   2.2989456  35.4669452  31.9512320
  49.6733618  69.7591305  93.0327606  49.3490076  70.2097178  92.2530270
  50.5036163  70.1920128  93.2315636  73.5584211  29.6550846  11.6951370
  74.2473412  29.0534472  11.4128971  72.8040552  29.0915871  11.8672800
  60.2485943  75.3671551  86.6802788  59.8187590  76.1904001  86.4484596
  59.7544336  75.0426435  87.4330902  61.4007473 109.3244839   1.1146303
  61.6196251 108.3927441   1.1284500  62.2168016 109.7585487   0.8658817
  30.0703239  81.9406986  90.7732773  29.4293618  82.3594379  90.1987743
  30.6417131  82.6549339  91.0554409  56.8091488  68.5989618  88.0665874
  57.6927519  68.3969164  87.7589226  56.6010761  67.8925562  88.6780834
  54.0672445  32.8842545  94.1031837  53.8396788  31.9912529  93.8443470
  54.6991205  32.7740264  94.8136902  62.2358084  79.0625620  69.9214077
  62.5999928  78.1960869  70.1025963  61.4539099  79.1134834  70.4711914
  11.5369236   8.4700364  31.3652635  12.2939706   8.7245107  30.8376694
  11.5735042   9.0450406  32.1296334  33.6775732  87.7141476  82.0466328
  33.5197020  87.5377560  81.1191559  33.8214993  86.8505478  82.4335575
   3.5804543  26.7129898  27.0450926   2.9479754  26.2724304  27.6126385
   4.3837532  26.7490816  27.5643611   9.1232860  24.7585583  64.7105598
   8.6964583  24.0759254  65.2283049   8.4091032  25.1751399  64.2282343
  17.6982689  57.5772190   4.3254223  18.4250414  57.8301620   3.7561658
  17.2980952  58.4068251   4.5858848   4.8194858  10.2964818  23.7745214
   5.6417668   9.9371201  24.1076040   4.5471451   9.6806943  23.0941772
 111.2453365  48.3523178  13.1097603 110.6625557  47.6913404  13.4835434
 111.4713764  48.0106544  12.2446573  23.7417960 107.7316284  84.3168068
  23.0574942 108.3978558  84.2527580  23.4763956 107.0550346  83.6939049
   3.6200234  15.3250396  20.2133632   2.9246554  15.4256082  20.8634257
   3.1762531  15.4226685  19.3708849   2.5241598  39.9771881  21.2361383
   1.7008294  39.8792958  20.7578349   2.9635209  39.1331911  21.1318994
  19.3487597  59.8865080   6.3534975  19.3445170  60.0555372   7.2956455
  19.6275055  58.9741564   6.2750971  86.5714931   2.7756235   5.0384855
  85.7681465   2.9278556   4.5407882  86.9349194   3.6497831   5.1799023
  45.5823135   1.8506856  80.7978821  44.8525572   1.2802905  80.5563354
  45.5784035   2.5392017  80.1329231  19.3584120  82.5676346  94.2997932
  19.8819160  83.2179546  93.8315392  19.0808034  83.0144024  95.0995255
  54.6199989  61.3263988  93.7859440  54.0119410  61.0304642  93.1085110
  54.1714907  62.0600510  94.2064571 106.9002533  83.3978748  88.2355213
 106.4857388  84.1355896  87.7881050 106.7787933  83.5835648  89.1666508
  26.3396502  26.2742448  28.0796671  26.6086507  26.3870263  28.9913416
  25.8092713  25.4774261  28.0832624   9.0872496  96.3903713  84.1294384
   9.3848169  96.0079765  83.3039284   9.6025896  97.1917057  84.2217255
   7.5918889  64.7136927  29.4296670   8.4891093  65.0109100  29.2783689
   7.1306676  65.4927874  29.7403383  57.8605700  74.3182993  84.4558525
  58.4783411  74.8977327  84.9017715  57.9753351  74.5156670  83.5262775
  14.6353269  84.0604877  86.5468121  13.6881375  84.1979313  86.5600586
  14.8885167  84.2248631  85.6384563  17.5420773  37.1113133   6.7462528
  16.6919148  37.5149632   6.5715438  18.1336486  37.8504491   6.8875146
  10.8705115  51.3798904  11.4777744  10.3260922  50.8017397  10.9433758
  10.8307171  52.2259903  11.0319519 107.2570610  40.4917812   8.0117410
 107.4877644  40.3815317   8.9341587 106.3095570  40.6276035   8.0164051
  32.5076032  88.1450748  79.3343735  32.8438187  87.3952389  78.8435173
  31.5558481  88.0537891  79.2889833  44.8599768  91.1969948  83.9837074
  45.4261494  90.5247879  83.6044693  45.2892828  91.4362335  84.8051071
  55.5400085 104.9697685  12.7468503  55.1679468 104.1191769  12.9798639
  56.4659214 104.8977852  12.9786491  37.2544193  36.8040419  11.5068555
  37.9899192  37.3168373  11.8419850  36.6086316  37.4579978  11.2394035
 107.1086121  29.7841930  83.5807800 107.3364735  30.0937414  82.7041435
 106.1708736  29.5982242  83.5328960  11.9979958   1.0372185   0.3662360
  11.3646512   1.6859936   0.6731570  12.8461222   1.3764691   0.6522907
   5.4187107  28.7163711   8.5766399   4.9041876  28.2126784   7.9459321
   4.7673059  29.1949439   9.0893501  32.8113770  79.5300388  85.0136471
  33.3350730  78.7439346  84.8586845  33.4152603  80.2554035  84.8542500
 102.2118950  40.9292316   0.4875383 101.6926289  40.1834154   0.7881329
 103.1161690  40.6879520   0.6882799 114.8136616  41.7687559  22.0807552
 114.8896980  40.8923864  21.7033577 115.7183552  42.0502186  22.2169113
  49.0168381  69.3574047  76.4545631  49.4773912  69.0158892  77.2210455
  49.3984604  70.2236032  76.3120985  99.9886036  29.4167233   2.9829526
  99.9144936  28.4624052   2.9870465  99.6828175  29.6844196   3.8495946
  41.5457630  55.2166462  84.9400043  42.1106386  55.9233427  85.2526188
  41.8208504  54.4499588  85.4427433  95.3748417  14.9187148  23.0918813
  95.7334328  14.8617530  22.2062159  94.4429016  14.7278404  22.9856896
  11.5195286  55.0620651  24.3807244  11.6294146  54.9911118  25.3289461
  12.4125957  55.0982618  24.0381575  25.0918341  58.5240650   8.8062465
  24.5167851  57.9862928   9.3506289  25.9632635  58.1498957   8.9360023
   0.4424694  32.8651357   8.3293486   0.5509219  33.6303091   8.8941306
   0.3456522  32.1312833   8.9362431  77.5217342 106.5976810  11.0349202
  76.8369722 106.6109943  10.3662229  77.8182411 107.5059986  11.0922146
  57.6635218  95.1213551  85.6861210  58.0686378  94.2826176  85.4655933
  57.4857283  95.5313778  84.8396587  34.1110587  87.9514217  74.3553782
  34.1990566  87.0767593  73.9766359  33.2883215  88.2855129  73.9980030
  34.2850590  31.5283751   1.0297839  35.1744437  31.5747952   0.6789684
  33.9257669  30.7194543   0.6653817  62.2826529 105.9049225  74.6369982
  61.9345522 105.0873661  74.2811012  61.5339375 106.3160706  75.0689840
  27.7672935  26.3507390   1.7396492  27.9265308  26.8252945   0.9237622
  27.7040958  27.0348096   2.4061967  64.5831585 104.9783039  79.0050983
  64.3112087 105.8688927  79.2267418  64.8871326 105.0390816  78.0994844
  16.0653114  90.4403687  77.5390482  15.3452682  90.2577972  78.1427383
  16.8383598  90.0777912  77.9716778  12.2927320  59.9631357  18.6902690
  11.6468859  59.6674204  18.0486584  12.3289239  60.9125090  18.5735941
  96.1530113  22.5184131  34.7755909  96.7953587  22.1287751  35.3687119
  95.5482483  21.8041444  34.5747900  32.8494668  89.4583797  70.4523611
  32.4713492  88.5930824  70.6089592  33.4723520  89.5807934  71.1687851
  65.0006676  72.3866224  83.8996506  64.9295521  72.6476049  82.9814625
  65.5925846  71.6344452  83.8896942   3.9064905  34.3684721   9.0215921
   3.8189730  33.4897447   8.6522567   3.3275852  34.3666315   9.7838891
  36.1747193  65.8907700  86.3709545  35.7957220  66.3926077  87.0925808
  36.3863182  65.0402880  86.7558384   6.2614131  18.2571554   6.9187349
   6.3490415  17.4437439   7.4156398   5.3362417  18.2907522   6.6755050
  49.8656607  80.8861732  69.0567160  50.6958008  80.4108810  69.0912294
  49.9943447  81.6355133  69.6382427  22.1941876  49.8297739  20.9538674
  21.5857100  50.5207396  20.6920385  21.9363213  49.6101379  21.8491316
  25.9917736  24.4119000  11.7104220  26.9128561  24.2717052  11.9299233
  25.9874558  25.2229548  11.2020874  66.7665052  37.9614973  40.7492733
  67.7033997  37.7653790  40.7479715  66.4087391  37.4167180  41.4503050
 107.9491806  39.9125838   5.4528826 107.8192902  40.0283194   6.3941389
 108.0769253  38.9703536   5.3428012  41.5296602 108.8836384  92.8242111
  41.1479950 109.1800499  91.9979572  41.1837292 107.9992294  92.9441929
  79.3613434  69.2652798  90.0595665  78.6118364  68.6845016  89.9285316
  78.9726448  70.1235580  90.2283859  38.3398199 108.9937210  91.7799854
  38.1521368 108.9381790  92.7169609  37.7376032 108.3679104  91.3775826
 102.4316406  52.7211428   3.9873841 102.0646667  52.2538280   4.7378376
 102.9171562  53.4502268   4.3733135  91.9004726  45.9932375  34.6511960
  92.3938751  46.3729095  35.3782654  91.0175991  46.3499832  34.7487140
  54.9811888  64.2768288  94.4962788  55.0667286  63.8578701  95.3526688
  54.0375233  64.3110895  94.3395901  82.3876762  80.0336552  91.1580181
  81.4416027  79.8976231  91.1063385  82.5090122  80.9578323  90.9403229
  23.2286716  57.8421783  31.4332628  23.5858870  57.5311279  30.6014681
  22.2921634  57.6521683  31.3777542  46.3432312  48.4399939  16.7931616
  45.6696415  48.3629894  16.1174536  47.1685982  48.4502459  16.3085020
  36.8370485  31.9421411  12.3539448  36.4270973  32.7902746  12.5237751
  37.7104187  32.1592665  12.0278907  67.3792362  21.9038272  70.6366348
  66.7890882  21.3055229  71.0948849  67.4875355  22.6407051  71.2378979
  82.2855282  74.7839832  79.0061092  82.2096825  74.0849590  79.6556044
  82.7114296  75.5015278  79.4751215  79.3545914  72.5358534  91.8033600
  79.0525532  72.1228456  90.9943867  78.7468052  73.2620430  91.9429302
  95.4047680   6.0804105  78.2357693  94.9792194   6.5776265  77.5372601
  96.2627506   5.8515739  77.8783894 114.3250847   2.2204676   7.6480347
 113.7066364   1.4907527   7.6835865 115.1781368   1.8198204   7.8154325
   4.3284157  50.9533262   5.7276595   4.7939491  51.3720894   5.0036788
   4.8832372  51.1100674   6.4917511   7.3406100  80.5836391  22.5363994
   8.2627869  80.6011200  22.7923632   7.3359722  80.1411247  21.6876435
  14.3542600  46.7023659  14.8720348  14.1350174  46.5195465  13.9583933
  15.3108883  46.7316055  14.8875570  45.4524517  95.0940895  61.8657160
  46.1209249  95.6876564  62.2078514  44.9630690  94.8132992  62.6389551
  10.6682277  45.8237171  38.7072253  11.4877248  45.3837633  38.4811759
  10.9385133  46.6857672  39.0235186   1.5894186  40.1680517  54.0155649
   0.9306234  39.6090889  53.6035204   1.3556333  41.0551453  53.7423563
  98.1710148  53.9906406   9.7412509  98.4802341  54.6946526  10.3113258
  97.6272583  53.4442854  10.3087544 114.5926285   9.3941438  90.1900578
 115.2826786  10.0575030  90.1953030 114.9154663   8.7080967  90.7743073
  27.9770350  94.3692303  86.7726421  28.6191988  93.8522434  86.2862396
  28.5035992  94.9526691  87.3190403  64.2579222  66.3664722  90.8691406
  65.0973129  66.0394764  91.1927509  63.9133883  66.8953419  91.5887356
  31.1111546  95.4095364  92.0159340  31.6262078  94.8492432  92.5964737
  31.4459872  96.2919331  92.1755981  48.9721203  39.7990203  19.7330880
  48.4208202  39.7583437  20.5145264  49.2423725  38.8930774  19.5832109
  65.0813198 103.0244255  88.7861824  64.6880102 103.8689041  89.0061474
  65.1045847 103.0130005  87.8293324  71.5291214   1.6861045  64.6260262
  71.7605305   2.2672524  63.9014912  70.7200336   1.2603712  64.3425512
   3.1822109  29.6318293  10.3959119   2.8174710  30.2333069   9.7467411
   2.6056522  28.8683558  10.3656304 101.4137459   5.8648211  49.6529722
 102.0270920   6.4891624  49.2653751 101.8751431   5.0266516  49.6244812
 104.6874428  11.8194246  74.6676636 104.5273018  11.7472959  73.7267160
 104.6712971  12.7604902  74.8419237  96.4487362   0.5218314  86.4510727
  97.0360184   0.8293077  85.7605839  96.8578148  -0.2812790  86.7734146
  26.0999107  57.5173807  32.9319310  26.6489434  57.0412683  33.5549188
  25.2051234  57.2646618  33.1593609  43.9516973  87.3856354  74.2573977
  43.3428907  88.0601406  74.5584536  44.8191023  87.7604103  74.4103098
  39.1732836  96.9336128  84.0536213  39.5241332  97.8160858  83.9336777
  39.2867947  96.7555904  84.9872494  20.9229946  52.4121523  23.7756658
  20.2216244  52.4910164  24.4222665  21.7161179  52.2867966  24.2966962
  59.1433191 105.8279800  87.3892307  59.9910212 105.7270241  87.8221798
  59.0019035 104.9935722  86.9420147  92.4510765  30.0459552  32.1386647
  93.1832504  29.9134398  32.7408147  91.7879009  30.4947567  32.6630735
  98.6217499  37.6232219  93.7701702  98.8351440  38.3072209  93.1354713
  99.3703556  37.0274282  93.7409973  35.6640315  93.8777637  73.3728123
  35.3275681  93.3764553  72.6300383  35.9299350  94.7161674  72.9951668
   8.0702877  43.6497164   6.0567313   8.4745193  42.8933001   6.4817733
   7.7386832  44.1819620   6.7799109  72.1088552  14.2034030  71.8290997
  72.0955610  14.9586987  71.2412357  72.3703957  14.5639169  72.6763630
  25.2208161  46.7542648  77.9187632  24.3194389  46.5666628  77.6569223
  25.3413963  46.2628794  78.7313080  56.3444328  96.7527199  90.5439377
  56.6327095  96.5503120  89.6539021  55.6997395  97.4516296  90.4337692
  64.3801546  15.2338970  94.2809868  65.0881052  15.8669293  94.4006157
  63.8138294  15.6302118  93.6188412 114.0065861   2.5735250  52.5882387
 114.4693375   2.7062494  53.4155703 113.6217594   1.7005825  52.6664114
   2.8223211  45.8124256  50.3913927   2.9910442  45.6422091  49.4646835
   2.5643399  46.7336750  50.4226017  20.7941794  22.3603296   2.6599026
  21.4562607  22.9874277   2.3689914  20.7086873  22.5209498   3.5996491
  65.2025795  70.6908274  73.9639091  64.8692989  71.4417267  73.4726858
  66.1547041  70.7688808  73.9039421  19.2267025 107.9890442  89.5888329
  18.8814044 107.2230530  90.0473690  19.4426560 108.6083412  90.2860260
  45.1549244  94.8533440  93.9518070  44.7658968  94.1960049  93.3749294
  44.4078970  95.2542782  94.3961334  51.7150736 108.2709408  81.1998653
  51.9265366 109.0316677  80.6587505  51.2995672 108.6395741  81.9794178
  96.9722366  12.7107024  78.5082388  96.8671036  12.9233479  77.5809002
  97.9173660  12.6161468  78.6266422   2.5928560  21.9998479   3.1234190
   3.4405622  21.5864825   3.2869837   2.5179082  22.6696968   3.8030648
  46.1370087  23.1265044   0.8639999  45.7877254  23.8067555   1.4397527
  46.1668062  23.5364461  -0.0004606  53.0199242  50.2529669  86.9982719
  53.3391762  49.5557451  87.5711632  52.2418499  50.5902624  87.4421883
  36.5697646  78.1094551  83.3237362  36.1671090  77.9047632  84.1676521
  37.5112820  78.0695677  83.4916210  77.0006037  12.4694479  61.5737391
  77.4490738  12.9474831  62.2712994  77.1002150  13.0247676  60.8004808
  57.4872303  86.4297962  55.8986616  56.7000818  86.0733795  56.3104868
  58.0498362  86.6780853  56.6321945  85.0508499  94.9057007  79.1595316
  84.6848869  95.7897949  79.1857147  85.2509212  94.7565746  78.2354307
  17.8784919   3.8573501   4.7531670  17.3149157   4.4627863   4.2714414
  18.5230303   4.4200826   5.1822764 115.8332825   5.7911611  92.3156929
 116.7103863   5.7649314  91.9332790 115.2807522   5.3377390  91.6790295
  70.8036470 100.6018448  85.2339172  70.2827168 100.3933144  84.4584274
  70.4164743 100.0733089  85.9317589  94.1686630   3.6404696  69.3056822
  94.2472172   3.7515137  68.3581972  93.2950974   3.2700729  69.4318247
  20.2002358  65.7153654  42.6989079  19.6186626  66.4733839  42.7572823
  19.6435595  64.9687815  42.9201651  32.8998041  51.3846207  12.4798477
  33.1472731  50.5870724  12.9477215  33.1198478  51.2042093  11.5659201
  17.8237776  48.6770749   0.4148257  17.1051936  48.2113480  -0.0129163
  18.0272154  48.1474137   1.1857284  18.7064445  64.7139406   8.7992877
  18.4949076  63.7977362   8.9783329  19.6178877  64.6966887   8.5073858
  32.7162123  79.3841648  67.5167513  32.9522920  80.2909184  67.7124357
  31.7858624  79.3265820  67.7343893  12.7821290  20.3310323  28.8936186
  12.7836800  21.2710357  29.0742421  13.4465218  19.9729216  29.4823194
  26.4880490  25.7651663  24.9183583  26.4363956  25.5807042  23.9805222
  25.5857682  25.9554601  25.1750827  11.5142453  18.8395429   5.6721091
  11.7116463  18.0154097   6.1171585  11.5160525  18.6155987   4.7414765
   9.6265006   7.5733995   8.9323485  10.2294588   8.2839793   8.7138301
   8.7708133   7.9972357   8.9986426  60.8410692   1.2217798  89.5648384
  60.9016657   1.9839112  88.9888859  60.7419777   0.4788843  88.9694214
  68.7878799 107.7978039  80.5311871  68.7554502 106.8575478  80.3548431
  69.2918301 108.1608486  79.8028564   7.8170401  52.8336239   0.5171848
   8.6987317  53.1404734   0.7286026   7.8082091  52.7698660  -0.4378486
  42.7307892  60.9181786  79.5539999  41.9260502  60.8735275  80.0703716
  43.3518600  61.3792944  80.1178074 110.5505562  37.6338983  36.5423131
 110.6728363  37.5430131  37.4873114 111.4343834  37.7614856  36.1976194
  49.9587774  83.0313015  71.0162449  50.6209040  82.5310612  71.4932919
  50.3565550  83.8921833  70.8863068  24.4337296   8.9472878  22.0596361
  25.3866792   8.8697350  22.0137858  24.1771603   9.2630607  21.1932111
 111.0475636  17.6887429   9.7243875 111.1358166  16.8440795  10.1659620
 111.6739750  17.6478469   9.0017760  31.9665342 101.3063979  94.8640786
  31.5724856 100.6270528  95.4112980  32.7708536 100.9087587  94.5306574
  52.8799915 100.8263588  89.9104118  52.7841234 101.0600185  88.9871311
  51.9880438 100.6416798  90.2046013  40.8099031  38.0620003  32.5578380
  40.3569794  37.2241354  32.4625897  41.6454649  37.9350305  32.1084523
  89.5619774  48.7815762   2.4300189  89.0945530  49.4709444   1.9583014
  90.1916122  49.2506027   2.9775679  37.9357600  64.3622780  83.3817291
  37.8533578  65.3091478  83.2682514  37.4838758  63.9900684  82.6244354
  34.5615387  42.5158930   8.5905665  34.0597105  42.1180916   7.8791231
  35.3445911  42.8652668   8.1651247  24.9768424  69.7445583  21.3623619
  24.6319699  70.6321430  21.2649632  24.3544436  69.3082714  21.9441724
   4.7468635  45.2628565  27.2778964   5.5298418  44.7178459  27.1995592
   4.0290326  44.6914864  27.0049763  10.3271592  42.5102043  36.8849301
   9.5471227  42.1179438  36.4926195  10.9404099  41.7812729  36.9788194
 104.8155499  38.8500071  33.4365821 104.7310162  38.1082559  34.0356565
 104.2294884  39.5160842  33.7959075  69.8475266  82.8947926  81.1117172
  69.1508484  83.3647251  81.5700054  69.9481058  83.3638382  80.2833939
 107.1689892   4.6429771  10.0736177 107.9952908   4.2528450  10.3586543
 107.4055386   5.1781970   9.3161118   2.6143816  44.9231625  79.5005846
   3.2246679  44.5339632  78.8742447   2.9324847  45.8179522  79.6205568
  76.1130095   2.8193310  90.7067394  75.7406902   2.4812350  89.8923111
  76.1858082   3.7629104  90.5632496  10.6529903  81.0585594   5.5294591
  10.2376842  81.7036152   6.1018741  10.0365233  80.9486866   4.8054928
  50.3489494  77.7918196  74.1528511  50.7781458  78.2104015  73.4066582
  49.5238113  77.4596977  73.7991858  14.0454686  35.1326919  45.9595394
  14.7656381  35.7455373  45.8111763  14.4675529  34.2751431  46.0113621
  94.9627686   0.3696878  61.2566900  94.9646378   0.0730629  62.1667719
  95.8324528   0.1412412  60.9285307 104.9759769  35.0499010   6.7345256
 105.8015823  35.1784325   7.2015244 105.1704407  35.2994633   5.8311242
   2.6785970  12.2941065  45.2167320   3.3932894  12.8254032  45.5676889
   2.9900786  12.0116079  44.3568420  35.2398801  77.8476048  80.1125908
  34.5149136  78.4630489  80.2216148  35.9012723  78.3402538  79.6267033
   5.3654629  40.1810503   4.8783344   4.7007626  40.5106354   4.2735371
   5.3075820  40.7614374   5.6373012  31.4096975  59.5212221   9.1616476
  32.2300386  59.1409254   8.8475704  30.9456515  58.7885475   9.5667124
  23.2357621  23.3480430  25.2615309  23.7692904  22.5938845  25.0108862
  22.5511003  23.3895659  24.5938897   1.8472664  84.8589611  86.9786072
   1.2927085  84.4145584  86.3373566   1.8825734  84.2575264  87.7224159
 113.4573460  25.1065660  13.6368930 113.1035900  24.9719024  14.5160687
 113.0208015  24.4458055  13.0992579   9.4038777  49.6805787   0.0403465
   9.1803221  48.8156724   0.3841365   9.7834067  50.1442456   0.7868064
  14.0089738  37.3046494  32.6666808  13.1872451  37.6207137  33.0423045
  14.6045804  38.0511951  32.7311277  93.6965561  57.2194815  36.2192154
  93.7613297  58.1570244  36.4010048  93.9137363  56.7986488  37.0510626
  45.2732420  77.4872780  84.9997616  44.3990850  77.7337313  85.3020000
  45.8039665  78.2720852  85.1362801  95.9719276  14.5863831  20.4612041
  95.7415676  15.3838623  19.9845588  96.4902496  14.0765131  19.8386228
 108.7930870  40.2545023  10.5352855 108.9107990  39.5526361  11.1754119
 108.3162785  40.9348154  11.0107386  16.4935696  57.9946566   8.0178607
  16.9565117  57.2561979   8.4135771  15.8565450  57.5901794   7.4289382
   3.5086116  22.9277635   5.5165958   2.9240119  22.6911473   6.2366575
   4.3664888  22.6005507   5.7871705  82.0511150  18.9648914  85.0762844
  81.3881683  19.6036124  85.3385067  81.6514587  18.1150770  85.2615261
   2.1591279  52.3859882  10.7094741   1.9003278  52.9557753   9.9851817
   2.6045644  51.6507626  10.2884555  20.2887917  19.4011533  29.2570424
  20.4582477  18.5576630  28.8374734  19.7056484  19.1927373  29.9869323
  29.9075484  30.9223318  17.9927182  30.2521873  31.3196087  18.7924850
  29.3517542  31.6004610  17.6087093  38.6753058  92.5918579  80.7693005
  39.3007612  93.3132648  80.8371639  39.1115379  91.8555260  81.1979675
  74.0929270  15.7746327  91.8792152  74.9312878  16.2064672  92.0432377
  73.4472513  16.4797735  91.9252110  42.7552509  73.7879801  73.3749485
  43.5378695  73.2736206  73.5728836  42.0332336  73.1640720  73.4501648
  14.0126050  24.7037721  28.8371134  13.8165224  25.5639267  28.4657383
  14.4627213  24.2361093  28.1336093  40.0963211  49.5647573   6.2540752
  39.9708462  48.6513615   6.5113467  41.0464382  49.6784782   6.2300712
 115.9862137  12.1653032  91.6959572 116.3010883  11.8021667  90.8681774
 115.4570103  12.9207897  91.4401913  56.3778353  77.2488165  75.1534510
  56.6491461  78.0395889  74.6872997  55.8232212  77.5686455  75.8650303
  13.4361565  25.3751183   6.8494374  12.5808012  25.3433704   6.4209616
  14.0659022  25.2888989   6.1337429   1.0842508  10.6116414  84.1472435
   1.4935561  11.4556408  84.3379402   1.2446283  10.0852597  84.9304581
  95.0946808  18.6652863  85.2349567  95.5633068  18.6369538  84.4007969
  94.5160580  17.9031610  85.2106094 102.2128105  56.8391037  24.6422863
 102.3595715  57.6994228  25.0354099 103.0115509  56.6636753  24.1448236
 112.0757580  50.5608606  14.2996418 111.9392967  49.7111702  13.8805437
 111.4026260  50.6037807  14.9788249  24.1564369  55.8684731   4.7370780
  23.8083339  56.4690971   5.3960985  23.4362626  55.2631760   4.5604533
 106.1179924  59.1568041  19.7989905 105.8137131  60.0510406  19.9538624
 106.4701748  58.8741016  20.6429553 109.2564869  75.7798767  12.5831425
 108.4784508  75.5350304  13.0840933 109.7038174  76.4221478  13.1341577
 101.0582066  34.6861506   8.8650686 101.2204170  35.5446362   9.2561233
 100.5544567  34.2127013   9.5271194  52.8099966  82.6005363  57.2561264
  52.7374029  81.7598152  57.7079630  53.6423922  82.9638100  57.5584126
  46.5139437  88.3757782  74.2796373  47.4519300  88.4483433  74.4561243
  46.4516211  88.3437538  73.3250046  97.9591560  46.8333673  14.2580974
  98.6910725  47.0681047  14.8285651  97.9645348  45.8762980  14.2431319
  44.9037075  78.5281420  77.0483065  45.4888535  78.0407143  76.4684391
  45.4608965  79.2000341  77.4411583  16.9462967  55.8787251  15.2689385
  17.7983785  56.2792540  15.4414678  16.3258862  56.4122438  15.7656085
 111.9782543  38.2903481  11.6180599 111.2428379  38.4688616  12.2041726
 111.5981579  37.7741981  10.9071839  16.9448924  58.4626055  36.4474607
  17.1178234  59.3894863  36.6124439  17.7537811  58.1342125  36.0549188
   6.5417165  13.4929514  13.0070364   6.9671965  12.8564882  13.5815918
   6.8749368  13.2874119  12.1335661  98.0568504  36.7725372  22.8517008
  98.5155392  35.9333086  22.8908372  97.5377369  36.7994761  23.6554646
 103.3528328  28.7626624  13.0483484 103.1245899  27.8518009  12.8626823
 104.0954781  28.7057209  13.6495650  61.7842960  97.1105194  74.3431664
  60.9724140  97.1770096  73.8405132  61.7445374  97.8412724  74.9601412
  30.8098936   3.3400881  56.2964535  30.2788043   2.6522622  55.8951187
  31.2271190   3.7825489  55.5572748  16.0375023  42.6270294   3.1002825
  15.5314493  42.7101707   2.2920564  16.3434827  41.7200518   3.0990604
  44.5926285  23.7094617  22.9431200  45.0139570  23.1614375  22.2810173
  43.7583256  23.9632201  22.5484347  36.9982529  47.7563810   9.9869084
  37.2177124  46.9401979  10.4362571  36.5352774  47.4777937   9.1967982
  82.4245167  93.5766983  86.4656353  81.5367126  93.2501698  86.3193130
  82.3857403  94.4985008  86.2106705  65.8282089  93.0389690  70.9585190
  65.8328438  92.1179962  71.2193203  66.7353201  93.3238029  71.0691786
  52.6352596  89.3864727  85.3232288  51.7942905  88.9583397  85.1628780
  52.4052382  90.2845287  85.5615711   4.6033520  80.5989170  90.2544689
   3.9777428  80.2301788  90.8780670   4.7213927  81.5046310  90.5408096
 113.0320740  35.3004241  20.3495502 112.5606346  36.0592127  20.6933737
 113.6195850  35.6635904  19.6868467  68.5443974   5.6200635  82.0756912
  69.0210295   5.1671672  81.3800335  68.9331245   6.4943683  82.1023941
   7.8398985  69.1584110   9.7505468   7.6319891  70.0777102   9.5835096
   8.7649894  69.1629076   9.9963480  25.4965901  38.6457539  27.3933697
  25.5352831  38.6307812  28.3496690  24.7086191  39.1510797  27.1934247
  72.7808952 103.0485916  80.3819847  71.8563890 103.0571461  80.1341057
  72.8200722 102.4662590  81.1406517 103.5696507   0.4482972  79.9179411
 103.7653828   1.1553290  79.3031025 104.2476845   0.5205217  80.5897236
 104.1187382  38.2803535  21.1360240 103.4831619  37.8961468  20.5321550
 103.8473892  37.9688311  21.9994807  18.0597472  40.6463242  30.5196929
  18.0712676  39.8893332  29.9339795  18.8175356  41.1668873  30.2532291
  44.6930075 103.4313297  66.1953545  43.9355803 103.9802742  66.3983059
  44.4044352 102.8861332  65.4634237  14.6144485   7.2541261  13.6480856
  14.6336353   8.1115931  13.2230997  13.7598264   7.2188318  14.0777457
  16.6110313  54.4803953  53.9935780  16.4815068  55.0685644  54.7375584
  17.4895203  54.6873617  53.6747456  31.0282207  97.3838425  59.9911976
  31.1502314  96.4445210  60.1291180  31.0227537  97.4874783  59.0396404
  18.6073995  84.6926594  81.5549850  19.4168782  85.1206017  81.8339825
  18.8097000  83.7574291  81.5808010  77.4359369  93.5983944  60.6108236
  78.2548189  94.0931988  60.5820704  76.7581797  94.2636585  60.7304287
  10.0041485  64.3372393  15.8321178   9.8130089  64.5222855  14.9126303
   9.5931852  65.0565434  16.3116407  14.7846937  37.7364612   9.5773458
  13.8697505  37.5778484   9.8096240  14.8942327  38.6830258   9.6681809
  23.3079052  53.4572220  32.4550796  22.6186991  53.0135202  31.9607520
  23.0762148  54.3848324  32.4092865  77.9891014 100.2332211  16.3154745
  78.6263657  99.5425034  16.4971972  77.2646761  99.7826004  15.8814490
  99.3733883  17.1605110   4.6098790 100.2310848  17.3157513   4.2142925
  99.0747070  18.0281472   4.8823279  43.1169796  71.4136982  58.9692402
  43.5461140  72.1829891  59.3437624  42.4898052  71.1397409  59.6384430
  90.1134682  99.9995518  22.9247308  89.7922611  99.8585129  22.0341301
  90.1371574 100.9514046  23.0228686  35.6050444  24.7885156  18.2160544
  35.7842922  25.3331971  18.9824891  35.3952456  23.9275265  18.5778749
  12.0056415  63.5665607  12.9908013  11.0573149  63.6965036  12.9956281
  12.1826100  63.0642128  13.7861395 112.6341629  64.7362947  29.8397684
 112.9623318  65.4135990  29.2483282 111.8986702  65.1492691  30.2922368
   4.5070383  25.2152848  76.8186665   3.6788738  25.6796837  76.6973877
   5.0775957  25.8516407  77.2496510   8.5231453  40.9992456   7.0416880
   8.4545463  40.1915455   6.5326196   9.1452253  40.7909346   7.7387214
  98.5563469  98.4034443   8.7778986  98.5446358  98.9230537   9.5816994
  98.6501217  99.0485668   8.0770051  48.3498907  66.1370134  75.8164167
  48.9624929  66.8231153  75.5514288  47.5445271  66.3378239  75.3396654
  51.5787172  62.4538326  83.9594936  52.3126745  62.3461628  83.3545589
  51.8607855  62.0105505  84.7595978  40.9623575  87.4972439  70.2556610
  41.8286610  87.2909164  70.6066275  40.4739428  87.8348446  71.0064697
  82.9795837 103.6398983  76.6198444  83.5297108 104.0894127  75.9783459
  82.8276253 104.2920017  77.3038721 102.6408386  13.7266207  44.2268658
 103.2084084  14.0650856  43.5343838 102.5840664  14.4415307  44.8608351
  51.3253784  59.6714497   3.8234425  50.9828186  60.1586390   3.0740881
  52.2425365  59.9386644   3.8838476 111.2577820  56.1580896  10.8454919
 111.4059258  55.3956556  11.4049423 110.3079224  56.1908102  10.7318127
  98.1741142  46.1975956   1.5528980  98.5891247  46.3328838   0.7010192
  98.7611294  46.6258192   2.1760057  20.3113413  36.4628506  11.7289984
  19.5930052  36.6937041  12.3180079  20.0334573  36.7889810  10.8730483
  21.5708113  29.3097234  31.8881059  21.0182142  28.5678887  31.6420341
  22.1579051  28.9592409  32.5579667  94.6889114  12.9438257  88.6938858
  94.4642639  12.2592187  88.0637455  95.6207371  12.8120172  88.8687134
  87.1980667  92.6906967  65.6197357  87.9635429  92.9958057  66.1067581
  87.3274612  91.7458534  65.5375385  96.0797405  98.2210445  93.6317635
  95.4292583  98.9162445  93.5327244  96.4419174  98.1050110  92.7533531
  22.7071476  22.6466370  10.8480108  23.4801650  22.9588699  10.3777075
  22.8255200  22.9664779  11.7423940  59.0892506  94.6427536  76.8133974
  58.6962700  95.3935814  76.3683558  58.9524364  94.8176765  77.7444792
  48.3139801 102.3225403  87.8255367  48.3682775 102.3444748  88.7809372
  48.4599876 101.4042187  87.5983620  16.9294214  76.4424610  16.8462324
  17.5092614  75.6865311  16.9389009  17.2410560  77.0652866  17.5028956
  31.8002033 103.0207539  32.8801680  32.5301123 103.6393070  32.8508806
  31.4618206 103.0916786  33.7727499  36.2226558  51.0794687  28.7572622
  36.5774822  50.7492590  29.5826674  36.8201160  51.7831993  28.5042000
  49.0725565  79.4881773  61.0652065  49.9639368  79.3714619  61.3939190
  48.5836649  78.7514639  61.4319086  71.6016960  94.9738503  73.4089422
  71.8835258  94.9582195  74.3235779  70.8666468  94.3616962  73.3743095
  53.7509680  50.2016306  25.4980850  52.8917027  49.7815800  25.5361223
  54.1116810  49.9330282  24.6531153  73.0952787  97.7305603  79.3542099
  74.0186071  97.9726028  79.4257402  73.0568552  96.8326378  79.6835852
  48.9010525  78.5871935   4.6767569  48.0154848  78.9491463   4.7083306
  48.8238001  77.7285147   5.0926119  48.6731103 109.4922887  86.0392666
  49.5079186 109.9325444  86.1989403  48.4901288 109.0232404  86.8533516
  25.6260777 105.7993317  68.9150524  25.5117679 105.9399319  67.9751635
  25.6012821 106.6781998  69.2934704  76.6633892  77.8620863  82.0087624
  76.1783028  77.4361372  81.3020229  77.1061707  78.5978174  81.5858269
  29.7876811  52.2153091  19.4146657  30.1592040  52.3485899  20.2866960
  30.5346608  51.9624329  18.8721657   9.0864551  14.3255997  85.1351452
   9.6159923  13.6894178  85.6158733   8.5239905  14.7210193  85.8011150
  13.5705554   8.5708827  86.5343761  14.4708669   8.5734373  86.2093163
  13.2027078   7.7471614  86.2143707  12.0606637  20.9266496  49.0379286
  11.9177043  20.3185916  48.3126307  11.8481672  20.4192591  49.8212767
  62.7648115  88.9808559  71.5344191  62.1142673  88.4692669  72.0153522
  62.9886246  89.6998692  72.1253204 102.1193600  17.1461689  58.2475758
 102.9317856  17.4139762  58.6770868 102.4030209  16.7540622  57.4217319
 100.2152729  12.6233113  59.8796654  99.9797535  12.9231036  59.0016651
 101.1091805  12.2934258  59.7883558  20.4379511  36.7401218  14.8602140
  19.7579932  36.2871146  15.3588843  21.2593794  36.3736439  15.1876020
  40.8226633  32.1866608  32.8358698  40.8741379  32.3917389  31.9023132
  41.1861563  31.3040733  32.9076076 106.7102242   5.1264483  89.5449543
 106.3615322   4.6780202  88.7745285 107.1041107   5.9270167  89.1982937
   4.5918936  27.6056361  50.1996994   4.8700258  27.1876574  49.3847370
   3.7581015  27.1860075  50.4116774  94.2368603  72.5371838  83.7577248
  93.8505363  71.6710997  83.6277866  93.6762714  72.9537487  84.4122887
   2.5398040   8.5312432  80.2224350   2.4390963   8.3556771  81.1579895
   3.3588040   8.0969185  79.9840355  93.1936264  17.0526433  93.7039375
  93.7595367  17.4364853  93.0341244  92.3171711  17.0774996  93.3199596
  83.1202412  92.2697926  59.8915339  82.2496223  92.2246838  59.4962883
  83.0574703  92.9814053  60.5286312  23.3272052  59.5589495  20.4288936
  23.2235599  60.1541471  21.1713409  23.5690904  58.7217903  20.8249903
  94.9003315  22.6412463  83.3520794  94.1637135  22.1221328  83.0293655
  95.6628323  22.0750165  83.2328606  16.7745519  33.0357122  78.5623980
  16.2635338  32.5154424  79.1824055  17.2488272  33.6620951  79.1091490
  25.9303212  74.7513580   1.7385557  25.2605414  74.4360781   1.1317401
  25.5627179  75.5560493   2.1040231  15.9013212  44.4922590  55.7070684
  16.8072689  44.7907019  55.6269073  15.5210996  44.6459627  54.8421764
  73.8922596 101.2366199  83.5706711  73.2018232 100.6329250  83.2966805
  73.4700012 102.0956135  83.5788250  70.6025600 101.6326523  77.1045732
  70.9970284 101.9679260  76.2994528  70.6225157 100.6810856  77.0028400
  42.6486111  44.0247107  19.3895519  42.6230907  43.2564020  19.9598908
  42.4766779  44.7628355  19.9742210  41.0830355  75.4870558  71.9430542
  40.8500195  74.9964809  71.1548424  41.6300154  74.8846245  72.4471569
  47.4117136  62.2114658  11.8627012  47.8980637  61.4063120  12.0399690
  47.9026985  62.6381874  11.1605108  55.2886343  79.7340155  93.8812828
  54.9624062  79.0217590  94.4312763  56.1848593  79.4775629  93.6639214
  25.6401896   0.1675509  62.0305777  24.8397851   0.3423028  61.5355539
  25.6948590   0.8871854  62.6593590  34.0962029  76.7807865   1.3446252
  34.3836141  76.3762999   0.5260792  34.6860719  77.5251198   1.4640120
  62.6899195 102.2710037  73.1625271  61.9256401 102.8202057  72.9879427
  62.5507736 101.4897633  72.6272345  22.5123191   4.1797462  90.4886246
  21.7474437   3.6102802  90.5717278  22.2056174   4.9173138  89.9612141
  46.6742373  59.6076012   5.8140653  46.8801641  59.3443918   4.9171007
  46.0705662  58.9346123   6.1285520  79.8322535   5.1815951  76.6013241
  80.7780552   5.3142983  76.6651678  79.7054052   4.7690892  75.7469368
  99.0242004 102.0257759  67.9869223  98.4768772 102.5403881  68.5800791
  99.1243649 101.1810017  68.4257412  41.0464239  90.2908802  57.4192810
  40.9997988  91.0579681  56.8486357  41.3240528  89.5795155  56.8421125
  61.6743279  72.3612499  71.8943882  61.2687588  73.1372166  71.5075779
  62.4722719  72.2278357  71.3828039   0.6157939  38.3148932  23.0374694
   0.2859125  37.4469399  22.8049469   1.5576822  38.1899595  23.1535268
  99.0297604  57.9616022  33.7236643  99.9484253  57.7235460  33.5987186
  98.7599087  57.4746370  34.5023036  99.7091579  13.9180326  77.1271849
  99.4785023  13.7505579  76.2134075 100.4612350  13.3494425  77.2924471
  59.2676973 104.2584705  61.1422920  58.3994293 104.0720940  60.7850695
  59.7721052 104.5750332  60.3928995  33.4440112  41.5833044   6.1980259
  32.6342702  41.5186214   5.6916964  33.7371182  40.6775618   6.2977761
 110.8447647  76.5257978  88.2511616 110.4171276  75.7625914  88.6395931
 111.7803860  76.3333368  88.3128452  12.6112878  48.7196493   7.6411813
  12.9026437  49.3737125   7.0059299  12.9181492  49.0518188   8.4848237
  72.3807049 102.7240849  86.6945267  72.0903873 101.9927311  86.1494827
  72.0647621 102.5089645  87.5720978  66.3319445  25.4529810  72.0677948
  66.8612957  26.1500549  72.4552345  66.7029905  24.6451092  72.4226189
  28.9479589  38.2653809  19.3289220  29.4383192  37.8758383  20.0528240
  28.3658218  38.8993835  19.7477174   1.6071020  54.9334574  33.8491368
   0.7897589  54.7164059  34.2975450   1.9615799  55.6733990  34.3421507
  29.0756106  53.0740690   4.8246038  29.8035455  53.0655670   5.4461080
  29.0004778  53.9898014   4.5562485 111.2060833  20.1724625  82.2919083
 112.1616077  20.1884270  82.2376060 110.9850216  20.9223032  82.8442669
  55.2401924  81.7941284  80.4443645  54.4778395  81.2872696  80.7239056
  55.8645248  81.7044926  81.1643696 113.4136391  91.1761284  63.6754894
 113.6217880  92.1103859  63.6667204 112.6740360  91.0898685  63.0740166
  60.6751919  82.2716236  18.5126638  60.5781841  83.0882454  18.0228186
  59.8128700  82.1206379  18.8997543  21.2901282  49.5792246   6.8487084
  20.3667855  49.6907234   7.0750701  21.7641020  50.0320768   7.5462067
  38.5050988  91.0711193  78.3933401  38.5713434  91.7707920  79.0431833
  37.6144624  90.7349491  78.4932899  38.7895823  54.9219418  14.2921710
  38.8735771  53.9899445  14.4935715  39.4476342  55.3462219  14.8427916
  72.7524281 110.0251865  91.8394470  73.2141399 109.3157387  92.2863674
  72.2009659 109.5828915  91.1940861  48.4693956 109.3605518  91.0071945
  48.5735750 109.0523338  90.1069832  49.2233324 109.9318695  91.1535072
  60.2616024 105.2339363  78.0363894  60.6916904 104.4006157  78.2283258
  60.9818411 105.8511162  77.9076433  29.8756957  60.0797224  11.8797672
  29.0577793  59.6328878  11.6616237  30.2063727  60.3976488  11.0396445
 104.8686028  18.4089994  85.7179546 105.1336670  19.2683172  85.3900051
 104.0341282  18.2336390  85.2830601  72.7150679   4.2062175  78.8300753
  73.5051298   3.6673787  78.8712072  72.9845762   5.0538486  79.1837978
  47.7339458 102.7941513  54.5141649  47.3593760 103.4872246  55.0578356
  48.5488701 103.1673241  54.1782045  15.0947440  75.7009602   4.9659041
  14.7512698  74.8325634   4.7557992  14.3619061  76.1538887   5.3830808
  35.1039195  22.6553416  11.7731524  35.9469819  22.8784370  12.1677470
  34.9802113  21.7290211  11.9801736  74.4415474   5.2885604  69.2320776
  74.0581036   4.9026921  70.0196743  73.8039303   5.9454012  68.9523697
  34.5125365  30.5667996  23.0474329  34.3584323  29.6459293  22.8365374
  35.3549361  30.5706954  23.5019469  30.7856965  48.3244514  17.5982773
  29.9040556  48.6543512  17.4247551  30.7094216  47.3751450  17.5022125
  76.9777727  12.3860013  78.6125708  77.2555828  11.6076159  78.1296921
  76.0223627  12.3296964  78.6284494  95.5564404   4.9914366  74.6266079
  94.9733162   5.0640571  73.8710165  96.1493969   4.2739132  74.4034576
  65.2855110  93.9790726  74.7992754  66.0913324  94.3325233  75.1760483
  64.7625494  94.7515202  74.5846367  92.6582813  94.3673801  91.5940762
  92.7590084  94.3653584  92.5459576  91.7131329  94.4233227  91.4533615
  53.4279013  52.5419521   7.4989432  52.4813271  52.5164366   7.6388508
  53.7357092  51.6822624   7.7860409   5.9667104  44.6931601  24.0989065
   5.6588918  45.0404406  23.2617235   5.2193052  44.2057371  24.4453692
  47.3247910  76.7399979  83.4166622  46.4525843  77.1036482  83.5691452
  47.7912426  77.4275970  82.9414177  19.3045354  49.6661997  21.3404441
  19.7273612  48.9105368  21.7483974  18.4840453  49.3206692  20.9888268
  25.9809542  25.0826383  85.7018375  25.7369947  24.1699719  85.8559704
  25.9366274  25.1851392  84.7511768  35.3609967  43.9210987  13.0135107
  35.8561039  44.4236660  12.3665738  34.5454764  44.4100189  13.1235778
   5.1217544  36.7696285   5.1362431   4.5274732  37.4099708   4.7450620
   4.6552423  36.4505792   5.9087753  71.4824295 106.8309212  81.7975521
  71.4782000 106.4788437  82.6876354  70.6549168 106.5343571  81.4187431
  39.4458294 108.4603214  44.9934244  39.8827076 108.2290936  45.8131218
  39.9021220 109.2459869  44.6921730 102.1092892   1.7895700  89.2850304
 101.4292717   1.4796486  88.6869049 102.0381069   1.2147532  90.0471020
  69.1157532  77.2514057  31.6565847  69.0097284  78.2025576  31.6391325
  69.8131752  77.0765162  31.0247207  26.4703465  24.4095230  37.2600174
  26.0517335  24.7487259  36.4688540  27.2625852  23.9749026  36.9442749
  60.3970575  85.8024597  60.0463629  61.0011053  85.3061295  59.4940758
  60.9138680  86.5447617  60.3596163  79.3602610 105.4484844  64.4488716
  80.2358627 105.1545620  64.7001982  79.1795254 104.9889183  63.6288977
   7.4527550   6.3461131  92.3378086   7.0958155   7.2189832  92.5018978
   7.5354248   5.9538674  93.2070255  84.4523525   5.3984630  53.2046747
  84.6068096   6.0968733  52.5685930  84.2170048   5.8569050  54.0113163
   6.1029595  47.7746582   9.9483943   5.3219950  48.1719923  10.3336895
   6.8295866  48.1285620  10.4612291 107.3902035   5.1310426  73.2419825
 106.6480732   5.6832820  72.9960060 107.0327759   4.5243683  73.8903856
  56.5496445 101.8979645  90.2245712  56.7405987 101.2898159  90.9386539
  56.1992073 101.3449669  89.5262718 105.9834766  16.4463866  51.0752153
 106.4547920  15.6393611  50.8683443 106.6710281  17.1019006  51.1926985
  33.8519120  31.2636900  20.4366994  34.2757034  31.3676190  21.2886572
  34.5537281  31.4048314  19.8012745  89.5442295   8.0422610  81.2341785
  89.5587349   7.1272349  80.9535503  88.8847828   8.0697447  81.9274330
  20.9340191  38.7923217  90.6667042  20.3882289  39.4822526  90.2894211
  21.5158844  38.5302067  89.9532890 110.4671764   3.3625209  93.6232376
 111.0553074   3.8702419  93.0641747 109.7649193   3.0795598  93.0375671
   5.2826554  12.8215086  77.7923822   5.6547290  13.1834459  76.9881487
   5.3902119  11.8747580  77.7011347  14.8042703  37.7306819  77.6634264
  15.4941809  37.8401089  78.3178616  14.3103302  38.5499120  77.6968431
   8.7085927  44.2809629  84.0906811   9.2884749  44.9338913  84.4826603
   8.8065994  44.4092178  83.1471825  19.5563030  21.0295248  80.2734089
  19.3275368  21.8809056  80.6462955  19.7710240  21.2180543  79.3598604
  12.2350872  10.2553868  81.7398453  13.1262243  10.4966795  81.9925976
  12.2278869   9.2987359  81.7714500  38.1670308  -0.0025210  88.9915276
  37.3029065   0.3568751  88.7906456  38.4324574   0.4463973  89.7941780
   7.5343287  78.2680655  78.3426428   6.7352086  77.7656364  78.1838894
   7.4292272  79.0587378  77.8134680  29.6176696  38.8528848  72.4089813
  29.9414778  39.2921185  73.1954002  28.8404822  38.3776665  72.7028894
   3.4481056  -0.1278221  54.4250202   2.7590759  -0.2856361  53.7796021
   3.8665779   0.6828297  54.1352654 110.6773281  19.7004366  55.5402470
 110.9967804  19.0042925  56.1143255 109.7353649  19.5434630  55.4747009
  13.1168413  25.0428295  79.3062639  14.0127921  25.2140474  79.0161133
  12.9627681  24.1257381  79.0794706  12.0699632   0.4943663  33.6948133
  11.6016924   0.3856413  32.8670859  11.5316308   0.0318649  34.3370914
  11.6998947  34.6118045  82.4874687  12.3561430  35.2427220  82.1916485
  11.9003308  33.8119936  82.0013046  16.0886228   9.8927981  89.2965889
  16.6364264  10.1681364  90.0316620  15.9769356   8.9503074  89.4209671
  19.1666818  65.5136061  81.7943382  19.0333319  64.9808073  81.0103893
  19.0261412  64.9080849  82.5222301   4.4925630  33.6620021  69.4148636
   3.7731358  33.0725527  69.6411562   4.7752464  33.3728552  68.5472727
  14.8306835  69.9795532  20.0803208  14.5973432  69.1310596  20.4569364
  13.9954054  70.3570747  19.8045993  50.4506540  17.0354092  71.4703703
  51.3701725  16.8703866  71.6789007  50.3859138  16.8744171  70.5290270
  61.6700792  16.0819507  47.3837233  61.2404966  15.4797900  47.9912519
  62.2618866  15.5274713  46.8752432   0.2343331  17.3747516  73.4142637
   0.3428326  17.7233589  74.2990971   0.5406914  18.0772769  72.8408194
  23.5966110  21.9374061  69.9155188  23.1229043  21.8087006  70.7372665
  22.9105067  22.0777965  69.2630005 113.7843037  20.5862308  83.8842964
 114.6972942  20.8115363  84.0629578 113.3367252  21.4301896  83.8240147
  42.0490408  29.5660019  75.7432842  42.7832699  28.9756536  75.5740833
  42.4484062  30.3339028  76.1520243  37.2552299  93.9560318   3.1650174
  38.0955887  93.5862160   3.4356886  37.1179175  94.6964264   3.7559411
  24.5707679   2.9778841  46.6441250  23.7714148   3.1941494  47.1242237
  24.9417019   3.8264114  46.4019632  62.7676725  69.3362665   2.2330281
  63.1244993  69.1493559   3.1013429  62.1119833  70.0168705   2.3849531
 107.7389050  86.9462490  80.5577850 107.9207516  86.9333363  79.6181107
 108.1669807  87.7419853  80.8736706  11.6812086  25.6821012  90.5059242
  11.6239285  25.1247668  89.7298241  11.0157490  26.3558817  90.3665829
  47.7981141   0.1611889  81.5724945  47.3361996   0.0832833  82.4072456
  47.1831748   0.6203164  81.0004139  37.3603058  16.6883957  56.6117764
  38.1461239  17.0543706  57.0177174  36.9362545  16.1942625  57.3133802
   9.5813745  10.1665342  79.6791506   8.7480390  10.4999697  80.0117302
  10.1140475  10.0289631  80.4624557  47.5678873  74.0232658  13.9457977
  46.7816925  74.5692635  13.9495122  47.3510885  73.2872963  14.5181406
  54.6807957  84.1169643  11.2496841  53.9981365  83.4761810  11.0506952
  54.5283175  84.8298264  10.6293511   8.2812881  12.5571239  80.6166840
   7.4378872  12.8215969  80.9840488   8.8574553  13.3044076  80.7773972
  73.4505177  95.5830669  93.7619686  72.8857374  95.7809162  94.5090389
  73.1234121  96.1445045  93.0591106  26.0247898  24.7798729  70.0359726
  25.8183312  24.4998908  69.1442204  26.3957596  24.0014791  70.4515648
  45.2697945  72.5325203   5.4656088  44.5513105  72.0053101   5.1162368
  45.8879471  71.8918848   5.8173269  12.1359193  10.6841993  93.5399818
  12.9515374  10.7772279  94.0322685  11.5996873  11.4249742  93.8227177
 102.1879578 106.3746929  59.6888971 102.2586346 105.4602718  59.4148779
 102.0911026 106.3328266  60.6402683  17.6906204  27.2175312  53.6920786
  17.3965418  26.3302636  53.4859085  17.8612792  27.2005320  54.6337891
  14.4991386  44.2590141  86.8579578  14.8417926  43.4006548  86.6088867
  15.2436376  44.7066784  87.2598934   3.0208254  21.3633609  86.4796448
   3.0415526  21.2354612  87.4280357   2.3693463  20.7353902  86.1674595
   2.2407129  15.4073942  73.4910727   1.6102535  16.0942960  73.2744646
   2.5335047  15.6216836  74.3768406  47.4274254  62.3202229   5.9619731
  46.9729328  62.7559280   5.2409822  47.1052313  61.4191818   5.9385443
  46.6275597  70.2241278   5.6264687  46.9267511  69.6551418   6.3356745
  46.6763353  69.6762562   4.8430830 114.7994995   1.8645327  76.6478729
 114.8242283   1.5762448  77.5602913 113.8979816   2.1568075  76.5133905
  55.7388926  65.1396847  21.9815159  56.3518047  64.5739079  22.4510550
  55.6099129  65.8883953  22.5637817  45.8619404  40.3338432  22.5253391
  45.4914188  40.7134676  21.7285752  46.6744328  40.8197355  22.6667500
  79.2540503  22.5942326  66.3560867  78.9598179  21.6834426  66.3451767
  78.4710217  23.0962014  66.5821934  92.4736786  86.8477440  34.9617672
  92.0403099  87.0635319  35.7875085  92.0848560  87.4460125  34.3237090
  89.2845154  21.2601638  74.8644876  88.5618305  21.6101885  75.3854847
  89.8500538  22.0150900  74.7017193  37.1090889  45.5426359  21.1719871
  37.4954748  45.5021477  20.2971745  36.5849233  44.7445583  21.2394762
  55.5868101  90.6962872  24.2986941  55.6616211  90.8876514  23.3638072
  54.6971083  90.9649849  24.5277309  29.4211626   7.1878737  69.4603205
  29.8940277   7.0417792  70.2796412  29.9124527   7.8818470  69.0207005
 110.4666233  32.5427508  84.7138023 109.5156288  32.4962449  84.8121834
 110.7409477  33.2049537  85.3482056  83.2558918 104.5506668  67.3573351
  83.7112045 105.3470802  67.0841169  83.3733654 104.5213795  68.3068466
  19.7317243  17.3268175  51.1292410  20.5149126  17.8048956  50.8566809
  19.3754542  17.8431153  51.8522501  43.2226515  84.5956612  16.2232137
  43.5074329  85.4876804  16.0246134  43.1985521  84.5592308  17.1794164
  29.6132398  41.8062782  78.1749868  29.8528075  41.6933966  79.0948248
  30.3197694  41.3804579  77.6894760  18.1500685  51.7515516  58.0037069
  17.7891350  50.8650064  58.0023432  17.7448392  52.1739674  58.7610579
  55.7058907   0.1188242  12.2271299  56.4497948   0.2071511  11.6312802
  55.3718424   1.0102683  12.3269880 106.0355473  56.6952658  73.0987310
 105.1049900  56.9150162  73.1435156 106.1401081  56.2680626  72.2485590
  30.1696086  10.5043054  74.1576910  29.4105458  10.3433061  74.7181702
  30.8785939  10.7085264  74.7674990  11.5092099  28.5021162  50.9566021
  10.8436537  28.4226251  50.2732658  11.3721573  27.7365851  51.5146446
  26.3371706  45.2633858  61.9928789  26.4583492  46.1228657  62.3964262
  25.4722619  45.3098869  61.5854454  31.7462420   7.7542156  89.3427658
  31.0353565   7.9962254  89.9363232  32.5328207   8.1157953  89.7511578
   5.8602005  43.2085943  64.6249437   6.1521167  42.6441050  65.3407383
   6.3529670  42.9035473  63.8631296  12.5687933  28.5973525  89.3152618
  12.8508830  28.4886217  88.4070587  11.8932533  27.9303598  89.4377232
  93.8169098  96.9226360  61.0961771  92.9791641  96.4668560  61.0144615
  93.5893822  97.8514385  61.0539055  24.5814562  18.7445927  92.5354671
  24.9302483  17.9043007  92.8329372  25.0861859  18.9481831  91.7480469
  27.7601552  69.4581985  14.2118347  27.1615529  69.4372654  14.9584734
  27.1872354  69.5129395  13.4469843  91.3333797 104.3605518  85.1743412
  91.0368061 103.4596634  85.0452137  90.5718613 104.8972321  84.9545765
  26.4427257  13.4919977  75.6369925  26.7106509  13.0573928  74.8273230
  27.2347283  13.9317203  75.9461975  44.6045732  58.0415201   3.0979180
  44.3279028  57.7667427   3.9720941  43.8292980  58.4576797   2.7211010
   7.1431434  13.2173228  75.7429409   7.6003587  12.4749649  75.3478575
   7.7455682  13.5406578  76.4128447  64.2220736 103.9949799  59.3357992
  63.4307384 103.4948349  59.5354748  64.2595053 104.0123463  58.3794880
  51.0614109  50.4633474   0.4725139  51.9189930  50.8870077   0.5085461
  50.4908228  51.0333538   0.9880288  11.0078502  34.4020367  86.0217762
  10.2018034  34.6693254  86.4634514  11.0354543  33.4512043  86.1285019
  41.6798544   8.3319157  77.0318699  41.9450045   7.9110295  76.2140799
  41.0608768   7.7181858  77.4273872  42.2090006 100.5710030  26.5725374
  41.4859438 100.1489639  27.0365429  42.9927969 100.1265430  26.8955660
   5.7117140   5.9062088  47.8090000   4.8332486   5.7987827  48.1736803
   5.5874026   5.8423150  46.8620634   2.5194025  54.8293161  72.9770231
   2.6082277  55.6897640  73.3868647   2.9597473  54.2302608  73.5799026
  30.6869006  78.3165884  21.5341163  31.4194441  77.9569864  22.0344138
  31.0565495  79.0726137  21.0780334  65.6896591  89.4022942  21.9316864
  65.9204340  89.5262623  21.0110307  66.5312529  89.3532467  22.3850584
  33.5788584  25.3809643  49.8615694  33.0421305  24.6274018  49.6160126
  33.0273890  25.8822465  50.4622602  79.9340296 109.6426296   3.8090250
  80.1769924 109.0099907   3.1330252  80.7206726 110.1734447   3.9341283
  39.3178940  80.6462383  21.5628695  39.6852231  81.5127468  21.3883424
  38.6113167  80.5525017  20.9239674  79.2462254  82.7622986  32.6144934
  79.1318130  81.8827534  32.9744101  78.3880901  83.1748199  32.7128172
  45.2412319 103.5230923  28.7848282  44.8049355 103.8421059  27.9948235
  45.1421309 104.2348194  29.4171667  25.4841280  44.9116278  56.3223124
  24.5943117  44.8971367  56.6748047  25.3917432  44.5900726  55.4254818
 105.3663731  40.6801271  79.1498423 105.9597874  40.6549549  79.9004793
 104.5680618  41.0848808  79.4890976  67.0907640 103.4880352  15.6026471
  67.4975014 102.7233124  15.1952171  66.9253635 103.2185173  16.5061033
  24.5640635   4.3303657  83.6369228  24.2670155   5.1551092  84.0213585
  23.7574720   3.8684595  83.4082699  31.7561769  52.7987432  65.1667452
  32.5514984  53.0272722  65.6478548  31.1300755  52.5460529  65.8452559
  52.1633434  44.0559769  58.9182520  52.0635271  44.7302866  58.2462597
  52.0779467  43.2295752  58.4428549  58.3817244 104.0481853  57.1064854
  57.6577139 104.2738152  56.5224218  59.0539932 104.7031784  56.9186878
  45.6349754   9.0533555  56.5492249  45.9629536   9.2891699  57.4170113
  45.4989672   8.1069088  56.5936279   1.5376256  30.2579093  79.0118885
   2.3407656  30.7785487  79.0003824   0.8852410  30.8327794  79.4120741
  77.3507404  54.0600729   2.8838775  76.8897867  53.2227182   2.9348046
  78.2559204  53.8495159   3.1131029  26.8700862  17.3258162  82.5743008
  25.9287977  17.1892631  82.4667740  27.2645545  16.4953625  82.3078918
 116.1665058   4.5228311  49.9813223 115.7163239   4.1771933  50.7521057
 116.4510155   5.3985786  50.2427673  60.1608276  47.6464558  19.9039340
  60.9794283  47.8615808  20.3509808  59.5476580  48.3245373  20.1875854
  33.5493851  63.7720299  86.4434910  33.5319567  62.8166485  86.3871384
  32.6668143  64.0114164  86.7263412  30.4266214   8.6348343  77.2851992
  30.8131528   8.7791431  78.1489086  30.7889009   9.3338758  76.7408371
  97.7484798  95.8148766  56.7196274  97.3002911  96.2412643  57.4500751
  97.1790409  95.9697151  55.9659767  18.9201212  71.7787790   4.1121247
  18.1158376  71.4429379   4.5078126  18.6261952  72.4794817   3.5300082
  16.0293102  23.9283371  77.5662279  16.1777759  24.3990874  78.3863401
  16.5297806  24.4191027  76.9143724  83.5255241   1.5910278   5.4361469
  82.7782726   0.9929301   5.4244852  84.1836643   1.1417402   5.9664482
  87.5382614  76.8576574  41.8452692  87.1531200  77.5380945  42.3974514
  86.8392849  76.2126493  41.7373800  65.6063938  70.6855392  13.0205667
  65.3045368  71.4734364  13.4726048  65.5169010  69.9878263  13.6697352
  59.5945883  90.2536392  21.0843229  59.8317289  91.0310173  20.5786705
  59.4772577  90.5758190  21.9780040  48.4394073  84.1471481  10.8273304
  48.6596203  83.2260227  10.9661102  49.2051744  84.6267223  11.1433113
  47.0214272  51.7945576  21.5973496  47.9538202  51.9532871  21.4501119
  46.9577169  50.8489609  21.7315841  12.2504067  18.7914622  90.7698059
  12.2353029  17.8777301  90.4850388  11.3283217  19.0452898  90.8093357
   2.9191568   5.3821009  87.4167156   3.4315544   4.7275254  87.8912735
   2.4009268   5.8174145  88.0935955  32.9946446  44.2063951   0.8003007
  33.8112259  44.6291733   0.5344308  33.1938672  43.2702684   0.7858817
  37.6088262  55.9243727  86.7869663  37.6548433  55.0566959  86.3854122
  36.6850734  56.0355568  87.0117950  28.7634182  37.6752996  78.2226849
  28.7610435  37.8441620  79.1648722  29.6905422  37.6137757  77.9927206
  10.7750690  18.0711746  77.0234251  10.6163633  19.0127933  77.0897484
   9.9397266  17.7075899  76.7297602  87.3779964 104.5888042  76.2374878
  88.0442142 104.4218636  76.9042063  87.3461246 103.7819767  75.7234430
  33.3136201  30.1931953  86.4679432  34.0870762  29.6567178  86.6416931
  33.0094171  29.9034119  85.6078815  71.0153723 105.0442410  36.5354896
  71.0852766 105.8611870  37.0294094  70.0965595 104.7901058  36.6216969
  21.7253089  39.4698954  73.2818127  21.9763565  40.1658201  72.6744413
  21.4669538  38.7411642  72.7175140  63.0377197  11.9614136  65.2609301
  62.9638672  12.8026485  64.8102617  62.1567488  11.7897534  65.5935812
  63.7608862  64.5917988   2.4759211  64.2734623  65.3372192   2.1631126
  63.5618210  64.8038149   3.3878717  62.9074287  94.6483707  30.2340364
  63.7168074  94.5326233  30.7317710  62.7499533  95.5924034  30.2490211
  52.5969648  30.6300402  83.4393787  53.0364799  30.9203911  84.2386055
  51.7931747  31.1487389  83.4061146  27.0872712  19.0876758  56.6736603
  26.2469149  18.8200307  57.0456839  26.8795013  19.8544979  56.1397600
  67.5490093  87.2642326  11.5195441  66.8587923  87.1936035  10.8601153
  68.2835865  86.7736053  11.1508870  32.5293732  47.8236389  91.1831760
  32.0948148  48.5629702  90.7579899  33.4020591  47.8007078  90.7905865
  38.3102942  96.5273094  14.0791714  38.2808852  96.6860294  13.1356812
  39.2421079  96.5501595  14.2969632 102.5737572  57.8163862  42.3850012
 102.2843075  58.1034088  43.2510662 102.5780487  58.6148500  41.8571043
 110.1720238  59.8621368  84.2047024 109.9684429  60.6983376  84.6236992
 110.9496021  60.0420523  83.6762714  24.0903687  33.8904905  85.3602409
  24.7382975  33.7989807  86.0588455  23.9542270  34.8347235  85.2820206
  64.0833282  82.8680038   3.2089189  64.2071772  82.6466560   4.1319019
  64.5677328  82.1929550   2.7336383  38.6726665  55.0414896  59.9373960
  38.5572004  54.1710854  59.5562172  39.5814443  55.0527811  60.2377748
  69.4561192 101.8855368   0.3065837  69.3367025 102.2839056   1.1687148
  68.6969659 102.1762215  -0.1988065  80.6736374  72.8883791   8.8002783
  80.9142303  72.1777487   9.3947107  81.4647388  73.4231234   8.7336713
  94.5337963  89.2710400   0.7513983  93.7841225  89.8534775   0.8738498
  95.1966667  89.8189545   0.3311412  14.7316194  25.4581332  87.0521545
  15.6117690  25.8088446  87.1884155  14.7377086  24.6138954  87.5032234
  42.4677992  35.5171084  55.5263996  41.5234900  35.6171703  55.6467867
  42.7215624  36.2674022  54.9889088  10.9853160  61.1733866  89.8707485
  11.8174589  61.3252831  89.4227505  10.6720638  62.0489883  90.0975132
  43.4222317  91.8146706   1.3231362  42.9384851  91.9270992   2.1414161
  42.7542925  91.5738964   0.6811754 115.6400585  34.2214894  62.9258108
 115.5595398  33.2755113  63.0477571 114.7422886  34.5480227  62.9860783
 104.6020317  19.7501194  74.3405628 103.7639904  19.4693077  73.9730501
 105.1217270  20.0107503  73.5801554  81.5443516   8.4985012   2.3555794
  80.7871723   7.9167616   2.2885837  81.9624043   8.2534039   3.1810436
   2.2930950  45.3046131  88.4234047   1.8584275  46.0884619  88.0874443
   3.1333929  45.2818680  87.9655743  23.4830284  22.5547600  60.9153843
  22.6532197  22.4099255  61.3699961  23.2384491  22.6494288  59.9948120
 114.5014572  35.9381509  65.9352922 113.6861801  35.4897308  65.7106304
 115.0032234  35.2896929  66.4292240  92.4603271  43.9869833  54.3760729
  92.1958923  43.0767250  54.2429066  93.1402493  43.9429665  55.0483847
   3.3402714  98.5928917  42.9666424   2.5342441  98.3784771  42.4969816
   4.0203315  98.5809040  42.2931385  44.1587639  14.2449880  61.8517494
  43.6118555  14.5778203  61.1401653  45.0296974  14.1585886  61.4641380
  27.8644204 103.4202290  88.7040710  27.1295476 103.1046581  89.2300129
  28.6142969 102.9098225  89.0096855  45.3461027  93.6743736  10.8257246
  45.3968906  92.7343655  10.9990346  46.2527609  93.9383984  10.6692386
  59.6247196  61.3368845  16.3872337  59.6726990  61.5586662  15.4573178
  58.7694359  61.6628265  16.6673803  84.9034649   0.4638981   0.2900089
  84.3465895   0.1785397   1.0143626  84.2894209   0.7052445  -0.4034840
  50.6282091  32.0365691  56.7341280  51.0349846  31.2565899  57.1114922
  51.3120794  32.7052617  56.7715549  90.9530449   1.4479549   6.6042060
  90.8994007   1.0968761   5.7153308  91.4878750   0.8129799   7.0806485
  42.0122576  76.4572096  18.3590615  42.6211071  76.7780924  17.6938033
  42.5064993  75.7887983  18.8336039   3.8555408  21.6551185  43.3934546
   3.1951237  21.1063385  42.9704571   3.6782053  22.5374889  43.0675602
  72.7767134  85.4921818   3.7215695  72.0422840  86.0908794   3.8572294
  73.1210709  85.7269287   2.8598619  60.7137060  95.2204990   1.6194524
  60.2884483  94.6264935   1.0009514  61.3968182  94.6901798   2.0297624
  27.5499129  37.1865702  83.2275867  28.3457017  36.6731238  83.0885696
  27.6162076  37.4907494  84.1327477  31.2693238  22.2468424  81.4469910
  30.6810284  22.3138094  80.6948853  30.8433437  21.6175079  82.0289803
  52.3150921  89.6356678   5.5263120  53.0907679  89.5833397   6.0847223
  52.5989008  90.1485634   4.7695899  41.3233900  78.2427454   8.4482688
  40.4135180  78.0364895   8.2341963  41.2649441  78.9742517   9.0628481
 115.2578354  37.2527099  55.5120468 115.8443642  37.0650792  56.2448549
 115.8424091  37.4884987  54.7916889  42.4031544  64.8251104  79.6414757
  41.6310978  65.2109194  80.0553703  42.8704882  65.5705452  79.2644405
  30.5475211 103.2156849   8.6989838  31.3999867 103.5979080   8.9074087
  30.1326251 103.8562489   8.1212544  55.3854322   7.0217627  78.1006479
  55.5731535   7.6039851  77.3644352  54.5954180   7.3867500  78.4992552
 108.6340618  16.9145763  92.4055862 108.0823135  17.2115016  91.6819572
 108.0664825  16.3400817  92.9194355  19.0855443  22.1700335  91.1780930
  18.3483028  21.9317007  90.6160450  19.8145676  22.3047495  90.5726147
  45.1072502  95.6301594   8.9492261  45.8110857  95.0594521   8.6407739
  44.8461676  95.2552700   9.7903705  39.8505235  74.5271301   7.4119782
  40.1177788  74.2288113   8.2813513  39.2443657  75.2481651   7.5820297
  35.5841041  43.9794731  92.2659016  35.5259061  44.2170048  91.3404751
  34.8129940  44.3819571  92.6654434  54.8600435  94.0707970  21.1460519
  54.1191530  93.7505150  20.6315327  55.4174566  93.3021641  21.2674356
 111.3009739  14.9702752  63.7287617 110.8844280  15.7648861  64.0623999
 111.9508362  14.7431695  64.3938494   8.4162378  59.9351072  89.4458961
   8.1914341  59.9793339  90.3752708   9.2302543  60.4333162  89.3724060
  17.7862620  58.3728313  86.5069771  16.8362844  58.3040953  86.6021061
  18.0924225  57.4659491  86.4990807  34.3369007  30.9637284  80.1711082
  33.7123275  31.6876030  80.2174473  34.6925855  31.0107112  79.2836905
  47.8888226  57.3761129  83.2826233  48.7699080  57.6605797  83.5255241
  47.9919863  56.4551067  83.0431843  69.7319937  28.7863493  86.7836952
  70.5778217  29.1428995  87.0551395  69.1715717  29.5548248  86.6759682
  39.7594881 108.4582520   9.7593093  40.5001211 109.0303040   9.5581919
  39.5710611 108.6260605  10.6826556  46.5873909  92.9115486   6.2770331
  46.1766958  92.8813934   5.4129434  46.2000084  92.1763992   6.7521310
  43.6934614  71.3872433  19.8171413  42.9187870  70.9098244  20.1141047
  44.2360258  71.4745617  20.6008697 102.2347355  13.1294560   2.5767556
 102.0388412  14.0565598   2.4413417 102.7237511  13.1056309   3.3992684
 109.7377396  44.4588518  62.0805550 109.2012501  43.9599180  61.4645481
 110.0055790  45.2359629  61.5900469  43.9539194 107.1036339  35.0742745
  44.5345879 107.6515293  35.6023574  44.5353746 106.4616394  34.6668649
 106.0528469  20.5635190  63.6753702 106.9640446  20.8113956  63.8319159
 105.6892776  21.2925243  63.1727839  14.4481277  14.6559536  78.6917210
  13.5606408  14.7894502  78.3588886  14.3430626  14.6093333  79.6419954
  12.3159051  79.2147207  65.1104641  11.8931389  79.1035271  65.9620094
  11.7375445  78.7639189  64.4952297   9.1532701  31.1653543  88.1815147
   9.9096298  31.7437673  88.2794476   9.5033967  30.3834271  87.7546310
   9.2608947  44.1835928  88.1335354   9.9057621  43.9133930  87.4798012
   9.6696967  43.9752436  88.9735985  14.5613503  23.0406356  61.6266441
  14.2393780  22.7819371  62.4901485  15.5141580  22.9857254  61.6999674
  29.5379114  90.6759167  16.8004751  29.5603418  90.6552029  17.7571881
  29.7752261  89.7871113  16.5360332  43.4587860  45.0648880  78.4899330
  44.1590738  45.5152130  78.9621973  43.2616615  45.6387281  77.7496099
  37.2820568  33.2073760  74.6621323  36.8993211  32.4561071  75.1152754
  37.1216846  33.9474201  75.2476645  38.9444017  55.1602650  63.7001228
  39.4271278  55.5157614  64.4463301  38.6065960  54.3205166  64.0114737
  38.9064908  65.2053785  78.9699411  38.9583588  64.3191099  78.6120701
  38.5969162  65.7409096  78.2394600  16.6282094  44.7690058  79.8480940
  17.4172699  44.2425728  79.9764872  16.7845452  45.2390814  79.0290594
  72.6993656 101.8897629   0.4000948  72.4834347 101.8732357   1.3324755
  73.5509062 101.4562511   0.3437281  37.6771116  39.8975539  14.1064942
  38.0711317  40.1149702  13.2616806  37.5155520  38.9552331  14.0600061
  37.3561358  73.6241341  91.7960072  38.2048202  73.3178282  91.4764023
  37.3586845  74.5647526  91.6186333  20.6279087  29.2438173  88.5949802
  21.5512419  28.9924693  88.5724640  20.1827931  28.4867001  88.9756107
  44.7268009  42.9520798  87.8699112  45.2857637  42.3717499  87.3531818
  44.5466566  43.6910534  87.2887993  92.1174622   3.1498563  12.9444683
  92.0279980   2.5445059  12.2084117  91.2317371   3.2286921  13.2987523
  24.3810272  38.8241863  51.2014580  23.5151005  38.4868145  51.4307642
  24.4770026  39.6165395  51.7298460  80.8285427 101.3531208  10.8196998
  81.4419937 100.7025433  11.1612630  80.2822208 101.5847015  11.5707862
  21.5305257  91.9030952   5.3490412  21.6304803  91.7590141   6.2900418
  20.5927372  91.7976093   5.1888657  18.5179400  23.8594627  93.2783508
  18.8652420  23.2831454  92.5975609  17.8057742  24.3342686  92.8498554
  11.5577865  47.4988079  75.3161144  11.7270315  47.6089191  76.2517786
  11.7659748  46.5809965  75.1414442   3.1173769  48.5291052  51.0157490
   4.0179783  48.6315489  50.7080889   3.2025555  48.3604813  51.9541216
  70.9111452  42.4356318  23.3016372  71.3124609  41.5668201  23.3200288
  70.5825663  42.5665665  24.1910887  23.5317636  19.3837309  86.6207981
  23.6693478  19.8821115  85.8152485  22.8545666  18.7459779  86.3951778
  46.6170692  23.0066919  67.3260927  46.3127518  23.5715985  66.6158104
  46.7019749  23.5924530  68.0783606   1.5826948  53.0063391  81.1956978
   0.9583454  52.2868490  81.2892342   1.9493952  53.1207514  82.0724392
  25.5695176  25.5258107  63.2066107  25.1341224  26.2888193  63.5867214
  26.2337971  25.8944774  62.6243305  35.7238793  43.5114861  72.9537153
  36.6117883  43.6258459  73.2924986  35.5840659  42.5645971  72.9630613
  47.9323816   4.6768746  50.0268316  47.2610474   4.8411509  49.3646002
  48.6162424   5.3198212  49.8392534  72.0074987  68.1496716  20.9653735
  72.0835304  67.3178101  21.4327669  72.9060221  68.3687544  20.7186151
  79.2961025 109.5584488  40.2739525  79.7676229 109.2338657  39.5067883
  78.7009668 108.8463306  40.5083084  75.5647039  82.6439476   4.5548433
  75.9823990  83.4101391   4.9481660  75.7359362  81.9338322   5.1734298
  78.1979084 103.2265091  70.1780653  79.1256094 102.9913807  70.1958609
  78.0952406 103.7356377  69.3740273  30.7009959  31.6521287  80.4696846
  30.3764701  30.8237195  80.1166248  31.0293365  32.1259284  79.7055244
 113.4270000   4.7772631  10.0920498 113.0449390   3.9198947   9.9044806
 114.0702248   4.9103525   9.3957919  75.6146288  96.3583183   8.4557796
  76.5203524  96.0861397   8.6034834  75.0897264  95.6147385   8.7520736
  25.0649691  38.2866669  91.1048889  24.8512959  38.9515018  90.4502392
  24.4138145  37.5984263  90.9686756 110.2342987   9.3573034  44.1271687
 109.9909878   8.4316969  44.1103458 110.9512043   9.4050413  44.7596264
 114.9333000  49.6629858  88.2633686 114.4690800  48.8642073  88.0129910
 114.2744160  50.1919508  88.7131310   4.8112449  34.2172003  84.7314739
   5.0975692  34.0708613  83.8298988   5.5502713  33.9290500  85.2672386
  33.5294819   7.3748153  76.1468840  33.9484167   6.5416205  76.3625526
  32.6016307   7.2317767  76.3336039  45.4571629  18.7305892  57.4946260
  45.9502411  17.9106271  57.5223255  45.3103256  18.9529431  58.4139919
  39.1783047  66.1294985  88.6032391  39.1445684  65.7195234  87.7389431
  38.4366369  65.7522726  89.0763855  66.5260649  74.1906404  25.7757497
  67.4265623  74.0550518  25.4808640  66.6049576  74.7881508  26.5193844
   0.6210796  18.9773262  75.7726812   0.0303536  19.6480715  76.1152840
   1.0955628  18.6607730  76.5413761  32.4852777  87.1928978  24.6254086
  32.1981764  86.2840557  24.5370364  33.3605361  87.1314621  25.0080037
  60.0078821 109.7886181  36.0341930  60.7601929 109.1982460  36.0757470
  60.0816822 110.2107525  35.1782799  40.6165028 102.9587364   4.8411924
  41.0446548 103.7254906   5.2219939  41.1542082 102.7370453   4.0809590
  35.7123160  30.6712270  75.2301311  36.3367319  30.5578423  74.5135546
  35.1326728  29.9122715  75.1650715  21.5583992  13.2950056  42.9844570
  21.2565136  12.8346157  43.7674904  21.6111135  14.2126751  43.2515478
  36.2196159  33.5240126  87.7465630  36.3759899  34.4089603  88.0761814
  36.9648457  33.3470845  87.1724892  66.5924454  89.0426350  19.3282604
  66.6627932  88.1219864  19.0758896  67.4979353  89.3263912  19.4539630
   3.0533883  51.2913990  79.3927574   2.8099775  50.6186295  80.0286484
   2.7211267  52.1069479  79.7678804  65.5921459   0.0189599  39.8432994
  65.2722931   0.5673952  39.1269565  64.9626732   0.1580162  40.5508709
  44.8415136  13.2182634  76.4957762  44.3339586  13.9804661  76.7744637
  45.5001879  13.5741615  75.8993578  94.8099136  96.1437988  13.2479739
  95.4609489  95.5077267  12.9516578  94.1383839  95.6157494  13.6797774
  58.3663368 102.4431896   3.9741713  57.9510832 103.2974815   3.8559753
  58.8024044 102.5043774   4.8240715  11.5310419  27.9362774  60.7014418
  11.6254854  27.1357989  60.1851654  10.8476949  27.7306104  61.3393879
  42.9845142  99.2766571   1.4387397  42.9778671  99.2696667   2.3958911
  42.8464317  98.3622932   1.1915723  70.8867073  92.9814720   8.3984941
  70.2505302  92.6045227   9.0062946  71.6728830  93.1161118   8.9276773
 101.0405636   7.9933888   2.8574958 101.4411449   8.7481427   3.2889065
 101.7809582   7.4913502   2.5169092  40.1306438  19.2671096  83.8783360
  40.6110430  18.7967777  83.1969833  39.2232156  19.2690194  83.5736942
  14.5604217  51.7096233  67.3423386  14.2061532  52.4397039  66.8346834
  15.3762221  51.4815331  66.8966055  39.3551278  86.5699005  13.4129477
  39.7650886  86.7690659  14.2546690  38.4176111  86.5413761  13.6039460
  21.0547256  44.6258116  93.0096626  21.2564898  45.0360203  93.8506413
  21.2567210  43.6993599  93.1404972  48.4464931  89.1889763   0.0985565
  49.0688372  88.4842968   0.2784269  47.6069450  88.7436581  -0.0158250
  58.9441013  12.1050370  73.3515120  58.5519218  11.2490201  73.5237360
  59.2878866  12.3859727  74.1995192  36.3530946  52.8160667  61.4062452
  36.1546898  53.5630417  61.9709539  36.3665223  52.0646000  61.9989967
  29.2152643  38.9872003  45.9447622  28.7737465  38.1531644  45.7845116
  29.8130059  38.8062739  46.6701603  31.9508028  19.7674477  59.8328924
  32.6230931  19.1045487  59.6753454  31.2682271  19.5737493  59.1903925
  77.7630091  70.4627752  14.0734887  78.2252026  71.3001299  14.0354073
  77.2655678  70.4264021  13.2565057  46.8757248  38.3924675  80.7636452
  47.2892952  38.9229631  81.4446449  47.6024675  38.0994511  80.2138996
  27.9123187  43.7007046  89.3222809  27.8092551  44.3810320  88.6568737
  27.4381137  44.0360498  90.0831413  10.0427270  21.6988397  90.7083988
   9.8600411  20.8179951  91.0354614   9.2403471  21.9571161  90.2548409
  15.7181323  13.8123989  69.5355034  15.6732488  12.8883934  69.2896748
  16.6532004  14.0169311  69.5286036   3.4595445  48.9905037  94.1180099
   2.7838042  48.3151401  94.1771536   3.9252999  48.9370312  94.9525425
  17.7260733  95.7082939   1.6251811  18.3989787  95.2431202   1.1281513
  18.0971682  95.8003426   2.5027055 115.6049061  50.8543491  70.3908491
 116.0641861  50.6436968  69.5778799 115.2969837  50.0090981  70.7179117
  36.7855072  35.9010863  89.3435097  37.7412391  35.9461188  89.3155289
  36.4953160  36.7227268  88.9473629  59.8188066  24.1943741  46.6898346
  60.2156115  24.4937205  47.5078630  59.7830820  23.2416868  46.7755222
  92.8892422  22.6324677  65.3918743  92.1502972  22.5894809  65.9987879
  92.7612972  21.8867636  64.8055363  26.4769983   7.9317135  54.2258453
  25.9320951   8.6657333  53.9420700  26.9694018   8.2734442  54.9721622
  25.2153349  19.8597991  75.2142429  24.9673486  19.1314316  74.6448421
  25.8861947  20.3318167  74.7209072  66.6291952 107.1504498   0.2427681
  66.3496780 106.2435627   0.3679519  67.5243855 107.0815277  -0.0890618
  26.3874984  22.0774937  70.9225416  25.4542255  22.1341825  70.7175541
  26.4332843  21.4768052  71.6663885  11.5782654  26.3320994  71.0475206
  11.0969043  26.6153598  71.8248796  11.4341021  25.3866506  71.0078382
  53.5434818  49.8923302  10.7081389  52.6089478  49.6864939  10.6856430
  53.9193535  49.2355490  11.2943065 105.0287151  40.6874514   0.8361163
 105.0890923  41.6426086   0.8198809 105.5763054  40.4253912   1.5761857
  14.3947279  38.7968063  89.6610737  13.7703741  38.1226516  89.3928814
  13.8500977  39.5490408  89.8929214 115.4296303  36.0218549  86.5080929
 114.7422886  36.2745595  85.8917046 116.1405087  35.6983757  85.9547138
  38.0262971  93.7150669  13.0620658  38.5851550  93.1045341  12.5812745
  37.9896235  94.4940758  12.5070572 115.7905388  79.9068117  80.7679844
 116.5656281  80.3481293  80.4205418 116.0036469  78.9748955  80.7195568
   7.9809111   6.1134577  77.7500153   7.5604624   6.1585325  78.6087465
   8.8690549   6.4369762  77.9009056  98.6471844 109.0863132  67.1726894
  98.8316917 108.2337189  66.7786455  99.1622734 109.0938187  67.9794502
  40.3718853  15.8729649  88.5188389  40.0586843  15.4411507  89.3136215
  41.0600662  16.4646530  88.8230515   0.4833685  51.0115910  91.5549183
  -0.3934009  50.7716513  91.2550259   0.9507336  50.1787329  91.6193581
  71.6440868  81.4620781  13.4519827  72.5679922  81.6800022  13.3289289
  71.1711645  82.2157192  13.0989897   3.2173038   1.1841476  15.0640762
   2.3172942   1.1642230  14.7387803   3.6770028   1.7684782  14.4611943
  35.1403049  26.5525402  94.5531128  34.2320493  26.2651028  94.6463247
  35.2508834  27.2202362  95.2300013  52.9141092  87.7856731  24.0477204
  52.6372528  88.3396816  23.3178902  53.5709906  88.3074093  24.5087242
  18.1536293  50.0528860  63.5600376  18.7412274  49.5051193  63.0395460
  17.2792077  49.8481178  63.2288408  41.0431862  33.8180590  75.8495045
  40.3209066  34.3059492  75.4538965  41.7519808  33.8781142  75.2090025
  79.7911978  22.5897861  42.7553701  79.3343306  22.5867367  43.5964966
  79.7567463  23.5019898  42.4673986  67.2608185  99.3188000  19.7584617
  66.4281845  98.8707924  19.6093380  67.4489069  99.1723824  20.6855106
  16.8436122  47.2691393  93.4758186  17.2006333  47.4492121  94.3454933
  17.5679767  46.8643761  92.9986477  60.1392126  32.5766444  66.1250448
  60.8840179  32.0033073  65.9439898  60.3947210  33.4237576  65.7598734
  46.4653111  25.9064484  81.3716412  46.4814425  26.7403126  81.8413639
  45.5995607  25.5432177  81.5581036  93.5516930   8.9527476   9.6536785
  93.2431984   9.7868776   9.2997128  92.8702259   8.3244675   9.4147301
  42.1673012  51.4774418  65.7494020  42.0628405  51.7474270  64.8370266
  41.3241863  51.6770506  66.1562824  30.2750540  51.4986563  88.1370735
  29.5701003  51.2319469  87.5470448  29.8662257  52.1306467  88.7284184
  24.1688919  22.2109628  73.4954119  24.1817808  23.1437826  73.2811451
  25.0759935  22.0043921  73.7206459  14.5873761  44.6227217  82.1146488
  15.2379370  44.5781517  81.4139175  14.1171861  45.4407167  81.9532585
  29.0616369  54.8900461  89.1870880  29.0411592  54.7629499  90.1355934
  28.3043170  54.4021082  88.8636494  45.7515097  50.1665068  66.8362713
  45.7990599  50.3405190  67.7763224  46.5385866  50.5758190  66.4768171
  36.9166851  31.7651916  94.2243767  36.4551139  31.8492818  93.3900452
  37.3562837  32.6074600  94.3408585  54.4240093  62.7885199  79.2411327
  54.7365761  63.6925888  79.2756081  54.1321945  62.6017952  80.1334381
  42.7451897  55.4792643  93.0339527  43.4391403  55.2492857  93.6518288
  41.9337797  55.2665377  93.4950256  14.6110725  22.3523712  87.5118732
  15.1546144  22.7528739  88.1904030  15.2358925  21.9273901  86.9243240
   0.3058818  62.5552654  61.4963484  -0.0201608  63.3451462  61.0650492
   1.2569116  62.6048899  61.3998461   6.8085480  32.6201820   6.1149198
   6.6574961  32.2993469   7.0040095   7.2133869  31.8820095   5.6594646
  79.6296930  91.2434483   2.2697629  79.8070383  91.7335510   1.4669064
  79.6450996  90.3256321   1.9984420  37.9477763  63.1106329  87.3362446
  37.3902798  63.2524204  88.1013107  37.6526403  62.2741270  86.9765377
  35.2878213  67.6108265  93.2312489  35.0595570  66.7254353  93.5144615
  34.4449902  68.0462837  93.1037903  70.7801914   7.9686683   7.9417306
  70.1545525   8.5190672   7.4707001  70.2353716   7.3753548   8.4588176
  40.2787209  22.2155666  84.3437290  40.6970549  21.4130402  84.0319920
  39.5890236  22.3904395  83.7034416  47.2304583  60.7131577  84.7581387
  47.0989656  59.8738623  85.1991844  46.4051533  61.1815310  84.8835659
  19.3110335  22.6724005  85.6311798  19.7919655  23.4971952  85.5630112
  18.6154187  22.7460408  84.9777794   6.8618006  31.2710834   8.4562027
   6.6524476  31.5509319   9.3473190   6.7993510  30.3163314   8.4840900
 115.1737022  70.9737253  77.3009348 114.8417377  71.7596388  77.7349472
 115.2211761  71.2131929  76.3753891  27.3321915  46.5673923  90.7685280
  28.1110144  46.4213943  90.2315426  26.7235756  47.0248318  90.1883793
  70.6574869  97.2443962  52.0516920  70.6852055  97.1281624  51.1019802
  70.3493834  98.1423378  52.1742058  49.7230959  28.9986205  65.9135818
  49.3314457  29.7264481  66.3963938  50.5956745  29.3114829  65.6749249
   2.3691669  65.1558208  90.9718418   2.9386076  64.5448208  90.5042458
   1.4952540  64.7720957  90.8992863  70.3399372  79.3037415  28.9187050
  71.1247587  79.8372412  29.0438843  70.6676960  78.4722567  28.5760140
  22.9330826 106.9006443  76.9674253  23.3130121 106.7649364  77.8354502
  23.0741525 106.0707283  76.5118170  18.9585030   4.3634579  86.3071346
  18.3622479   4.1687363  87.0301819  19.7917962   3.9742476  86.5724087
   5.7675695  61.8280840  85.7026291   6.5452778  62.0429420  86.2176418
   5.0444990  61.8800354  86.3276958   0.3715476  59.5054388  77.7230072
   0.9087189  58.7582827  77.9865122   0.9710799  60.2512836  77.7455854
  87.5703049   1.9406299  13.8540256  87.7087879   1.0971998  13.4231198
  87.1107292   1.7227119  14.6649146  78.0994320  81.3547516  36.8673706
  78.3222961  82.0940113  37.4331021  78.8102484  80.7278252  37.0013237
  18.3405650  77.5760889  83.7851238  19.1745126  77.8708935  83.4192657
  18.4628952  76.6386890  83.9352608  60.6789446  17.8746116  68.6879587
  59.7738123  17.9983437  68.9737082  61.2045765  18.2947767  69.3686962
   5.5754560  37.2324109  84.9954605   5.4753017  37.2573018  85.9470749
   5.2393609  36.3728428  84.7416496  72.1919870  60.1563168   6.2503237
  72.5188923  59.5570230   5.5793488  71.3006020  60.3653002   5.9710538
   3.8585111  10.3564346   5.4530609   4.7524905  10.0168490   5.4116541
   3.9354116  11.1740339   5.9448427  55.7264805  22.1188307  79.3743420
  54.7723913  22.0423841  79.3843794  55.8910275  23.0346823  79.1498995
 100.2623367  56.5381050  87.7929306 100.8362770  55.7818842  87.9152107
 100.7435322  57.1097326  87.1946621  13.8750780  42.1561766  55.7175207
  14.4007790  41.5698242  55.1734066  14.4688010  42.8733969  55.9396029
 111.2663364  68.5591364  88.7863731 110.3707695  68.5282898  88.4498692
 111.1638546  68.7012720  89.7274017  64.4041443  44.4763613   1.7583776
  65.1454926  44.1163158   1.2715465  64.6634483  44.4049168   2.6770115
  49.3921852 101.9782734  25.6776714  49.9272346 101.2479687  25.3668475
  50.0135756 102.6964092  25.7976103  62.1517944  74.0086412  80.6773186
  61.6013527  74.6275139  81.1571503  62.4834299  74.5104694  79.9327278
  12.7510417  56.2095308  50.9769773  13.3966458  56.0885382  51.6732454
  13.1469238  55.7975054  50.2090311  22.0786810  32.7294135  88.8861370
  22.1983290  32.5181198  87.9602432  21.6026545  31.9797134  89.2433167
  35.6276703  65.1482725  74.6774530  34.6736574  65.0770044  74.6456718
  35.9401417  64.4243431  74.1347551   2.1094660  48.7748194  91.5462112
   1.5646467  47.9879093  91.5594006   2.7157602  48.6586571  92.2777462
  34.5052433 107.7778339  11.0639846  34.6193385 106.9584560  11.5454757
  33.8713670 107.5665951  10.3785574  43.8331842  32.6082897  42.3716259
  43.3209705  31.9499063  42.8410912  44.5519066  32.1152186  41.9759607
  17.0373273  27.3286891  87.0023727  17.6956904  26.7036462  87.3058701
  16.8091500  27.8340125  87.7826405  38.3092804  75.7473503   0.7850040
  37.4286613  75.7486974   0.4098476  38.8911130  75.8406244   0.0306762
  25.4610991  62.4923706  67.7822161  26.1756778  63.0709076  68.0485058
  25.3317809  61.9109344  68.5315084  40.0750446  41.2289906  66.1390924
  39.7908115  41.5497541  66.9949913  39.6646619  41.8242931  65.5118513
  65.2305222  69.3634462  15.7571530  65.2461195  70.3129578  15.8772123
  66.1400652  69.1306257  15.5707288  18.2490289  30.3875375  50.9528685
  17.4116635  30.1249886  51.3351202  18.7483013  30.7405734  51.6892958
  35.9047031  55.9373665  59.4090843  36.8430853  55.7542324  59.3629408
  35.7968116  56.4316654  60.2216482  57.1965456  84.2760468  15.2230501
  56.9426966  83.7059307  14.4972706  57.6884222  84.9855137  14.8095882
 113.9379501  31.8163157  35.0855780 114.5866203  32.3765349  34.6594095
 114.0393162  30.9653521  34.6591759  42.9060078  15.1600480  78.1634331
  42.2763348  15.3437042  78.8605785  43.7563896  15.1593339  78.6028433
  46.5958738  79.7418165  20.2655721  46.0531330  80.1947880  20.9109235
  47.4686623  80.1176548  20.3805423  29.8891234  43.3215141  83.8575649
  30.3717470  42.5011778  83.7557793  30.0866222  43.8158798  83.0620575
  95.4530239  64.7784853  89.0764999  94.5118904  64.6954107  88.9229012
  95.7971478  63.8961124  88.9378166  54.7552776  68.3600187   6.1482251
  54.9211740  67.7396679   6.8580651  55.6231833  68.5612059   5.7982355
  31.3998532  55.3324080  91.9500828  31.1095190  54.8007584  91.2089443
  30.6391287  55.3709555  92.5297737  43.9953327  32.7590919  74.7359037
  44.3420696  32.2638321  75.4780102  43.5789633  32.0993805  74.1812372
  38.9912724  39.5357847  57.3298025  38.1288123  39.7457099  56.9715786
  39.4835353  40.3540754  57.2641563  26.3291144  23.5952473  67.0738029
  27.1447539  23.6178946  66.5733528  26.1343098  22.6632643  67.1722364
  19.3651855  32.8399277  16.4443552  19.3923140  32.4624968  15.5651271
  18.4653687  32.6979399  16.7382967  84.4539833  81.6244984  30.5518103
  83.5140800  81.4442921  30.5700850  84.8395252  80.9414959  31.1005425
 112.3150635  64.8615313  73.3117294 113.1723118  64.8855543  72.8865385
 111.9197464  64.0444946  73.0077505  76.7820549  97.2319126   0.9034770
  76.0221243  97.2066116   0.3220148  76.5268135  96.6963482   1.6546455
  31.7953253  25.2415252  44.8573589  31.9317150  24.8229146  44.0074205
  32.6611662  25.2426887  45.2654648  18.0134249  19.8040271  82.2943783
  17.2601378  19.3791533  81.8841648  18.4587693  20.2497506  81.5738010
  22.7969885  36.9680119  60.4595089  23.4748769  37.6320624  60.5849457
  23.0775976  36.4828897  59.6835232  98.1846142  86.8631458   6.6514784
  98.7611580  86.2047386   7.0392048  98.5616207  87.0331192   5.7882208
  34.9261618  62.3444366  69.9347878  35.7755828  62.3327541  70.3759050
  34.3346453  62.7557659  70.5649853  11.5664613  12.4920154  37.5846171
  10.6719685  12.8162313  37.4797416  11.8241620  12.2117817  36.7063856
  17.5853038  51.2217522  83.9850426  18.2324922  51.9231462  83.9113903
  16.8963540  51.4656878  83.3669186  49.6836662  64.2610025  81.7486000
  49.3234539  64.7191048  82.5079632  50.6296301  64.2619562  81.8948460
  36.2394381  58.3100939  85.1678562  35.7413745  57.6150131  85.5980015
  37.1378517  57.9807568  85.1429558  64.7824812  91.9887447   6.4037561
  64.4058943  91.2159252   6.8246680  65.0075626  92.5709534   7.1294296
   8.5980076  43.3961439  56.5840626   8.4108293  42.5263977  56.9372463
   8.6877966  43.9541245  57.3566103  50.8411840 109.4131773  10.3206027
  51.1505273 108.5593155  10.6230199  50.3007176 109.2150099   9.5558429
  20.4511619  41.9362020  77.2430325  20.8725715  41.1104298  77.0048189
  20.8371854  42.1670914  78.0879593  67.1147251  77.0426178  13.6661768
  67.2538805  77.5825548  12.8881443  66.8798876  77.6673031  14.3523610
  33.0847812  61.0359621  86.1610413  32.4171114  60.3559637  86.0713196
  33.4952331  60.8584261  87.0073509  97.7803230 103.5892010  10.8902240
  97.4205494 102.8129482  11.3194287  97.2526169 104.3142319  11.2250102
  30.4492331  58.9688015  82.4588680  29.9213386  58.2219219  82.1764946
  31.2243295  58.9399862  81.8979454  59.1362810  26.8089366  50.4899883
  59.2450285  26.6974568  51.4344358  58.2341957  26.5382075  50.3191566
  54.5926094  18.0666661  47.8459883  55.0276279  17.8673291  47.0169830
  55.2960396  18.3741236  48.4177303  64.9027395  86.4814186   5.3216302
  64.7670937  86.1161137   4.4473374  64.4267273  87.3118019   5.3107518
  48.2393265  42.7541113  67.2113991  48.6542511  43.5611963  66.9069624
  48.8442183  42.0601559  66.9491673  30.7844830  22.9073167  75.6650543
  31.4853644  22.7529216  76.2984228  30.2520704  23.5975289  76.0604954
  48.4956408  41.9032621  92.8770065  48.3409119  42.4854469  92.1331406
  47.6809454  41.4090395  92.9678631  52.7261782 101.8178654   1.3145676
  53.4764862 102.3359203   1.0232104  52.7448368 101.8851948   2.2692141
  17.4306619  24.3890095   2.9288331  17.6585412  25.2890778   2.6960614
  17.7999651  23.8582635   2.2230327  31.6912389  60.6946659  73.0886412
  30.9625912  60.1445246  72.8011513  32.3344564  60.6282854  72.3828840
  35.8290172  65.9650517  71.7825127  35.6485796  65.8623695  72.7169275
  35.1593518  65.4355097  71.3496542  19.7239566  56.6294956  93.9527035
  18.8891613  56.4310217  94.3769169  20.1100039  55.7726336  93.7710667
   6.5322047   3.7326986  13.1690395   6.7033648   4.5366389  12.6785135
   6.8215102   3.0304676  12.5864542  13.3093882  33.4245777  91.4495659
  13.2232499  32.5480294  91.0747623  13.5578918  33.2718801  92.3612499
  56.8090439  42.4561644  90.8243370  57.6063299  42.5494146  90.3029251
  57.0336676  42.8333235  91.6749382  63.8916922 109.3912411  14.9441135
  64.7462797 109.1096306  15.2706289  63.3623648 109.5129013  15.7323027
  93.1241035  11.3419974   3.6225289  92.6255798  11.0633433   4.3906862
  93.6078453  12.1133721   3.9178327 112.3650837  41.3822126  83.1093121
 112.3280144  40.6809950  83.7598133 111.8084621  42.0726585  83.4694386
  73.7456942  36.8475175  22.9072309  73.8885450  37.7442741  22.6044869
  73.7670708  36.3191056  22.1093869  40.8771801  17.8698862  50.5038595
  40.0840282  17.3454487  50.3938532  40.6667137  18.4764266  51.2138224
  12.5816190  89.3319798  94.4410324  12.5831056  89.7320461  95.3106213
  13.5042298  89.3071175  94.1872597  12.0441222  16.7291009  38.9411831
  12.9975295  16.6449046  38.9285922  11.7831004  16.6332960  38.0252576
  22.7795267  30.1356816  63.7736416  22.7517176  30.6990862  64.5469713
  23.2417178  30.6548572  63.1155634  34.9781513  13.4895122  84.7004128
  35.6207013  13.0920935  85.2881336  34.5522451  14.1626740  85.2311516
  72.1198702 108.2365036   9.3085963  72.7068281 107.9615879  10.0129640
  71.5607738 107.4755001   9.1519928  72.1745348 105.7098770   2.7208894
  71.9038773 104.9270535   3.2006559  72.9004049 106.0658455   3.2333583
   1.3278119  14.9258304   4.0137684   1.0068380  15.3471160   3.2164437
   1.7217045  14.1078293   3.7105286  69.4877243  74.3583536   2.3673806
  69.7856474  73.8303280   3.1080970  69.9983501  75.1657057   2.4280182
 115.4553604  59.8827457  75.2331352 114.6959782  59.7284889  75.7950830
 116.1275196  59.2909145  75.5710173  22.5724030  33.4352136  78.8083029
  22.9683113  32.6818538  78.3701992  22.5338197  33.1827831  79.7308111
  91.8957901 105.4424095  27.0034194  92.8264809 105.6658936  27.0132923
  91.5658379 105.8265018  26.1911201  76.0915995  89.5507908   4.4298202
  75.4155445  89.4923306   5.1049221  76.5992403  90.3272152   4.6658137
  66.2542772  65.0178909  23.5282731  66.4633512  64.2893791  24.1128993
  67.0269108  65.5818892  23.5626173  72.2204399  83.3092594   8.5602230
  72.5036335  84.1854858   8.8215101  72.4578094  83.2467842   7.6350290
 114.3459129  50.7806540  56.4751053 115.0145435  50.2911949  55.9959459
 114.5208549  50.5865669  57.3959541  36.0643578  51.6013098  71.8204832
  36.6107178  51.0954618  72.4220133  35.2003574  51.1938572  71.8814659
  20.7785320  80.4860401  11.8712687  20.1588011  80.5369091  12.5989902
  20.8319926  79.5524120  11.6670179  47.5438309  56.7209959  72.1310949
  47.9851532  57.0597506  72.9100132  47.7246428  57.3706627  71.4517784
  62.7583647  68.8852215  11.2186408  62.7602291  69.0405083  10.2741230
  63.0155849  69.7246981  11.5998912  21.3731623   2.8216615  86.9800663
  22.0230126   3.5145000  86.8621731  21.8253350   2.0212594  86.7133713
   6.5311307  50.9611654  65.5570507   6.2517983  51.7716217  65.9829140
   6.4715308  50.2969408  66.2437010  48.0715704  20.6832051  50.4842663
  47.8108549  21.3713884  49.8721695  48.1379318  19.8953319  49.9447393
 101.2341309  27.5076771  23.0559087 102.1527100  27.7556992  22.9513550
 100.7728004  28.0082178  22.3829556  66.8576050 102.1825123   6.5302747
  66.9538927 103.1159019   6.3412416  66.2308407 102.1478939   7.2529107
  67.3266125  51.6798973  13.7186229  67.2982407  51.9225311  14.6441257
  67.1982288  52.5049782  13.2506621  19.1818821  53.2663536  84.3221378
  20.0195909  53.4338140  83.8903522  18.7594521  54.1241693  84.3662167
  95.3284073 108.0767345  25.2684379  94.6981430 108.7925148  25.3500032
  95.2351665 107.7773952  24.3640447  72.5836086 100.2507305   5.3867161
  73.0661154 100.6345940   4.6545511  71.7198372 100.0509548   5.0258636
  41.8740177  27.0787501  90.7105732  42.7049541  27.5096369  90.9108639
  42.1261215  26.2372947  90.3302765  47.6503658 107.5788593  22.0825839
  47.5051785 108.1626797  22.8271031  47.8082848 106.7214775  22.4777770
  69.1974068  22.9681849  80.7510853  68.8794136  23.5834956  81.4117718
  69.7334957  23.5021496  80.1648045  46.6622829  56.0720921  63.7950945
  46.6077089  55.1259422  63.6607504  47.4578714  56.3342810  63.3319235
  13.5433662  27.7874494  83.7214184  14.0334678  28.5992765  83.5911655
  14.1864371  27.1738076  84.0765762  12.0873547  24.6241355  11.2099898
  12.0855224  24.5307136  10.2573609  11.7843258  25.5190372  11.3634717
  29.0536904  28.9766693  63.7706900  29.3874383  28.0798531  63.7469912
  28.2753325  28.9279771  64.3256855  54.2079639  80.1664734  11.8556762
  54.4686031  80.4112911  12.7435744  53.5475302  80.8152390  11.6124547
 105.5583668  21.4033961  13.5478556 105.5985546  20.4501390  13.4709418
 105.2770519  21.7018223  12.6829672  87.6457405  81.3172340   2.7042800
  87.2664356  81.5592098   3.5491523  88.5869884  81.2653065   2.8703666
   7.5254589  59.7862053  80.1962852   7.2172165  60.0682592  79.3350840
   7.3541301  58.8446569  80.2154446 101.7309475  79.6186304  83.4752846
 102.4146652  79.6361256  82.8056240 102.1465969  79.2038059  84.2311859
  41.4295673  44.5036650  80.4473305  40.6724977  44.8600912  79.9825287
  42.1411610  44.5382738  79.8080587  25.0007820  50.8554411  75.3308249
  24.8122835  49.9845076  75.6803608  25.9112692  51.0200453  75.5760765
  45.9938526  35.4773855  68.6959600  46.1414385  36.3847399  68.4292030
  46.8256140  35.2029467  69.0820885  44.4263411  70.2058744  12.2544730
  43.5466099  70.5521297  12.1047759  44.3690634  69.2861986  11.9953394
  49.0302706  37.9332018  79.3855953  49.5139027  38.7521625  79.2777443
  49.5616055  37.2796035  78.9309311  22.3729873  57.3970556  66.6526461
  21.9307947  57.5439501  65.8165121  22.2876501  58.2290792  67.1181393
   9.8440558  39.6113253   3.9537454   9.3097091  40.4038763   3.9030895
   9.6945101  39.1678643   3.1187546  36.2761879  36.0481119  81.1484909
  36.2839723  35.1752949  81.5413857  36.3220382  35.8869696  80.2060699
  88.5066986 107.7538681   6.8337762  88.5627747 106.7994308   6.7875183
  88.3876705 107.9419613   7.7647358  90.8703899   7.7524447   1.0878789
  90.3858662   8.4445822   1.5377833  91.0090733   7.0828825   1.7577186
   0.2547970  34.0122890   5.8360624   0.4537766  33.7865973   6.7447448
   1.1046344  34.0042520   5.3956723  46.7969847  92.3156738  48.2108259
  47.4887657  91.7260265  47.9108429  47.1795988  92.7721691  48.9601231
  52.3227072   5.3033757  76.4946795  52.1630907   6.1180758  76.9711447
  53.2515669   5.1209092  76.6366768  31.3395333  24.1383195  69.8542500
  31.2889171  23.4595633  70.5272722  31.2490988  23.6635733  69.0280151
  98.4220314  60.3806353   7.9567742  97.7595901  61.0435534   8.1515509
  99.1832733  60.6434917   8.4741205  77.8069448 106.1116982   6.5136194
  77.3319960 105.8615971   7.3061514  78.4857798 105.4433441   6.4202434
  21.9019961  71.4507341  78.7892342  21.9682932  71.8518543  79.6557999
  22.2492242  72.1129179  78.1915903  90.8437634  86.3020897   3.5647911
  91.8005180  86.3012218   3.5939938  90.5920696  87.1244812   3.9849621
  62.3849678  87.0195675   3.6295432  62.1817350  86.1022472   3.8124654
  62.0812464  87.1578789   2.7324054  34.1450119  62.3485184  91.0273743
  33.4663439  62.0106888  91.6117668  33.9674520  63.2874537  90.9716511
  81.1901474  87.6304817   8.2635307  81.6518974  87.7474594   7.4332684
  80.3960705  87.1495724   8.0302829  42.5673008  31.6885519  88.9077473
  42.9004908  31.0173011  89.5032597  42.2971487  31.2039804  88.1277180
  40.3693390  51.2289524  62.7866459  40.5169439  50.2939796  62.9290390
  40.1477194  51.2977409  61.8580008  27.7442551  41.4277649  67.2265387
  27.6868296  40.5695343  67.6465130  26.8716192  41.5747309  66.8616581
  22.1783853  23.6744690  83.6721897  22.0771790  22.7475309  83.8884640
  22.1432090  23.7025428  82.7160454  55.2191067   8.1070119  49.1389275
  54.8646545   7.4079585  49.6884012  55.5588388   8.7510645  49.7602272
  31.1604142  26.0290170  92.3821068  30.6901717  26.7144895  91.9075203
  31.7552590  25.6532860  91.7330933  41.0481933  23.1419863  94.4385978
  41.7382577  23.5992969  94.9191319  40.3237870  23.0795969  95.0611509
  54.1539669 102.4635124  12.5906980  53.8741636 101.9544888  13.3515120
  54.5057249 101.8126965  11.9832969  67.6813269  65.7891607  29.1203070
  68.6130381  65.5697775  29.1166234  67.5909996  66.4618874  28.4453917
  58.7099409  24.1282558  70.1267385  58.1723070  23.8027668  70.8487082
  58.0777407  24.4308257  69.4748116  21.3277102  22.3115492  89.2915058
  20.7041192  22.0239568  88.6246777  22.0697141  21.7139459  89.1991615
  43.4189606  57.1966171  72.8431129  43.4397984  57.6588058  72.0051479
  42.6222467  57.5111437  73.2703733  67.5392056  91.4741230   1.5992641
  67.8807878  92.2013092   2.1195944  66.5911436  91.5142632   1.7249437
  46.1697960  50.0949907  55.5846167  47.0103121  49.7445917  55.2896881
  45.6146574  49.3233109  55.6967020  48.9909983  49.2100859  93.4981537
  49.8904133  49.4500971  93.7210274  48.8979340  48.3110332  93.8132381
  77.5233793  61.3380337  28.9308596  76.7470360  60.8092260  29.1149282
  77.4088812  61.6242456  28.0246568  22.9866576  50.7984400  77.6515818
  23.5932660  51.4511776  77.3020172  22.2814465  51.3129044  78.0443096
  32.0625496 100.5863571  11.0923207  32.2451258 101.3436699  10.5361044
  32.6787639  99.9168491  10.7952106  69.2106009  81.3524342  18.0638349
  69.5259285  81.0767937  17.2031212  68.5479259  80.7018185  18.2957733
 104.0875053  39.0660810  84.2441654 103.6425591  39.6853876  84.8227119
 104.9559402  39.4455028  84.1096306  59.5747519  34.3582940  62.7133131
  59.4820499  33.6176634  62.1140575  59.0769863  35.0640750  62.3005962
  63.9908791  87.5540638  12.7799058  64.6780300  87.2937679  13.3933342
  63.4801340  88.2087517  13.2561052  19.7276497  28.3270049  68.0918741
  20.6084561  28.3673954  68.4644079  19.5401311  29.2261291  67.8223467
  57.1255922  33.1953454  28.3981586  57.0520496  33.4442186  29.3195081
  56.7335796  33.9264178  27.9205632  55.8381748  23.7083673  76.2528563
  55.4755211  22.8300047  76.1379910  55.1613951  24.2933416  75.9122562
  60.9939098  97.3020172  -0.2557757  61.3965940  98.0327606   0.2133611
  60.5091429  96.8236160   0.4168086  35.7824993  17.4550295  65.9975386
  36.3475823  17.1181095  65.3022718  36.3620973  17.5471306  66.7537260
  41.8870640  41.5483427  92.7533245  41.1830235  41.6101742  92.1077728
  41.7105627  40.7331085  93.2228756  91.0639572  93.0213737  33.2661223
  90.9199238  92.1840477  32.8252578  90.4881954  93.6346817  32.8094101
  10.3206265  36.4019489  50.0876617  10.7949853  36.1276531  49.3028212
  10.2969480  35.6197286  50.6388426  18.3279896  25.2370453  73.0911636
  17.5284040  25.1357079  72.5748062  19.0141559  24.8478484  72.5490093
   1.7501976  86.8004513  36.3301063   0.8878136  86.7931366  35.9148097
   2.3425131  87.1139622  35.6466556  64.1295767  77.9004097   5.3688526
  63.2618999  77.8261280   4.9715465  64.6764612  77.2984314   4.8640975
  45.2965832  93.1236362  89.2488861  45.7360840  93.2066441  90.0951576
  44.3908024  92.9067326  89.4696617 112.3829365  76.7017508  60.6239462
 113.2912445  76.4667606  60.8136320 112.3916912  76.9694233  59.7049713
   4.0556610  31.2444401  19.5645356   4.1941375  31.6141748  20.4365158
   3.5783413  30.4299712  19.7227657  45.7800817  50.3953457  39.8950601
  46.5653086  50.6271124  39.3991470  45.2511692  51.1931419  39.8927379
   4.2386755   4.0766463  16.0322285   4.3273801   4.9575594  16.3960350
   4.6127644   3.5026607  16.7006814 102.8422260  86.0641670  14.8223758
 102.2506332  86.2389374  15.5542958 102.7349567  85.1295662  14.6456015
  68.6018848  77.3999500  26.2865710  68.2965851  78.2434320  26.6205764
  68.0925465  76.7513609  26.7725182  25.2997541  20.8645225  50.5766058
  25.0100350  20.0456142  50.9787035  24.9111223  20.8524966  49.7019339
 111.1418533  50.0323343  59.4142389 111.9291306  49.7476339  58.9501619
 110.4378033  49.5042610  59.0378332  29.1976261  48.8686180  44.0334511
  29.8283792  48.7682533  44.7464085  28.3496594  48.6802340  44.4355631
  41.8803978  67.3313808  94.1273594  41.1030340  67.5540066  93.6151314
  42.6107931  67.6867390  93.6209202  54.4202185  93.5917473  65.2057695
  53.7882805  93.7649727  64.5079994  55.2689505  93.5821152  64.7632885
  68.5853958  32.1683288  88.0805397  68.8578415  31.7628789  88.9037132
  69.1547966  31.7744541  87.4195766  56.0515928  97.6015186  64.9078798
  56.2255478  97.0900249  65.6980324  56.8876839  98.0212593  64.7053766
  95.3198242 103.4120464   7.6419580  96.1595917 103.0831051   7.9626209
  95.3329468 104.3460941   7.8507990  38.9277720  77.8523970  84.5478439
  39.2289138  78.7606192  84.5217705  39.6478891  77.3502445  84.1663837
  68.6885500  66.3139915   9.7048461  68.0659056  65.7760715   9.2157823
  68.1429195  66.8410969  10.2885234  20.8553672  18.7802351  41.3555956
  20.3477764  19.4740081  40.9345675  21.6370249  18.6908054  40.8103895
  15.3978395  89.2650414  60.8030939  15.9346223  89.5917797  60.0810528
  14.5331144  89.1285515  60.4159880  43.5614300  24.0757060  37.6400566
  43.9387131  23.4441829  38.2524824  43.3903933  24.8526907  38.1722903
  42.7334023  51.4979267  85.3007984  42.0708370  51.9607639  85.8136559
  42.4840832  51.6548347  84.3900585  31.8370295  28.8842893  19.9197054
  31.6384387  29.8141313  20.0300956  30.9828711  28.4697461  19.7980499
  82.8305626  78.5573673  83.8945103  83.1618690  79.4000292  83.5840511
  82.7821350  78.6547136  84.8455143  33.5356665  45.5687618  93.1075382
  33.4618640  46.2299967  93.7957001  33.3107305  46.0349131  92.3023510
  71.6249704  97.8547955  -0.1306883  70.9098768  97.2451496  -0.3129255
  71.2500191  98.4875393   0.4819091  18.6636686  48.3277750  79.6404839
  17.8665292  47.9578066  80.0198555  19.3207049  47.6396894  79.7457075
  32.8945374  57.8152180  61.7521715  32.6422834  57.3741817  60.9409428
  32.7121687  58.7405109  61.5884399  50.4913378 100.5364990  82.9383850
  49.9247313 101.0133076  83.5448933  50.9726048 101.2202549  82.4724483
  33.2462716  59.9848509  70.9112215  33.4553361  59.0641928  70.7533979
  34.0896535  60.4344559  70.8583212  66.1539745 100.7217789  60.4694033
  67.0919371 100.6893921  60.6575680  66.0352802 100.1154041  59.7383308
  47.7500534  65.7513189  64.9163342  46.8186665  65.5664873  65.0370979
  47.8423023  65.9134340  63.9774799 112.8656101  29.6826839   0.7850537
 112.1773338  30.2821302   1.0734485 113.6609554  30.2152586   0.7812797
  68.5763025  85.8975124  15.4293597  69.1557646  85.2814579  15.8776104
  68.5320473  85.5734730  14.5297647  27.0568299  21.6093111  55.3471947
  26.4759517  22.3640323  55.2512455  27.3575091  21.4238644  54.4575691
  51.1704445  53.6992884  91.9078159  51.5327835  53.7105131  91.0219097
  50.8261728  54.5830393  92.0369911  31.2060738  66.8809080  55.7367229
  31.3618779  66.2878418  56.4717245  31.3269162  66.3357258  54.9592876
  79.0379000  83.0735016  49.9630356  78.6258984  82.2188663  50.0898314
  79.4488668  83.0156612  49.1004848  83.1450176 100.3611946  33.5969710
  83.4007359  99.8028278  34.3311787  82.3645878  99.9402905  33.2364249
  45.5479860  58.0668974  62.6907969  45.2221775  58.7350845  63.2937908
  45.8663559  57.3658371  63.2594681  16.9138670  62.2244692  92.7567863
  16.3956237  61.7243958  92.1262455  17.7985537  61.8680716  92.6759148
  35.3173137  69.8838425  86.0142136  35.0722861  69.3651915  86.7805004
  36.2339115  69.6582890  85.8554649 109.2428303   2.1956168  19.0050507
 110.1658249   2.3983485  19.1574109 108.9531612   2.8563565  18.3759689
  87.6706123 105.2069855   3.8958091  88.4818172 104.8121929   3.5759288
  87.9061317 106.1141872   4.0900984  20.3187799   4.6710113  30.7391286
  19.3657959   4.7366619  30.8003020  20.5401659   5.1414037  29.9354196
 100.7019234  93.5726643  57.0188141 101.6373444  93.7650585  57.0836592
 100.3264332  93.9364624  57.8206158  47.1834517  96.8415737  49.4888783
  48.0019379  96.4943886  49.1342306  46.6361570  96.9978142  48.7192774
  44.2409086  15.7414722  49.0956831  43.6992884  15.7678413  48.3068943
  44.8168564  16.5018737  49.0162802  79.1555357 104.2114830   9.8502171
  79.4099760 103.6073494  10.5477214  79.0785742 105.0606918  10.2851391
  26.4456725  72.8742743  81.5922356  26.1795259  71.9857216  81.3558769
  25.8247447  73.4402704  81.1336231  40.2621651  82.3238277  72.7275801
  40.8846426  82.9495144  72.3570824  40.3346205  82.4458694  73.6742020
  21.7691422  70.5064392  75.5268526  21.4986062  70.9789038  74.7395658
  21.2642741  70.9092808  76.2332916   3.1342623  21.8207455   9.4787425
   2.8273576  22.1316051  10.3304517   2.5685775  22.2616196   8.8448155
  33.9610934  36.6228271   7.4853748  34.5018101  37.2870302   7.9127985
  34.5904326  36.0239029   7.0835584  24.2734981  66.5716791  69.3756008
  23.3337331  66.4062262  69.4511127  24.3458652  67.5250006  69.3289614
  40.7646084  82.9045010  91.0035038  41.2807608  82.6354980  91.7634106
  40.7961321  82.1512222  90.4137421   1.7622449  93.3124256  21.6500235
   0.8456023  93.0518436  21.7400050   2.2521295  92.6246071  22.1007395
  39.6990752  44.2619324  82.6206017  40.3524303  44.3925047  81.9333553
  39.8920774  44.9412537  83.2667446  44.4578028  69.2693472  60.9869432
  43.6734629  69.0209055  60.4977322  44.1705275  69.9866772  61.5518665
  24.4273305  68.4120464  49.9680424  23.9195418  68.2482672  50.7627487
  24.3871665  67.5872803  49.4839191  29.9098539  41.3016748  91.6513824
  30.5216861  40.9352922  92.2898579  30.0672150  40.7982349  90.8526230
  44.0472460  39.7763538  71.7311287  44.3290091  39.7458768  72.6454115
  44.8229027  39.5190334  71.2327528  38.8228726  59.7993851  59.6011162
  38.4151602  59.5660019  58.7671280  39.4901824  59.1269255  59.7379637
  99.2314339 102.4527168   3.6072156  99.0155792 102.5253201   2.6775005
  98.8227367 101.6328239   3.8846701  11.6022372  65.1194429  75.4418373
  11.5925252  65.4826307  76.3274097  10.7023752  64.8295927  75.2919579
   1.0650720   5.2965337  17.8852034   1.5615836   6.0829091  17.6586592
   1.0603039   4.7764975  17.0816040  41.1886454  71.8587923  83.0911541
  40.9519911  71.4679384  83.9322567  40.7613230  71.3025236  82.4398518
  19.0143991  25.3635311  59.4638300  19.6481907  25.6075931  58.7893105
  18.1866574  25.2703595  58.9922380  32.3938417  44.8918247  88.9398956
  31.8143082  45.2831841  89.5935059  31.9227505  44.1159678  88.6359978
  33.6318374  57.7477169  69.5020771  33.9476418  57.6567793  68.6030579
  32.8491473  57.1978521  69.5377684  30.8450460  59.0606594  63.7152815
  31.2872291  59.2930937  62.8987741  31.2621021  59.6106243  64.3784809
  38.7299013  53.9314890  67.7642250  38.9396644  54.6680784  68.3383894
  37.8607512  54.1364336  67.4195433  39.6725011  43.9333105  76.8227911
  40.5736446  43.6107731  76.8346977  39.6618342  44.6382093  77.4702787
  94.8647881  16.3717687   1.5265042  95.3005886  15.6036413   1.1573302
  95.1699066  16.4076388   2.4330631  49.3409252  57.7079821  78.2543707
  49.0673018  57.6143932  77.3418999  48.9815092  58.5522795  78.5268021
  60.2373171  79.8914433  94.4659042  60.7525682  79.2442751  93.9843178
  60.4939079  79.7697544  95.3800106  15.3421593   7.9335862   4.1776207
  15.1469779   8.6819351   4.7416335  16.1059344   7.5218350   4.5817733
  51.0253286  82.2605228   1.0869858  50.3340006  82.2932434   0.4257563
  51.5942717  81.5448856   0.8034578  83.6344242  99.5030785  23.2999849
  84.4171333  99.9902439  23.0425549  82.9379463  99.8603916  22.7490997
  46.2756109  63.0419350  67.2471666  45.6997442  63.0859327  68.0104971
  45.7256079  63.3224916  66.5157175  34.1959977  64.7855139  81.3689613
  33.8990211  64.9146938  82.2697163  33.6546993  65.3809261  80.8505821
  43.0313969  31.2816691   3.9664838  43.8545752  30.8105803   3.8373306
  43.1602907  31.7707705   4.7791314  52.0685196  64.3620586  77.5732279
  52.5186539  63.7825775  78.1878948  52.7401781  64.9850178  77.2956705
  98.7168121  10.7506657   7.4189985  97.9759121  11.1490166   7.8757381
  98.4086037   9.8767143   7.1793139  40.5976677  70.6591415  85.2898502
  40.6275558  69.7291088  85.5142879  39.7028303  70.9272814  85.4986572
  43.2129383  83.4570026  79.0143299  42.5308323  84.0705395  78.7413025
  44.0220118  83.9673042  78.9794588  93.6720467   4.1908637   1.1033641
  93.6716366   4.1175091   0.1489791  92.9592991   3.6187789   1.3878608
  59.9609470  69.7325706  59.8946333  59.2283058  69.1175842  59.9300623
  59.5999241  70.5545807  60.2265835  68.4882450  73.8841677  61.8084908
  67.9506826  74.1484165  62.5551033  68.1209564  73.0438042  61.5344048
 110.2776146  64.4602823  84.4392300 109.5204449  64.9149275  84.0701294
 111.0304356  64.8461819  83.9913750  39.6893573  95.7341290  73.0227947
  40.5067301  95.4818058  73.4522963  39.0034294  95.4453850  73.6247587
  96.5854836  90.5040169  53.8898134  96.6363525  90.2437305  52.9700899
  97.2769642  90.0007820  54.3197536  58.9025831  65.2577925  55.9097815
  59.3232584  65.7087517  56.6418314  59.6055603  64.7486115  55.5063057
  48.9397669  62.7146006  85.5647087  48.3399105  61.9686890  85.5691624
  48.8055325  63.1349802  86.4141178  26.4003348  48.6330318  54.2729378
  26.0224056  48.4647131  53.4097624  26.1280394  47.8844643  54.8037291
  18.9005136  20.1067257   3.5583431  19.7121382  20.1157761   3.0509833
  18.4193552  19.3484926   3.2269809 108.9762402   4.0474832  28.7418294
 108.1840420   3.7681922  29.2007947 109.2988396   4.7907573  29.2514420
  27.3504639  85.6109524  62.6241732  26.8448949  86.0072803  63.3337927
  28.2169557  85.4609394  63.0022192   5.4124761  21.3446236  23.7957692
   4.6135738  21.1875510  23.2924628   5.9829980  21.8249774  23.1957722
  55.3815651  98.5067940  54.2794895  56.1785650  98.8908768  53.9141083
  55.3607559  98.8149548  55.1854897  23.1722760  59.2344093  89.4818783
  22.6159859  59.9495792  89.1731644  22.6385736  58.4484005  89.3653393
  34.7090912  78.2374859  93.6377716  34.6179843  77.2870064  93.5705662
  34.4497347  78.5644674  92.7763557  43.0082750  89.1978741  94.6784306
  42.6606464  89.5210075  95.5096817  43.3875656  89.9710846  94.2606831
  61.0805941  97.3704815   8.9811844  60.5757236  98.0214596   8.4937865
  60.7614374  96.5282154   8.6572087  64.6227646  77.5126791  94.2321491
  64.6319199  77.9563046  95.0802994  65.2695990  77.9848766  93.7078762
  93.5446453  61.8530846  82.0261002  93.2223320  60.9973001  82.3089218
  94.4839096  61.8275881  82.2087383 114.9728394  19.3872881  14.4963706
 114.0163326  19.3774354  14.5313013 115.2073956  20.3076506  14.6153235
   0.7858954  98.1387711  87.9430294   0.7554410  97.6077461  88.7388420
   1.5819621  97.8531170  87.4948025  91.7651081  29.6228790  91.3877583
  92.4032879  28.9367700  91.1922932  90.9262371  29.1640353  91.4323997
  93.8825512   2.9576731   3.9159113  94.6651840   3.4090620   3.5997298
  93.4878254   2.5827020   3.1286272  31.9339466  72.4260139  81.9787598
  32.2183847  71.5190125  81.8661690  32.6662374  72.8532696  82.4230957
  32.8606415  41.7982578  56.5412092  32.9118180  40.9650850  56.0727692
  32.3842359  42.3781824  55.9471083  54.0837145  86.9981194  92.6998329
  53.4808588  86.8111134  91.9802380  54.0092087  86.2390041  93.2781219
  75.2621746  82.9950333  88.5953331  74.7149086  83.7229729  88.8899899
  76.1472797  83.2341766  88.8703442  13.2313633  54.5953560  48.6422110
  13.6282110  55.3278875  48.1708860  13.9378262  54.2513800  49.1888571
  25.5982542  89.4449425  55.5712032  25.3845406  88.5588455  55.8634233
  26.4419341  89.3541241  55.1282740  43.6932659  11.6101992  85.9384823
  44.0771151  12.2617280  85.3516197  44.3840790  10.9583652  86.0573196
  93.1147575   7.3729885  44.6028280  92.1743870   7.3312968  44.7766113
  93.5003567   6.7524356  45.2212620  50.4658270  61.9726944  93.7878704
  50.8206987  61.5166092  93.0247974  51.2134838  62.0706034  94.3774986
  24.4895458  84.2907619  84.1984558  25.3119969  84.7182083  83.9595032
  23.9917445  84.2556190  83.3816338  94.7655964  93.2132530   3.0531913
  94.4102955  93.7675285   2.3583721  94.0601444  93.1551743   3.6975467
  45.5111933  70.3643322  58.0902290  44.9078465  70.6511450  57.4047041
  44.9770117  70.3387260  58.8840961  84.8619270 106.0860825  25.3644228
  84.4024754 105.2512455  25.4548979  85.5001163 106.0867786  26.0778236
  32.9692388  49.4391966  81.1590099  33.3610940  50.2463388  80.8255386
  32.3830986  49.7286034  81.8582344  93.3334923 107.9795456  67.5113773
  94.2242813 108.2695675  67.7078867  93.3398819 107.0412445  67.7005672
  40.4322720  55.6869698  65.7713461  41.3327837  55.8456707  66.0544109
  40.0067425  55.2959299  66.5343952  30.3810239 105.5153275  49.9918222
  29.5716953 105.0057411  50.0310278  31.0783195 104.8626804  50.0554991
  72.1696281  96.5521908   8.7812150  71.9042540  96.2432671   7.9149723
  72.6718616  95.8260536   9.1509736  34.8790479  22.2287273  87.4324131
  34.8022056  23.1635165  87.2413635  35.6923723  21.9626760  87.0035172
  63.3720922  95.9522724  80.6684017  64.2208052  95.7512188  81.0627365
  63.3696985  95.4657269  79.8440886  37.9566503  90.0446320  57.8369141
  38.8960552  90.2157116  57.7699327  37.7788830  89.4091797  57.1434927
  53.7823391  86.8560505  85.3233051  53.9819527  87.1341133  84.4293976
  53.3821011  87.6248264  85.7295322  29.7086859  76.4215899  85.1352596
  29.3202233  77.2864056  85.2672672  29.8546600  76.3662148  84.1908741
  40.9787512  79.2212200  87.1162224  40.5432320  78.3688354  87.1147537
  40.5895901  79.6902943  86.3781548  44.5539474  47.8343534  72.6994181
  45.2405977  47.1964979  72.5047827  43.9742374  47.8019381  71.9384193
  50.9242630  66.0328388  79.3940306  51.1319876  65.6079483  80.2262306
  51.1848688  65.3961945  78.7284470   6.4911324  26.2234330  15.4325140
   6.6292274  27.0693684  15.0064230   6.2812668  25.6253791  14.7152138
  28.6778569  78.4464121  63.9460373  28.9951587  79.3333864  63.7762499
  27.8648019  78.3828688  63.4449005  98.8112164   9.4452113   3.4809685
  99.5322704   8.8318563   3.3391553  99.1387463  10.2809107   3.1484559
  29.1090918  46.9743872  64.7822380  29.1255689  46.0222387  64.6854162
  29.9661374  47.2619963  64.4676208  56.6659594  78.0829859  62.4900246
  56.3336897  78.0224895  63.3856630  57.0178223  78.9707613  62.4245548
  42.5421667  48.6082077  81.7223740  42.5743008  47.6539755  81.6542530
  43.1642389  48.8197184  82.4184513  88.5361385 107.7107620  28.6858225
  89.0272522 106.9863319  29.0734243  87.6560211 107.3589993  28.5520720
  48.0416727  77.6971960  53.2938862  48.6127234  78.1670332  53.9016581
  47.9335642  78.2962275  52.5551701 109.3871117  16.5401447   1.1732134
 110.2722359  16.2111473   1.3298894 109.4159698  16.8906772   0.2829739
  34.6099114  74.1314650  91.1544991  34.9454260  74.0732479  90.2599239
  35.2894664  73.7247610  91.6921139  12.3283815  15.2257037   9.8456758
  13.1501949  14.7438133   9.7527516  12.5978565  16.1250520  10.0321913
  22.8435135  66.6400433  85.0254250  22.2572398  66.3779545  84.3156147
  23.7149358  66.6380739  84.6293831  44.0971231  52.0309639  56.9096279
  43.9234495  51.8817663  55.9802151  45.0323772  52.2308254  56.9494581
  37.8970766  29.3435764  63.3942556  36.9991350  29.5889330  63.6172676
  38.1611609  29.9797726  62.7296162  27.4364734  40.8981609  72.4351835
  28.1928706  40.4187107  72.0972157  27.1385741  40.3795433  73.1825304
  41.8780947  64.5066833  87.1385956  41.1579227  64.6681786  86.5290928
  41.9434977  63.5528374  87.1847439  62.7538252  75.5802774  78.3319569
  62.7199030  76.5164232  78.1352091  63.3140326  75.2120829  77.6487064
   8.7898719   3.1806514   5.3955698   8.0351830   2.7516666   5.7988667
   8.8522547   4.0250540   5.8420271  46.6712332  57.8879404  66.2499189
  46.4207268  58.8048649  66.1370802  47.1270037  57.6626253  65.4389048
  33.7880349  51.0063314  69.4837284  33.4327459  50.1175451  69.4760990
  34.6462822  50.9247684  69.0678072  17.8200841  77.9223776  45.1748419
  17.7394509  76.9686699  45.1879263  18.7255788  78.0897951  45.4361486
  39.4773817  61.4419794  73.3809328  39.2687845  60.5549145  73.6739016
  39.6489835  61.9267178  74.1882801  31.7512465  63.3392811  82.5240517
  32.7018523  63.2275438  82.5339127  31.4593625  62.8404999  81.7609978
  37.6108170  53.8756371  72.8371477  36.8762088  53.7809420  73.4434605
  37.2079182  54.1520548  72.0140457  31.7248631  46.4721680  81.2141418
  31.6785288  47.3737097  80.8958435  31.6983318  46.5531111  82.1675396
  69.2525721 107.2526264  24.6050572  69.8482752 107.6267242  25.2542257
  68.4232998 107.1500397  25.0719857   0.3030153  90.7257938  26.3924384
   0.0336257  91.6432476  26.4366245   0.5971074  90.6057549  25.4894805
 115.7863712   6.8508762   5.1451778 116.5543175   7.3729068   5.3775072
 115.2150249   7.4602258   4.6777505  50.7699203  43.2574558  53.7884092
  49.9502134  42.9939222  53.3702469  51.1515141  42.4385738  54.1047239
  44.1854763  58.2107544  76.3420582  43.4742403  58.8335514  76.4920473
  44.6515083  58.5580158  75.5814981  46.5332031  94.1956711  25.2491474
  46.1993837  94.5277691  26.0825181  46.7880583  93.2921791  25.4361796
   7.2227502  63.7566042  93.0192375   6.2908816  63.6487389  93.2095432
   7.6555264  63.6339235  93.8641548  61.0031414  89.7090149   2.8146124
  61.7526245  90.2859020   2.9619277  60.4597139  89.8183441   3.5949779
  60.1190662  90.4721832  80.7526207  61.0338593  90.5270004  80.4762459
  59.6207857  90.4851723  79.9354458   0.8798848   1.6165943  13.8913512
   0.9566460   1.8139367  12.9578662   0.1218663   1.0352252  13.9517140
  34.0655589  16.5178871  84.1204166  33.8876200  17.0853305  84.8704720
  35.0201058  16.4535499  84.0898895  10.4894602  75.4854679  79.9277830
   9.9069196  74.9692917  79.3706131  11.1112523  75.8846760  79.3193102
  74.1889095 102.9106617  13.4692454  74.9748516 102.9559708  14.0137398
  74.2442656 102.0572472  13.0392957  45.9424067  74.1095686  62.7638006
  45.3325939  74.8452759  62.8194618  45.8301926  73.6423111  63.5916328
  29.5328093  50.5898571  69.5736170  30.0033975  50.0996208  68.8994884
  29.1723061  49.9171114  70.1512718  43.0684471  70.5333138  91.6810894
  42.8635025  71.0514355  92.4594116  43.1027603  69.6302938  91.9967079
  10.8002675  32.3014879   6.9722879  11.2411630  33.0699801   7.3345888
  10.4558992  31.8401933   7.7370429 102.4542618   2.3790100   8.5645592
 102.3778629   1.7254046   9.2596811 101.5670586   2.4615932   8.2148808
  29.5997453  88.5867310  65.4710197  29.5025110  88.4188557  64.5336866
  29.3645191  87.7580738  65.8884239 108.1870365  21.3030863   3.9072335
 108.5110950  20.4028010   3.9337522 107.7467728  21.4240456   4.7485209
  32.2978711  10.2555037   5.7368231  33.1411719   9.9255407   5.4266644
  32.3888659  11.2079930   5.7100999 101.8668938  10.3943467   3.8092133
 102.2818947  10.7901871   4.5755804 101.0789967  10.9186625   3.6659029
  49.7101593  71.9345093  76.9022322  48.9374685  71.7207861  77.4252081
  49.6155024  72.8663349  76.7048168  52.3127604  72.1097803  70.9924412
  51.6317129  72.6391840  71.4073324  52.9757261  72.7438068  70.7190990
   3.6045814  54.3805075  87.7910328   3.9466557  54.3204546  86.8990612
   2.7628040  53.9261913  87.7558231  11.7258728  81.5742779  94.2136669
  12.1186125  81.0473061  94.9095726  12.0644796  81.1923409  93.4039116
   2.1710497  49.8228216  65.4028654   2.8793305  50.1316166  64.8378754
   2.0034020  50.5536175  65.9978962  28.2420564  10.6148243   4.3225831
  28.5878658  11.5065861   4.3600991  27.3806119  10.7088935   3.9160168
  50.7097721  74.9340630  55.6774330  49.8496485  75.2223730  55.3719902
  51.0285902  75.6592512  56.2147331  31.1227107  77.9971600  94.3344212
  31.1452270  78.4759378  93.5058689  30.5223608  77.2690773  94.1740799
  37.9872417  67.0842981  82.0943356  38.2971740  67.0997858  81.1888409
  38.7129402  67.4472666  82.6021194   0.5798249  56.9505072  83.5638046
   0.5492031  56.0337973  83.8375568   0.5896470  56.9146395  82.6073265
  66.2898016  90.7928371  71.9886017  66.2982941  90.9106541  72.9384851
  66.3554478  89.8460388  71.8640900   2.7253950  46.5256786  11.1961758
   1.8621190  46.8973684  11.0149801   3.0707210  47.0596743  11.9115973
  71.4807558  90.6621838  69.3069077  71.6752005  89.8259258  68.8837147
  72.3199940  91.1221504  69.3253088 115.2309990  15.3234828  85.4740620
 114.4807053  14.7709763  85.2548790 114.9831867  15.7494152  86.2946701
  40.7686901  92.0247555  71.9692135  39.8597527  92.2205734  71.7417908
  41.2666512  92.2540951  71.1845636  67.8314590  83.3308315  62.1075010
  66.8861866  83.4092903  62.2361040  68.2055759  84.0233135  62.6522350
  20.3307033  28.4148145   7.7750736  21.1891007  28.6579537   8.1218678
  19.7061610  28.8011765   8.3889979  67.5476027  76.8259764  86.1422253
  67.1665335  76.0623837  85.7087040  67.5819302  77.4964476  85.4599380
  19.7344303   8.1052959  11.1780405  19.3417537   7.5578856  11.8580246
  20.6585574   7.8558898  11.1737680  15.1209450  26.7336178   8.9503592
  14.7159481  27.5657630   8.7059408  14.6325290  26.0752487   8.4561592
  66.2582922 100.4111671  85.6352139  67.0169449 100.4256535  86.2187099
  65.5199337 100.2024555  86.2074947  20.6973696   2.8602368  10.2412534
  20.6259441   3.8146546  10.2265370  21.2339592   2.6484060   9.4774270
  55.3908253  78.9404726  68.6160660  56.1824226  78.5231209  68.2763338
  55.4210615  79.8312569  68.2670403  76.4582777  89.5188808  57.2486258
  76.9778347  90.0306797  57.8685856  75.6892586  89.2456818  57.7488327
  36.1171341  79.1002417  61.6877890  36.3070512  78.7927103  62.5741243
  36.9667649  79.3736458  61.3419390  56.0532761  71.5443516  87.8489876
  56.0295677  71.5912628  86.8932343  56.2579060  70.6287575  88.0388451
  57.3823977  74.5017958  78.1183338  56.5227795  74.7525406  78.4565878
  57.3242712  73.5543346  77.9951811  69.3605328  75.5862522  73.7113523
  69.2595959  74.9420500  74.4121027  70.0936556  76.1335182  73.9928865
  66.9173813  78.3421469  92.6897049  67.7431345  78.7666512  92.9224205
  67.1777439  77.4993134  92.3181152  43.2111740  24.8808742  13.0955601
  43.9542341  25.4647326  12.9432333  42.5153732  25.2281237  12.5374269
  32.6323938 104.7747231  59.8080921  33.4419656 105.2674294  59.9425077
  32.4455762 104.8711395  58.8742638  56.0127068  73.7090206  68.1996822
  56.2494326  72.7816963  68.1836128  56.7003536  74.1405821  67.6926041
  47.0749426  75.0853348  66.7568350  46.5503836  75.4546785  66.0464478
  47.6184607  74.4211769  66.3329124  55.5072832  68.3430672  80.8351040
  56.3024378  68.6552095  81.2669945  55.6790066  68.4633970  79.9011469
  49.9308491  81.2731171  63.7759876  50.1516056  80.3518200  63.9127922
  49.0573311  81.3690090  64.1554546  56.6320944  90.7338428  79.0475321
  56.5412521  91.3652325  79.7612095  56.1487150  89.9635506  79.3462420
  45.7094622  53.7160826  68.9661741  45.8064175  54.1529083  68.1199932
  44.9126625  53.1933880  68.8759804  11.5844905  33.8034821  25.3174067
  11.7255688  33.8848710  26.2606502  10.6753969  34.0732741  25.1870441
  53.3310699  69.2120981  78.4107351  54.2294741  68.8871861  78.4701633
  53.4174156  70.1644087  78.4540892  67.3941565 102.2096920  89.9810123
  67.1912909 101.3659191  90.3848934  66.6005230 102.4412823  89.4985771
  38.3575010  65.5240631  92.3440075  38.0586672  65.0210619  93.1015873
  38.4098315  64.8821926  91.6358471  20.1224041  99.8307705  78.7051296
  19.9323213  99.5953274  79.6132421  19.2967737  99.6871185  78.2426071
  60.9166527  76.0157013  75.4836798  61.8259478  75.7399511  75.5993414
  60.4838181  75.2562332  75.0936937  11.2867713  92.6424122  77.7068806
  11.3036013  91.6991043  77.5452518  11.1673641  93.0317402  76.8406296
  30.7107401  11.0239756   2.8396389  30.7532668  11.8928683   2.4403273
  31.6009426  10.8594668   3.1506157  28.9815402  61.8938875  66.2131929
  28.6489797  62.7246571  66.5529776  29.8799205  61.8439770  66.5397692
 115.3673363  44.5273972   6.1831522 115.6493568  45.0927782   6.9022071
 116.1374760  44.4547701   5.6193709   5.1628721  23.3872795   0.9614325
   4.6596983  22.6420426   0.6333020   5.3145242  23.1859374   1.8848473
  49.8935366  95.1240444  89.3618488  49.2838001  94.9537659  88.6439037
  49.5006847  95.8530521  89.8419189 104.6013355  18.7885273   6.4077753
 104.0844250  19.4496834   6.8681085 105.5071163  19.0824878   6.5046465
  12.4783444  66.8254423  73.5456562  12.4746215  67.6715469  73.9932346
  12.2449541  66.1936617  74.2258120  26.4117384  66.6545486  71.5096569
  26.2610912  66.1848164  70.6893539  25.9147930  67.4671555  71.4150763
  58.4891176  88.2162571  73.2539177  58.9523315  88.7747955  73.8781786
  58.0063295  88.8277340  72.6978111  21.1954498  85.2790737  83.8220406
  21.1024785  85.9360695  83.1321621  20.5719328  85.5496120  84.4960308
  64.2631388  74.7205877  63.8808680  64.0714741  75.4892731  64.4180965
  63.4129238  74.2999601  63.7526417  53.5217619  71.7487049  78.4007072
  53.6514521  72.2014380  77.5673771  52.9704332  72.3411417  78.9118767
  52.1152449  41.7984247  85.5934620  52.6198959  42.2644663  86.2600708
  51.2015009  41.9566154  85.8306885 111.3589859  27.7549434  13.7682950
 111.9537926  27.9429269  14.4943166 111.0417938  26.8686652  13.9418626
  42.1428776  80.1687717  55.4541159  42.8831816  79.5698309  55.3568792
  42.2543526  80.5477810  56.3259840  26.3698387  50.8325577  66.6485643
  26.2244320  51.0955954  67.5573540  26.1139941  51.5979481  66.1338282
  97.6884270  26.6962504  26.9350934  97.4656200  26.6722941  26.0044932
  98.4982586  26.1901832  27.0005870  56.7408943  91.3370800  64.9385262
  57.6405859  91.0106182  64.9244261  56.7294979  92.0361805  64.2847919
  35.3001189  53.3390617  74.1221333  34.3931961  53.3649397  74.4271803
  35.2561259  52.8901911  73.2778549  74.2118740  82.3842907  50.7371664
  74.6911383  82.7755547  50.0067854  74.8259258  82.4156380  51.4707804
  82.0266819  90.3501129  62.3991919  82.2086239  89.5248032  62.8486300
  81.1755085  90.2136707  61.9831228  50.6302977  18.3095968  43.9070368
  50.8351421  18.5054135  42.9927444  49.7017622  18.0772007  43.8999796
  11.8857706  28.2510638   6.6417629  12.3465121  28.2817936   7.4802166
  12.1221721  29.0711331   6.2083673  55.4318714  92.8293514  93.7306118
  55.8253288  92.2470856  94.3805218  55.8854008  92.6185799  92.9144478
  52.2949791  88.2441902  79.8594379  51.4527369  87.7925301  79.9129581
  52.0848465  89.0991020  79.4836712  24.2379498  65.7043028  66.1290598
  23.4098959  66.1401367  65.9275436  24.3798184  65.8780718  67.0596027
  43.0602312  75.5054045  86.7473888  43.4558105  75.1268005  85.9622765
  43.1382227  76.4512253  86.6225910  51.9170237  73.4845400  53.1653214
  52.7379179  73.3101654  52.7049398  52.0572615  74.3290806  53.5934782
   7.7687652   0.2273453  13.9496291   7.2646244   0.4072465  14.7431719
   7.4347599  -0.6143199  13.6393416  15.3637910  16.1796689  66.6327953
  15.0887871  16.0883510  65.7205105  14.8947692  15.4849756  67.0950222
  10.1073539  81.9950485  52.5334501  10.2630591  82.0107841  51.5891314
   9.3345094  81.4403629  52.6395559  37.3688936  84.8966789  82.8718376
  37.8469110  85.2116203  82.1046734  36.9110441  85.6694508  83.2026386
  17.7194917   7.1559089   5.8869159  18.4412384   7.6505065   6.2751007
  17.1706009   6.9091493   6.6312677  48.8082552  13.1152391   9.3671161
  49.1072941  13.2124746   8.4630406  49.0976191  13.9169967   9.8026454
 116.3706875  23.1525421  13.0076432 116.4943218  22.5120568  13.7081587
 115.4714298  23.4604549  13.1206083  42.4440336  91.2896347  54.7360516
  43.3485460  91.5705872  54.5976686  42.3775291  90.4572582  54.2681122
  28.8083220  64.7742319  86.3543415  29.6758604  64.4478559  86.5932655
  28.4226012  64.0699673  85.8333206  23.2971811  31.4150596   1.3974367
  24.1693139  31.0440826   1.5315811  22.7393818  30.9461355   2.0180817
  97.7995300  11.6719782  40.2103519  97.1371937  12.1883833  40.6695509
  98.1539154  12.2687268  39.5511580 108.5947800  15.4388571  17.8930223
 109.1134262  15.5311489  17.0938241 108.1069660  14.6246326  17.7692890
  75.5177593  69.5856142  73.8767624  76.0575533  69.7901058  74.6403313
  74.6648550  69.9716997  74.0760660  48.8078737  80.3632164  87.7731037
  48.2001591  79.7787333  88.2261944  49.3142748  79.7859430  87.2016621
  34.4634652  89.1324806  54.4840670  34.2935348  88.9970684  53.5518551
  33.8400412  89.8102665  54.7451830  55.6170845  84.3887711  53.6893511
  55.1339626  83.6017132  53.4376431  55.7309389  84.3073463  54.6362591
  97.6561546 100.6477451   4.5963079  97.2641468  99.8319721   4.2847496
  97.6812363 100.5530834   5.5484843  81.7344661  99.6323610  95.1392947
  81.9478603  99.9838138  94.2749001  80.9145685 100.0648523  95.3779562
  23.3129978  32.8216934   7.8621501  23.8897252  33.5758948   7.7405137
  22.4328327  33.1664848   7.7116150 113.0527210  71.9264317  87.1076965
 112.1575451  71.9020128  87.4457645 113.4360123  71.0940981  87.3843479
  66.1447334  83.7024403  75.0362682  65.6295538  83.2305813  74.3819237
  67.0544624  83.5480213  74.7817469 110.8181000  12.0780468  79.9546385
 110.4213238  11.2751174  79.6168327 111.4616489  11.7759168  80.5955696
  37.8501630  83.2358456  84.9687481  37.7469587  83.6279774  84.1016674
  38.7895203  83.2883072  85.1450634  46.5329599  68.4911776  77.8069496
  46.9949818  69.0421486  77.1751308  47.1823025  67.8427315  78.0791712
  39.5765805  10.4074025  20.3262734  38.6980319  10.0888705  20.1190996
  39.4340611  11.1020517  20.9692216  18.9577770  53.0242872  78.2867908
  18.5252869  53.7598038  78.7206125  19.2933512  53.3920956  77.4692678
 114.7059155  48.5683155  28.1749678 115.5255032  48.2679367  27.7821779
 114.0872097  47.8563404  28.0121160  48.8988304  70.3722906  72.8909922
  49.5387459  70.9023809  73.3661175  49.3887615  69.5989704  72.6113987
  64.0903139  86.8603992  83.6860085  64.1263342  87.7734661  83.9710331
  63.5944319  86.4145184  84.3726826  29.3986297  22.6359725  35.0357866
  30.2088666  22.1809292  34.8062634  28.7029910  22.0697045  34.7016311
  87.0460701 109.0044689   9.0942377  87.1053600 108.8860607  10.0422335
  87.5106239 109.8242474   8.9257407  53.8302326  66.3667393  77.0569563
  54.1280794  67.2679996  77.1804714  54.1158772  66.1392164  76.1721563
 111.4585686 106.1434841  12.2235823 111.1189938 107.0163727  12.4210453
 112.2818661 106.3053322  11.7629015  76.2841320  77.5645494  58.5505533
  75.9791279  77.0857000  57.7798986  75.4825449  77.8124857  59.0112257
  36.2128830  17.2351253  21.5058637  36.9719982  17.1243000  20.9334159
  36.4092422  16.6949797  22.2713161  33.3374405  88.7553596  58.9492083
  33.7601876  88.0290794  58.4909105  33.7422633  88.7593269  59.8165798
  50.0168562  74.9938965  84.2199516  50.5375004  75.2931070  84.9653625
  49.1505146  75.3742981  84.3648148  22.9744244  40.4947519  18.9365351
  22.4093103  40.7598305  18.2108545  22.4003983  40.5029535  19.7024715
  70.9934139  87.2498798  85.4254818  70.7831669  88.1284714  85.7418633
  71.8087912  87.3601913  84.9363804  47.3712158  86.5239048  49.9857855
  48.1375980  86.1749458  50.4408836  47.2770405  87.4145603  50.3235579
  59.8685598  42.7066755  92.2395611  59.8935556  41.8373680  91.8396664
  58.9731741  42.7942991  92.5664234  31.1799407  64.7939157  71.2871027
  30.7173824  65.5477858  71.6530991  30.9632325  64.0709925  71.8758726
  32.8281498  82.2545147  65.0825644  33.1173396  83.0763626  65.4790020
  33.5318851  82.0196915  64.4777107  34.2731810  53.6677551  69.1564798
  33.9834666  52.7690363  69.3133163  33.5666299  54.2114305  69.5049524
  14.5903325  33.8800693  10.6067455  15.5329573  34.0181613  10.6996047
  14.3192506  34.5156884   9.9443752   2.6790866  29.4236779  32.4286556
   3.2869649  29.9406600  31.9000316   2.0721468  30.0674152  32.7939749
  40.3495836  34.9273109  15.4377794  40.9953594  34.8832321  16.1429465
  39.9322820  34.0658689  15.4409754  12.6897395  79.0485239  69.3395567
  13.3701336  79.4150209  69.9043369  13.1655765  78.4982109  68.7174940
  69.3000126  93.3839417  54.1281986  69.8760891  94.1430950  54.0384722
  68.6204481  93.6697865  54.7387075  38.3492494  52.6142216  64.2329168
  37.4637485  52.3992443  63.9398241  38.9134717  52.0039320  63.7581205
   8.3222544  28.9294481  28.0189943   7.8500515  28.3727884  28.6381769
   8.6184710  28.3290625  27.3348713  48.6709690  50.6643867  87.0373440
  48.1736708  50.3508949  86.2819290  48.0159473  51.0754299  87.6014614
   0.4179921  43.4217119  14.0046561  -0.4728682  43.4927177  14.3475235
   0.9506869  43.9323664  14.6143246  50.6459141  87.9841709  68.5675097
  50.9427643  88.8917065  68.5005331  51.0199070  87.5525284  67.7993679
  41.1477184 103.3952999  68.5741806  40.8845377 103.6043262  67.6779222
  41.4989662 104.2165184  68.9183569  74.1999769  66.6520023  70.8374071
  74.3126631  67.3993063  70.2499771  73.9192820  65.9378004  70.2652597
  48.7668753  70.2110052  80.2021599  49.3282270  69.5773554  79.7553921
  48.3289814  70.6838799  79.4944429  60.0828218  70.2227879  81.9412327
  60.5643988  70.4433632  82.7385235  60.5981445  70.6120491  81.2347317
  83.1648254 103.4506702   9.9548441  82.8075504 104.3325806  10.0588179
  82.3986530 102.8988457   9.7977096  67.6068306  76.8674088  79.4654465
  66.7438984  77.1948481  79.7191525  67.5810480  75.9344959  79.6781397
 105.5104828  46.0985184   1.6894493 105.8957291  46.3382053   0.8466160
 105.3221607  46.9357538   2.1134788  22.5853562  24.8388076   7.9268056
  22.3002052  25.2443409   8.7456256  21.7860770  24.7641468   7.4054492
  56.6332340  72.5305033  61.9237566  56.0752583  71.8074131  61.6373348
  56.0460997  73.1068325  62.4129868  46.2716055  61.7563534  75.7636023
  46.1745262  60.8459997  75.4841948  47.1067047  61.7756796  76.2310028
  50.0910568  60.8922529  70.8051920  49.5738363  60.8292341  71.6081524
  49.6489620  60.3081560  70.1890612  98.2266808 104.4996452  93.3853531
  97.6719856 104.7446060  92.6447201  98.2798195 105.2934170  93.9176369
  47.9380846  73.3525801  80.7506180  47.9259157  73.8884354  79.9575520
  48.8501549  73.0758142  80.8386898  57.7144909 109.0053844  79.6953297
  56.7699146 108.8737011  79.6136856  58.0897617 108.1342506  79.5668030
  28.1463885  94.9341488  61.0365629  28.7215185  94.5844173  60.3560209
  27.5182700  94.2314720  61.2037277  46.2199163  71.6943264  91.2521839
  47.0560360  71.2407541  91.1453438  45.6040335  71.1895752  90.7210159
  59.4081783  82.0422268  86.7293453  59.6022940  81.6315269  85.8868027
  59.1098452  81.3214397  87.2840595  25.0495124 103.3219624  56.3648462
  25.9946918 103.3894920  56.5001440  24.7435689 102.7688789  57.0836830
  39.3062901  32.9762864  11.1204612  39.1926098  32.5378227  10.2772188
  40.1006079  32.5879478  11.4871824  23.7130570  58.3237314  86.4655113
  22.8276896  58.0035925  86.6383457  23.7739873  59.1395998  86.9623852
 108.0079269  38.7001371  21.3554811 107.3762226  39.1976929  20.8362293
 108.8445282  38.8379145  20.9112406  12.2757828  10.4118657   0.8165700
  11.7194629  11.1175227   0.4867406  12.6747847  10.0349891   0.0323546
  22.3498130  26.8865323  28.0049276  22.7648830  26.5988326  28.8180566
  21.4147854  26.7405748  28.1486297  90.6211758  23.9548039  10.5075824
  90.4962158  23.9235401  11.4560759  90.7623291  24.8817492  10.3150225
  33.0619073  27.9956484   9.2610151  33.8676810  28.4047723   8.9454520
  33.3245397  27.5308132  10.0554872  49.7005749  79.2447042  54.7056866
  49.9259233  80.0600433  55.1536417  50.3484821  79.1693354  54.0051365
  70.4739666  69.3365860  76.2021399  69.5522213  69.4125557  76.4488125
  70.6073952  70.0313330  75.5573511  17.8940785  18.4831798   8.2403946
  17.4133766  17.7763915   8.6712176  17.5665629  18.4820545   7.3409700
  28.3516717  41.6932106   6.0493207  27.7957320  42.4699402   6.1113828
  27.7598262  40.9607315   6.2208527  32.4825478  70.2390337  88.0983353
  32.0000339  69.4224691  88.2273102  32.5596046  70.3241587  87.1480465
  47.0024872  44.6927691  91.1168575  47.8724718  44.3025780  91.0325336
  47.1712112  45.6176853  91.2965584  83.3701229 101.0648727  14.2872250
  82.5078201 101.0647011  13.8716912  83.3907509 100.2546501  14.7964764
  71.2150574  99.7855663  60.8549118  71.3194036  98.8388348  60.9499788
  71.7016697 100.0014782  60.0594091  39.7550201  61.6843605  84.5095634
  38.9589477  62.2145891  84.4727325  39.8780131  61.5013266  85.4410172
  74.3789864  79.5718384  70.7447338  73.8473511  80.3505802  70.5799341
  74.9309349  79.4896650  69.9670267  94.8709679  98.0044556  77.7364445
  94.3020058  98.7380981  77.5034761  94.4017410  97.5502968  78.4363079
  62.6303196  58.3155489  60.7178164  63.1426620  57.5365019  60.9342003
  61.7373562  57.9905939  60.6026793  44.1411924 102.3109818  41.1635065
  44.8111010 102.7519894  40.6410360  43.5259295 101.9618225  40.5187035
  69.9968719  83.8253880  90.1706219  70.7774258  84.1572380  89.7269535
  69.7337484  83.0634022  89.6545124 109.2177582  73.9903831  44.9736929
 108.4586239  74.2660999  44.4599533 109.9637794  74.1231346  44.3888283
  18.2348514  26.6680980   1.1789737  19.1276789  26.9937253   1.0647017
  17.8073668  26.8418455   0.3403427  24.3644905  47.9953718  81.2887955
  25.1820183  48.4824276  81.1855602  24.6278453  47.0756912  81.2561131
  77.2759247  81.8509007  66.7393875  77.6042223  81.1367321  66.1931086
  77.8545094  82.5878239  66.5433788  32.1975398  23.4867096  10.7747626
  31.8498206  24.3684173  10.9086132  32.9883552  23.4568191  11.3132298
 110.5730247   3.8506159  88.4298611 110.9012413   3.7173796  87.5406170
 111.0459232   4.6200785  88.7469292  40.9937048   2.1089903  67.8685713
  40.6839752   1.3988155  68.4306669  41.6984987   2.5203791  68.3688307
  80.8879471  76.9373512  82.3097801  80.9236240  75.9816790  82.3503494
  81.5007114  77.2287846  82.9849148  41.9731712  69.4833612  70.8417654
  42.4842930  70.2498341  70.5819416  41.6740847  69.1036320  70.0155783
  30.9245777  44.7660351  93.8765240  30.7010913  45.3839540  94.5725632
  31.8055320  45.0216913  93.6030483  48.9788151  72.6983929  85.5979824
  49.4836617  73.4007168  85.1879787  48.1223631  72.7391958  85.1724911
  41.9691801  98.1157303  55.9856558  41.8967867  97.3459435  55.4213715
  42.7764702  97.9750156  56.4803410  59.7937965  75.7989597  58.7781477
  59.3011475  76.2068081  59.4903231  59.2063141  75.1253510  58.4355974
  87.5623131  70.8385134  68.4679556  87.3360443  70.1576948  69.1016102
  88.2779503  71.3217783  68.8809347  41.3144064  71.1105919  64.7990179
  40.3966618  71.0945177  64.5274973  41.5135336  70.2017975  65.0241327
  85.6380939  83.1231022  80.6240273  85.8347702  82.9975224  79.6957111
  86.4833546  83.3316612  81.0218620  53.9907789  85.4734898  51.5280867
  54.4477272  85.4403400  52.3685217  54.4081593  86.1945438  51.0568094
  75.3671646  92.3298454  46.2141752  75.5416489  92.1444130  47.1368885
  76.0635233  91.8731213  45.7422447  32.1796012  83.8975334  75.5445099
  31.8033242  84.5843697  74.9941444  31.5463758  83.1811047  75.4999161
   9.0661407   7.5652117  24.6048975   9.3489087   7.9602903  23.7801623
   8.2300287   7.9887968  24.7991228  42.4828482  70.3765392  76.3434744
  43.2514095  70.1851511  75.8059645  42.8350258  70.5230808  77.2213840
   6.1961561  57.7762985  11.0026872   5.2838814  57.5129032  10.8818090
   6.6374373  57.4843884  10.2050078  70.4360628  75.4015923  69.9797869
  70.2320147  75.9159517  69.1987467  71.3554573  75.5964184  70.1614285
 113.1276035  57.8845644   6.0563689 113.5989189  58.2767582   6.7914099
 113.3349228  58.4480429   5.3108853  90.4468250  96.7731190  69.5451164
  90.0062847  97.4368572  70.0757790  90.4437637  97.1343708  68.6587095
  81.2731457  90.4204464  72.6006031  81.1018181  90.0472927  71.7359447
  80.8701801  91.2881947  72.5711012  61.8905401  72.1276665  63.7603855
  62.0296240  71.7957449  64.6473551  60.9731817  71.9299173  63.5717583
  12.6000929  22.5837350  21.5413499  12.6759994  22.1404576  20.6963801
  12.8333592  21.9144893  22.1847224  68.6943150  83.9966774  57.1606779
  69.1499662  83.7947559  57.9778957  68.9032412  84.9151802  56.9905901
  92.0217800  20.6726742  84.4751453  92.2250271  20.0361657  83.7897396
  91.5416431  21.3664126  84.0230083  85.8324909  78.1543493  52.0065308
  85.7272816  77.2052908  52.0732403  85.2956200  78.5053730  52.7170134
  51.7769384  90.6968212  68.2353544  52.0506811  91.4129257  68.8084984
  51.4221621  91.1325264  67.4604177  32.0429397  23.6125183   2.4334578
  32.0074892  23.6964178   3.3863145  32.8061414  23.0584002   2.2700386
  74.1008425  84.8472691  68.2705545  73.6275530  85.6587315  68.4542847
  73.5123539  84.3501472  67.7024174  81.6643238  64.7702265  75.2722549
  81.4040470  63.8540888  75.3680754  82.5840855  64.7868395  75.5368280
  74.5360041  24.5225096  71.5658426  75.4796743  24.3730354  71.5077209
  74.3064117  24.2601776  72.4573040  69.8237371  97.6025200  56.3501883
  69.5464802  97.9865837  57.1819687  69.0211821  97.5503445  55.8311367
  36.0745788  24.5094085   8.2671273  35.7176232  24.0340495   9.0173602
  35.3180051  24.6695781   7.7030569  90.5903816  54.9920225  60.5930996
  90.0945568  55.7289314  60.9499645  90.0451374  54.2263985  60.7740879
  59.7321367  98.4843159  82.6617813  60.2319670  98.1761646  83.4177208
  58.8223028  98.4820175  82.9591465  43.7439823  36.6510344   5.5567777
  44.2387772  35.8765125   5.2893329  42.8960419  36.3079619   5.8387846
  99.6444035 103.8871956  13.9742398  99.3058681 103.3706474  14.7055435
  99.7098923 103.2638645  13.2507765  82.3706722  59.9806499  69.3838596
  82.8133774  59.8521185  68.5449791  82.0713329  59.1063023  69.6331453
  96.7185402  28.2751894  82.1557808  96.3227463  27.4046874  82.1133137
  96.4636517  28.6125588  83.0145264  53.3382130 106.7278767  92.0450783
  52.5606346 106.5373135  91.5203953  53.9805079 107.0505428  91.4129639
  19.4132388  43.8305473   5.3927702  18.7844515  44.5189142   5.6095946
  20.1342821  44.2912722   4.9637428  89.3488884  73.1374025  64.7917938
  89.2923355  74.0922832  64.8270464  90.2561760  72.9602098  64.5434713
  81.8319130  80.5470943  50.1128674  81.6072941  80.5040455  51.0423422
  82.7053165  80.1591110  50.0593090  52.7650547  80.4603195  80.9115314
  53.3730078  79.7597599  80.6752014  52.6965094  80.4065228  81.8647575
  77.9183245   6.1935121  80.4720020  77.6949692   6.6998369  79.6909857
  77.0730495   5.9486359  80.8485222  53.8487530  60.0552750   3.4175870
  53.8657188  59.8693895   2.4787636  54.7168159  60.4114199   3.6069548
  22.4894142  23.7654805   4.8696792  21.6494370  23.4073544   5.1567632
  22.8558707  24.1745758   5.6536329  71.4674664 108.2675743  85.8972549
  70.6882954 108.7478733  86.1773300  71.2564325 107.3493481  86.0662556
  32.8619218  73.4116411   4.9235615  32.6835752  74.2954016   4.6020228
  32.8754234  72.8682852   4.1356444  56.9490194  50.2661848   2.1051781
  57.4358940  49.4427395   2.0717429  56.6599655  50.3367567   3.0149585
  87.5642776   7.3940158  78.6155224  87.2138214   7.7416420  79.4356251
  88.2423496   6.7757046  78.8878250  36.0944080  94.0081596  83.3347797
  36.5021634  93.9876080  82.4690151  35.1728320  94.1998100  83.1609917
  60.0643778 104.1700268  83.2512569  59.6756601 104.1320610  82.3773670
  60.9954643 104.3254662  83.0926895 109.3602562 104.2833424  67.4837637
 108.4312057 104.3573570  67.2655630 109.4034386 103.5552502  68.1036472
  40.4678154  78.2253218  94.7952080  39.7102952  77.7992392  94.3941498
  41.0152626  78.4869480  94.0548801  83.8074684  72.2334290  49.9138165
  83.6705112  71.2918901  50.0185728  82.9355717  72.6150799  50.0156450
  68.4731483  79.8478985  67.2210979  67.6349449  79.4821024  66.9385242
  68.9703512  79.9610901  66.4110279   0.3038740  14.7865701  10.8957708
  -0.4843939  14.8759806  10.3601670   1.0001461  14.5958197  10.2672398
  50.9242773  96.0549068  81.0862923  50.3004503  96.6438007  81.5108776
  51.7797327  96.3406658  81.4068794   4.1134650  69.0171528  38.9495277
   3.6857742  68.2795620  38.5144687   4.3928033  69.5881319  38.2338572
 103.1095695  60.3539228  74.1881227 103.3574581  61.2104082  74.5362663
 103.8419342  60.1031256  73.6251211  25.2570538  19.3977475   1.3003600
  25.6156210  20.2413582   1.5760101  25.2199702  19.4537472   0.3455127
  14.5993650  48.5925007  24.1619325  14.0342700  48.0271339  23.6353779
  13.9949429  49.0848207  24.7173882  22.1532226  38.2495475   3.6250833
  22.0027947  38.0505204   4.5492002  22.0619392  37.4067235   3.1806195
  70.4366827  76.1363029  67.3709345  70.2301264  75.3419828  66.8783617
  71.0684776  76.6009474  66.8221426  56.9225121  79.9123859  74.3405581
  57.4108362  80.1789951  75.1194620  57.5138807  80.0993443  73.6114740
  69.1717148  87.4353981  61.1150074  69.4127798  86.8677425  60.3829670
  69.9385977  87.9923725  61.2488270  49.4191504  59.3730593  17.4519730
  49.2719507  58.8071823  18.2098293  48.7934160  60.0889397  17.5624585
  76.8973589  71.2859821  70.0699425  77.4880648  71.7072010  70.6943417
  77.2416162  71.5317678  69.2112780  90.7634354  17.1504235  92.1907616
  90.0096607  16.6851628  92.5535011  91.1217976  16.5517187  91.5355015
  29.9576688   1.7966945  93.8593769  30.1868343   1.8993296  94.7830582
  30.7996583   1.7168531  93.4111500  39.6507144  39.4952917   5.5069923
  40.5141926  39.4052124   5.9101325  39.2497468  38.6315680   5.6041366
  91.4003372   2.7167973  91.1572456  91.7293739   3.0893049  91.9752979
  91.3515663   3.4612924  90.5576038  47.8874459  82.2828174  94.5315149
  48.5292579  82.7244926  93.9754292  47.0540042  82.6998186  94.3130725
  34.7802472  87.6678562  76.9643688  34.3693495  86.8152523  77.1074390
  34.4671893  87.9430294  76.1026859  81.7242241  86.8888664  80.1970482
  81.9468784  87.7511787  80.5478573  80.9636307  86.6116142  80.7077885
  53.2919598  47.4109840   3.6008891  52.5107336  47.4168921   3.0478206
  53.5415554  48.3322763   3.6726856  65.8872652  79.3991232  83.6222267
  65.1992226  78.7702465  83.4046364  66.6654205  79.0672684  83.1743717
  79.6488619  74.8597574  69.7635412  80.2869797  75.5724335  69.7299194
  78.7987661  75.2968645  69.7134733  52.0509434  75.3126812  78.1333733
  51.3159704  75.6083393  77.5961208  51.6588354  74.7090244  78.7643099
  83.5527802  65.5514193  82.3226357  83.1117535  65.8956957  83.0992985
  84.4375896  65.9135914  82.3693562  13.7961292  45.1733732   5.8117664
  13.3393312  45.5368900   6.5703326  14.2776549  45.9145546   5.4443187
  47.7499485  77.0174265  61.5118504  47.7588987  76.6794682  60.6163454
  46.8244982  77.1742201  61.6994429  85.8475590  90.3519058  93.4668350
  85.0592327  89.8111057  93.4187412  85.5665016  91.1449623  93.9232349
  19.4729686  27.1034598  25.8483315  19.6233785  26.3863301  26.4642286
  18.8993168  26.7287803  25.1799226  65.4538441  71.4720678  57.4665546
  65.6433964  72.3852921  57.6817799  65.6264400  71.4065456  56.5273285
  92.7319527  95.8543777  81.9230938  92.8686619  96.0350990  82.8530884
  91.7820549  95.8873558  81.8098068  49.9848986  84.3632126  76.3879633
  50.7568789  84.1792011  76.9231415  50.2484655  85.0959587  75.8313274
  42.1983528  98.3861446  74.0676022  41.7705727  98.7517262  74.8419333
  41.8484020  97.4979687  73.9975262  57.4109888  98.7002468  62.1406174
  57.2745466  99.6305656  61.9614267  56.5290117  98.3467579  62.2563553
  70.7638025  85.1788330  74.7502232  71.4743090  85.3742313  75.3611565
  70.4950523  86.0338211  74.4140720  64.1933346  85.0602531  52.7159834
  64.5121288  85.8302784  52.2451687  64.8850965  84.8620605  53.3471823
  88.1493855  88.4480286  72.9988003  88.2260323  87.6837730  72.4276066
  88.9771271  88.4722137  73.4788895  81.6231537  74.0067101  91.0011864
  80.8710957  73.6634350  91.4836884  81.2438679  74.4026852  90.2165985
  56.5768528 104.5541859  83.5309887  55.6213236 104.5473385  83.4749126
  56.8007183 103.7036037  83.9086437  49.2658997  43.3172512   2.0465013
  49.9327326  44.0009975   2.1101968  48.6609316  43.5051012   2.7641079
  74.1636801  85.1835251  71.0139418  74.4138098  84.5532417  70.3383684
  74.2227316  84.6923733  71.8334007  56.8156099  85.8740234  77.7563524
  57.4012041  86.2588120  78.4084654  56.2803888  85.2537727  78.2513905
  34.5147467  81.8244553  93.9493275  34.1965032  82.7203178  94.0606213
  33.7469864  81.3318348  93.6593246   9.5463949   7.8839630  88.4921646
   9.5837313   8.3872461  87.6788044  10.4302156   7.9478270  88.8541222
 113.5953808  86.8035603  89.4233227 114.4526482  86.4340115  89.2117500
 113.2652187  87.1359253  88.5886097  75.0803900  71.3701105  84.2184258
  75.2138996  70.9339380  85.0599480  75.1760149  70.6729937  83.5694885
  27.2447777  26.2544703  61.0407877  27.2854733  25.6404328  60.3076220
  28.1171179  26.6471744  61.0730124  81.6718292  84.5328522  87.5421429
  80.7978725  84.5900345  87.1559238  82.1945000  84.0733051  86.8849850
  62.6620626  80.0578022  88.1502247  61.8007278  80.2729797  88.5080433
  62.7460861  80.6151676  87.3765945  24.4097590   8.6531687  72.3534107
  25.2370286   8.7627512  71.8845320  23.8048768   9.2516208  71.9150019
  72.2313643  73.6825562  51.9110060  72.1824408  73.7269449  50.9560871
  71.4559364  73.1834602  52.1676207  92.1966171  69.3247128  73.3703899
  92.0719337  69.7758913  74.2053270  92.1157646  70.0140619  72.7112293
  99.3270969  32.0296955  17.9949534  99.6469212  32.9110312  17.8021049
  99.9622250  31.4477611  17.5775838  81.3878155  85.4601097  54.0035868
  81.0799408  85.4765129  53.0974007  80.6619263  85.8248901  54.5098066
  59.1171646  89.8056126  78.4565067  58.2382250  90.1810551  78.5088158
  58.9889956  88.8717365  78.6228848  43.0775070  95.9610653  20.2607250
  42.5381613  95.1705742  20.2819538  42.8651953  96.3734627  19.4234157
 107.6186085  42.0918608  12.4801779 107.0565796  41.6574240  13.1217515
 107.1411514  42.8868151  12.2428691  90.3689861  22.9798508  77.6253557
  90.6403637  23.8749886  77.4220991  89.4473267  22.9450107  77.3693037
  96.2813091  62.1052694  72.5840902  96.8860054  61.8036795  73.2620430
  96.7520142  61.9630909  71.7628336  72.6586437  91.8533421  80.7810116
  72.3718119  91.2034988  81.4226151  73.6049414  91.9163609  80.9105587
 110.1340008  42.8355885  11.9627118 110.5832767  42.0143366  11.7628980
 109.2364979  42.5737810  12.1681094  22.8767872  80.6385136  89.2998028
  22.0736170  80.7796192  88.7985706  23.3522940  81.4661694  89.2282391
  11.7735469   7.0314544  75.3534269  12.2701931   7.0196933  76.1716175
  11.4420545   6.1381948  75.2616024 105.8782291   5.0832391  62.4967718
 106.6666889   4.8731565  62.9971981 105.1614571   4.9723399  63.1214094
  69.0436935 103.3751869  12.0196700  69.3773365 104.1278267  12.5079870
  69.8281240 102.9364777  11.6903889  34.8978305  35.5547118  15.0775778
  34.7887564  34.6413875  15.3424811  34.0153337  35.9231138  15.1189280
  44.9681473  34.2480302   4.8081246  44.3992186  33.8201308   5.4480100
  45.8180046  34.3066168   5.2446377  95.6268787  86.4629555  92.2658730
  95.0539207  87.1206856  91.8717480  95.9824657  85.9779263  91.5211964
 112.3798370  43.4903431   2.7060884 112.7249050  43.6906528   3.5761660
 113.1543636  43.2836342   2.1830069  10.9181058   5.1424003  82.9888725
  10.2744031   5.0004727  83.6829472  10.9261680   6.0908484  82.8599739
  57.2163820  81.4847469  64.1485596  57.7689219  80.7265377  64.3384075
  57.4300909  81.7165565  63.2447720  88.5296726  55.0565481  86.0621166
  89.3543434  54.6102619  85.8697891  88.6672497  55.4539108  86.9220066
  69.1945219  72.4079514  57.6458502  69.7598457  71.8677139  57.0937777
  68.6368227  72.8803587  57.0277596   5.6511593  75.1071024  13.9207244
   6.5457505  74.9070644  13.6451828   5.4688907  74.4773579  14.6181715
  65.3749609  89.5410252  47.8630209  65.1767302  89.9173641  47.0055199
  65.0553751  88.6403751  47.8089857  49.6953917  27.7182245   5.0036514
  49.1389322  27.6002097   5.7734966  50.4726362  27.1904039   5.1867437
  63.7820482  83.5111141  76.4783239  64.6428823  83.2618713  76.1420727
  63.9497519  84.2854023  77.0155382  86.0075569  89.1557980  76.6855288
  86.5743732  88.4164810  76.9054461  85.5894566  88.9007092  75.8631182
  92.4952030  76.1833668  54.2348099  93.0084515  76.9905758  54.1998577
  92.0494747  76.1461115  53.3885384  84.0990353 102.9113865  82.8160000
  84.4637585 103.0127907  83.6951637  83.2186413 102.5645828  82.9604721
  70.5751371  82.7026081  64.4783306  70.6883049  81.8732262  64.9426126
  69.8842144  83.1554317  64.9618673  79.1954613  96.2917709  55.9838724
  79.0871191  96.5923309  55.0815678  79.8389816  95.5855846  55.9254551
  96.4260101  86.6506958  80.8405209  97.0775700  87.3387527  80.7052803
  95.6367111  86.9805145  80.4110241 108.8987160  21.7864227  14.2459774
 108.3308792  21.0586333  14.4991732 109.7733116  21.4009213  14.1938472
  67.4461794  85.8397102  92.1462440  66.8165255  86.5278912  92.3611450
  67.1477222  85.0782108  92.6434994  59.7787809  83.1313324  63.0893946
  60.3748083  83.7361431  63.5311985  58.9129591  83.5238838  63.2011604
  63.9811516  93.7505817  40.5674124  63.3479452  94.1675377  39.9830914
  64.6847391  94.3934917  40.6560802  57.6318216  87.6766014  45.8236265
  57.7174044  87.2038651  46.6515303  58.5241747  87.7217960  45.4802704
  82.6277828  92.5337982  64.4310427  82.2475719  92.2270870  63.6078787
  83.5121059  92.8150558  64.1963005  12.9468095  59.2824697  94.4983006
  13.8464284  59.5859098  94.3764496  12.6136494  59.1578293  93.6096478
  59.1506767  98.7081718  85.9100914  59.5814037  97.9148674  85.5916977
  59.8694563  99.2757130  86.1884403  71.1016512  63.8628531  59.9062347
  71.2522268  63.0022287  59.5152283  70.1876068  64.0615940  59.7031212
  22.9684949  46.9017744   2.3396561  22.3372650  47.0762491   1.6415608
  22.6599884  47.4267197   3.0782259   9.6475232  14.7858620   9.1048992
  10.4093075  15.2703464   9.4230050   9.8603684  14.5748711   8.1958270
  56.8488264  68.6572742  85.3322887  56.2892199  68.8608122  84.5828533
  56.2415218  68.3670282  86.0128498   1.4216974  64.6413517  26.5777349
   0.6944440  65.1517820  26.9338179   2.2061741  65.0986147  26.8806219
  62.2009516  46.4227104   5.8304888  61.2477350  46.3359880   5.8211595
  62.4419594  46.5164375   4.9088800  78.2016754  84.0849876  84.9222374
  77.5397682  84.2623901  85.5905437  78.8696432  84.7560596  85.0626183
  76.8068171  83.8523865  28.4948587  76.0999727  83.5485363  29.0643191
  77.0519686  84.7059536  28.8520026  87.4102688  68.2488680  86.3488007
  86.7507839  67.8425360  86.9111156  87.8436184  67.5125217  85.9172440
  78.0763245   1.1880869  89.5769024  78.1856012   0.3035399  89.9260044
  77.3756266   1.5694691  90.1058674  53.3758497  76.6352558  92.7558613
  53.8937759  75.8494854  92.5810623  53.8891602  77.1218967  93.4007740
  49.7322416  92.4880409  75.0364447  49.6794128  93.3270168  75.4942131
  48.8912487  92.0660019  75.2120543  60.0196075 103.0073929  72.4899483
  59.9951220 102.7512836  71.5679741  59.2584229 103.5771275  72.6005697
   6.9977444   4.3498781  82.0568180   7.4595982   3.5124761  82.0978165
   6.8919367   4.6100935  82.9718781  72.3267174  71.0133982  67.9183149
  71.9241762  71.5262938  68.6191177  72.8109598  71.6555834  67.3993301
  71.2065268  79.5182180  91.3398552  70.8220053  80.3037262  91.7288971
  72.1085072  79.7675514  91.1386299   5.2712101   7.7497762  28.2458949
   4.5052034   7.3726285  27.8131986   5.1825571   7.4867284  29.1619611
  44.3514442 107.2024536  87.2812080  44.2750883 107.7404785  88.0692005
  43.5135412 107.3148727  86.8323135  58.9017439  90.4288197  85.7599449
  59.2804575  89.6343422  86.1362457  58.0027008  90.1846790  85.5400467
  79.3600273  57.3195171  68.3120346  79.9743414  56.9955492  68.9707422
  78.5258293  56.9092894  68.5402012  72.3312950  81.1702728  69.5660353
  72.1533871  82.0020294  70.0050831  71.5412855  80.9956551  69.0545416
  71.9499016 105.1561451  50.2932119  72.4413347 105.6032372  50.9822941
  71.2025452 105.7291126  50.1217461 103.3882999   7.3227257  81.4326572
 102.8162098   8.0591416  81.2167168 104.2386341   7.7243435  81.6111565
  79.7215557  81.5463352  93.9866543  79.0487814  81.5222263  94.6671104
  79.6613741  82.4291039  93.6215115  40.6096554  89.4202518   2.3049554
  40.3558493  89.9789429   1.5703285  40.3459644  89.9124241   3.0824333
  24.7342587  19.4330502  17.0095444  24.1571593  19.0506935  16.3484907
  24.6070170  18.8853872  17.7842093  44.5781231  83.4778690  81.7921066
  44.1383076  84.2798996  82.0741463  44.8692703  83.6654758  80.8997631
  36.1322856  49.7129393   7.0438713  36.0583282  48.8412333   7.4323148
  36.8361950  50.1355124   7.5359875  61.8959093 102.4507809  93.5085201
  61.9742823 102.9076672  92.6710606  61.0624743 101.9837379  93.4494781
  41.3314199  83.0530167  82.1748734  41.3563490  83.8925838  81.7158031
  42.2381973  82.7466679  82.1632576  98.9392662  99.7723770  79.3122244
  98.6259556  98.9435196  78.9502001  99.8163414  99.5741272  79.6403503
  36.2262201  51.5360451  10.0695324  36.6213393  51.9116116  10.8563364
  36.9333696  51.5331221   9.4244254   9.2002457  87.9778957  78.2647800
   9.9456394  87.4438572  77.9901409   9.1610408  87.8641224  79.2143822
   3.3920822  65.3860140  83.1718731   2.8330353  65.1216125  82.4412727
   2.7864301  65.7509899  83.8170242   1.4505868  54.6935129   0.5635939
   1.6856560  55.1772642   1.3554007   2.2707295  54.6198702   0.0755627
  63.7332439  47.2184658  18.4753883  64.5453215  46.8501520  18.8233864
  64.0199280  47.8471136  17.8129327  67.6606703 105.2579594  82.8251171
  68.1660223 104.6298218  83.3411694  67.7798462 106.0920238  83.2793808
 104.9372196  67.3372698  75.9189034 104.9835110  66.5374422  75.3951025
 105.7590294  67.3501635  76.4095163  37.3176122  84.2425156  72.9220867
  37.4753284  84.4085979  73.8514853  37.4153352  83.2949638  72.8281498
  70.9997702  76.3978243  87.5023746  70.4410887  76.9508314  88.0485344
  70.7623959  76.6300821  86.6046238  48.3968782  44.1383362  11.3467848
  48.2779312  45.0710487  11.1675334  49.1389036  44.1031790  11.9504368
  38.0258203  81.8564034  75.0138426  38.4087324  81.2041664  75.6005192
  38.3304858  82.6961231  75.3577709  58.1697226  77.0834494  85.8625889
  57.9963303  77.8053904  85.2584553  57.6030064  77.2584629  86.6138744
  46.4233637  71.4627409  84.1457844  46.5682411  72.3897886  83.9564991
  46.9451571  71.0000277  83.4901428  37.3375201  21.4072084   0.6424521
  36.9419718  20.5671453   0.8749773  36.7727327  21.7550254  -0.0476705
  97.9512596  95.5759716  70.7865715  97.7935791  96.3679790  71.3004732
  97.9974556  94.8743057  71.4360046 108.8529587   2.6951090   4.0134946
 108.7615871   3.3368051   3.3091438 109.6934128   2.2700238   3.8426921
  50.7189894  32.7997065  12.7033174  50.1641607  33.5795188  12.7202606
  50.6875324  32.4638677  13.5991168  90.1330376  14.4951546  45.9648466
  90.6343460  15.2057922  46.3647413  90.4377460  13.7057698  46.4123487
  56.3422155  72.9860353  90.0829792  55.9900856  72.8529453  89.2029095
  57.2919035  72.9872131  89.9633217  93.3128071 105.9648037  93.6962128
  92.9247856 106.6924572  94.1822052  94.1764832 106.2845421  93.4353161
  15.2792573  34.3662977   5.1084638  14.3998647  34.5988679   4.8104504
  15.1909602  33.4731913   5.4413289  43.3942986  19.8316598   7.2363800
  43.5952711  18.8989651   7.3133236  42.7648067  19.8824823   6.5170825
  26.5026593  43.3414555   8.8909787  26.1970854  42.4508142   8.7188941
  25.9599662  43.6444092   9.6189463  97.4863911  79.5233059  64.9175787
  97.6609230  79.2474365  65.8173943  96.5674782  79.7912645  64.9231720
  85.5876923  94.4343948  26.5176058  85.3645992  94.6323586  27.4271488
  85.1871586  95.1424599  26.0131860 109.5957470  42.4671888   3.2108989
 109.4569111  41.5893555   2.8554255 110.4749680  42.7076340   2.9186860
   3.3010426  21.4615512   0.5255833   3.2313594  21.1666369   1.4335489
   2.7117980  22.2140002   0.4722627  49.9429989  85.9913826  94.2319107
  49.5794582  85.6904221  95.0646782  49.9085903  85.2219868  93.6635208
  53.0359316 107.4273491  94.5725918  53.3793831 108.3160400  94.4803429
  53.2538366 106.9992161  93.7446690  78.2948780  82.7879143  39.4954324
  77.7725935  82.3857689  40.1894951  78.4126902  83.6945057  39.7790670
  16.0613811  33.7466836  31.9029450  15.3709245  33.2685876  31.4436793
  15.6703854  33.9828277  32.7441287 113.2640839  25.8508778  28.1630754
 112.3908806  26.2026930  27.9899240 113.8620663  26.5094876  27.8096867
  70.7772779  80.4042816  55.8230734  69.8670149  80.1265907  55.7204008
  71.2688637  79.5872974  55.9074116 110.3136539  57.9659557   6.8455815
 111.2660980  57.9128456   6.7663598 110.1676083  58.4626389   7.6506931
  59.6462679  75.3889418  79.4249821  58.9755440  74.8455811  79.0113163
  60.3711510  75.3919792  78.7998724  50.1185513  90.9089470  73.0662632
  50.3572607  90.2197075  73.6861038  50.0723982  91.7036343  73.5978317
  35.3921294  98.7736034  89.4390678  35.7516170  98.4387875  90.2606010
  35.0559807  99.6419239  89.6609783  70.2172661  73.1405783  81.9298553
  70.3233624  73.8134670  81.2574005  69.5029020  73.4621572  82.4798584
  33.9692330  93.7644386  89.8323154  34.4599843  93.8306618  89.0131569
  34.1688657  94.5768452  90.2974701  72.9641771  77.7138805  76.6044664
  72.2618246  77.5543451  77.2349262  72.7458191  77.1575260  75.8567858
  86.5843296   6.0174400  90.2326393  86.0700226   6.0828424  91.0372734
  85.9696865   5.6772131  89.5825005 111.0986900   7.9251146  77.3943090
 110.7008648   7.6386195  76.5721893 111.9725227   8.2262611  77.1453762
  67.4996042  98.4466457  79.6549892  67.5437117  99.3812847  79.8568249
  68.1419611  98.0447388  80.2398682  23.4110832  17.8981471   2.4304435
  23.4424806  17.9347670   3.3864272  23.9567471  18.6308134   2.1446398
  55.9226513  78.6957407  83.5761738  55.2484894  78.9682150  84.1986656
  55.4768848  78.0797386  82.9947376   9.2634743  47.2079992   0.5295746
   8.4519482  46.8214130   0.2006236   9.9363965  46.9086838  -0.0818321
  88.9125824  87.3427391  39.0652633  89.1887856  86.4294243  38.9891052
  88.2557869  87.4524689  38.3776522  31.2579823  91.9715977  64.6686888
  31.8431401  92.7186203  64.7943163  31.0326958  91.9975662  63.7387371
  17.1012950  28.5819721   6.0941637  16.4380074  29.2560291   5.9460759
  17.2410858  28.1900287   5.2321488  85.4135513   6.8356538  92.7519894
  86.1381721   6.7434263  93.3705711  84.8233128   7.4648964  93.1665993
  85.3052139 104.9913597  90.0013161  84.5502567 105.5627728  90.1418781
  85.8280277 105.0849915  90.7976437  57.1670487 109.1383823  33.1910038
  56.2495473 108.8693275  33.2359242  57.1408132 110.0923398  33.2652235
  79.6195316  80.2909279  74.7519159  78.9085674  79.6500206  74.7497082
  80.1243210  80.0859642  75.5389404 107.5290012  22.0014858   8.2869112
 107.3235607  22.8370833   7.8676224 106.9981098  21.9962478   9.0833795
  26.3294554  63.3466482   9.7801822  26.2945461  64.1558552   9.2700851
  25.4682493  63.2868385  10.1936793  44.0096664  43.4051466  11.3931489
  44.0781736  44.2792654  11.0091555  44.6984911  43.3806610  12.0573413
  82.3851204  85.0571156  83.9929771  82.4962997  84.3047619  84.5742130
  83.2166004  85.5279922  84.0490055 108.5043812  78.0739737  61.4849138
 108.7417984  78.8310242  60.9494352 109.1126251  78.1027651  62.2234488
  93.4353924  95.7251644  78.9201069  93.0742931  95.7343006  79.8065376
  93.0646801  94.9393082  78.5185623  18.9951527  11.5404320  69.2929935
  19.8110354  11.8965018  69.6448183  18.5228801  12.3048067  68.9629602
  11.8048465  38.4070992  86.0989952  11.6038704  37.7169824  85.4668713
  11.5339768  38.0453157  86.9427776  92.9099178  96.4482975  84.4785690
  93.3493996  97.0175362  85.1102734  92.0154858  96.3683224  84.8099804
  37.7930999  58.0400944  19.6758974  38.5116220  58.5133886  19.2564321
  37.1568751  57.9000282  18.9745903  44.7237730  86.9087791  61.6366959
  43.8561916  86.6662788  61.3130713  45.1505280  86.0733795  61.8270350
  90.5896664  20.9316707  71.0838556  90.4513836  20.1001906  71.5374517
  90.7205772  21.5687490  71.7861605  79.8693085  46.9596767   6.5429533
  79.9747372  46.8771458   5.5951643  79.4663239  47.8192663   6.6651654
   2.1720022  11.4175618  70.1570225   2.8800145  11.2811303  69.5274687
   2.5267848  12.0483613  70.7834816 107.7046299  90.9342575  86.1081028
 108.2320023  90.6913090  86.8690777 106.8016148  90.7714462  86.3806534
  60.8871269  82.2953415  54.2847395  60.0233984  82.0689869  53.9398241
  61.3127422  81.4516449  54.4372749  64.7481966 102.2495842   8.3090967
  64.4503260 102.9858875   8.8432848  64.0172338 101.6317558   8.3239245
  44.3971157  59.3930674  87.1787453  44.3459606  59.0572691  88.0736446
  45.1100445  58.8965178  86.7769909  87.3239899   4.5616567  38.5026169
  87.4186993   3.6186045  38.6364651  87.0272732   4.8951441  39.3493605
 100.0329876   4.4535896  70.4181147 100.9541893   4.3576181  70.6598043
  99.5510292   4.1922623  71.2027550  16.3975704   2.5928149  94.2585182
  15.7609129   2.0206186  93.8301563  16.4864874   3.3386952  93.6652374
  77.9522800 109.0248966  81.8891525  78.8902950 109.1452217  81.7412281
  77.6006794 108.8011265  81.0274506  80.9977341 102.2694206  70.6637812
  81.0202789 101.3239956  70.5158091  81.2692833 102.3756886  71.5754843
 103.2024384  40.8887911  25.7404590 103.4968853  39.9793315  25.7896614
 102.6419258  41.0009432  26.5082335  93.7533188  98.0364609  90.7201385
  93.4256554  97.1371746  90.7324791  93.8786793  98.2329845  89.7917557
  69.7778988 101.4812469  64.8419666  69.6895647 102.3653126  65.1981449
  68.8789606 101.2022114  64.6679640  63.7190387   0.2717675   0.9444564
  63.9495918   0.4782475   1.8502410  62.8520748  -0.1296245   1.0035188
  48.3818531 105.2423191  47.7356672  47.6935768 105.7334328  47.2869825
  47.9225636 104.7597885  48.4230137  32.8370643  52.1205425   6.1670452
  32.3039818  51.4961052   6.6591179  33.3138561  51.5825748   5.5349904
 107.6583767   1.7820093  81.3483810 107.0605850   1.0452995  81.2213612
 108.4898376   1.3762124  81.5938187  92.3165703 102.3741341  66.8995047
  92.3038673 102.0267296  67.7913475  93.0562878 101.9334698  66.4813328
 104.2654037  29.5445704  83.2600880 103.9941502  28.6496282  83.4643745
 103.4446049  30.0215721  83.1376362  89.5835781  89.7876740  51.2678528
  89.5969105  90.0011539  50.3348541  90.1755810  90.4246998  51.6677952
  54.8148727  37.9667640  27.9677320  55.0977898  38.6162543  28.6114359
  54.3728113  38.4780741  27.2899604  88.4214973  71.0537624  79.2004728
  89.3585110  70.8676624  79.2603874  88.1645107  70.7155848  78.3426666
  74.6121693  86.8741798  93.6502266  75.2701569  86.1959648  93.4975719
  74.9980497  87.6693153  93.2826710  42.2220802  41.4283609  15.6594014
  41.5992689  40.7031727  15.7088423  41.9109821  42.0561457  16.3115811
  82.1639442 102.0794010  73.2412672  81.5781975 101.6226292  73.8449907
  83.0351448 101.7442417  73.4532022  95.4533386 105.4993820  59.0869904
  95.8464146 105.2786160  59.9313784  95.3575230 106.4515114  59.1090107
  48.1803846  90.7805920  83.0014420  49.0689278  90.7231903  83.3527660
  47.7239943  91.3721180  83.5997963  42.6042557 105.1009178   5.7012892
  42.7280712 104.6417141   6.5319747  43.4855795 105.3708649   5.4431647
   3.0416855  18.0374217  72.0715237   3.6665708  18.6740518  72.4185848
   3.3940151  17.1875072  72.3356104  87.9781914  95.5800438  54.7062445
  88.6807251  95.6124401  54.0569210  88.4309673  95.4891014  55.5446672
  74.4051647 100.1937962  92.1085262  74.9653864  99.5016479  91.7573643
  74.9744701 100.9618473  92.1557808 110.7561016   5.0026149  77.6198149
 110.8601093   5.9465790  77.7395916 111.4719677   4.6168041  78.1247139
   6.6351682  94.6892071  81.8838787   6.8839914  95.6092930  81.7957878
   7.2941482  94.2134190  81.3783073  69.3199587  83.3142948  59.7836685
  68.6735535  83.5665607  60.4430246  69.7270918  82.5236034  60.1376200
  66.2000036  67.3732710  88.4665680  66.3914204  67.8952360  89.2457581
  67.0046568  67.4108362  87.9495049  53.5039330  84.9227715  43.3543015
  53.5632133  84.9424934  44.3094587  53.0821466  85.7504177  43.1233644
   0.6579793  13.9563966  83.3053398   0.8318888  14.5641065  82.5865364
   0.2381303  14.4937778  83.9770317  36.4655805  43.4133101  56.5045500
  37.0378184  43.9326906  55.9397268  36.3185096  42.6031446  56.0164595
  93.7040520  23.5322452  79.6584892  93.2127285  22.8772831  79.1626501
  94.6109867  23.2281041  79.6239233  97.7740288 105.0999165  86.1294270
  98.1658840 104.3891811  85.6219387  98.2277393 105.8873081  85.8287716
 110.4876995  22.2486997  84.3903828 110.3728294  21.7809010  85.2175426
 109.6084881  22.5501561  84.1616058   2.7034163  15.5486548  95.1279449
   3.3978149  16.1836421  95.3035450   2.6126650  15.5503547  94.1750622
  72.0899630  98.1964016  84.0799809  71.8146849  98.8396454  84.7332001
  72.8490114  97.7656460  84.4730759  60.8308461 109.9900304  88.3098030
  60.8701184 109.4504647  87.5201511  61.0812524 109.3967279  89.0179825
  49.1310740  55.6810141  24.3230391  49.3378305  55.9498262  25.2181506
  49.5697689  54.8366308  24.2191601  24.0459871  12.3417711  57.7009535
  23.8977337  11.4058006  57.8359032  23.2352805  12.7574575  57.9945278
  53.0086565  68.3831167  11.9040501  53.9637566  68.4404039  11.8768644
  52.7392864  69.1275358  12.4421096  37.2344828  45.7451916  26.8907714
  37.9303575  45.7023621  26.2349081  36.9023848  44.8491812  26.9464850
  56.4716244  58.4294271   3.5481220  56.3204145  57.5867891   3.1199479
  56.4269733  58.2339191   4.4840789 101.7790031  92.3474693  54.4631815
 100.9905243  92.8736782  54.5959759 101.9684410  92.4314594  53.5286808
  69.4361782 105.9502125  54.9616718  70.2902222 105.9242439  55.3931427
  69.2363596 105.0337887  54.7707033  38.3540177   5.6074625  62.9211807
  37.9566669   5.4161203  62.0716333  38.1600142   4.8371750  63.4552717
 109.0000153  93.7985802  79.7272205 109.6751785  94.0484428  79.0963936
 109.1857052  92.8808212  79.9258852  44.5211554  21.6816926  34.4506359
  44.6823502  21.5953064  33.5110688  44.8470402  22.5544906  34.6703053
   0.9268959 108.6038017  76.2766552   1.4643976 108.2750416  76.9972372
   0.0262768 108.4337997  76.5527296  93.3423233 107.9998684  88.3294296
  94.2723942 107.7992058  88.4339237  92.8919029 107.2088623  88.6254978
  38.7563086  84.3754768  76.3881826  39.5728731  84.7771263  76.0913038
  38.8057423  84.4102764  77.3434734  46.5438175  18.9296842   9.7190434
  47.4881935  19.0098906   9.8530406  46.4354086  18.9365911   8.7680280
 113.3605480  26.2477183  81.8604946 113.6234570  25.6370401  81.1718845
 114.0647030  26.1973715  82.5069141  63.0450916  15.6829035  18.6455727
  62.8669643  16.3142622  19.3426287  63.5221720  14.9754667  19.0793478
  17.6826763  10.3811789  85.6197834  17.5815117  10.3751588  84.6679592
  17.4603426  11.2754953  85.8786201  87.1123505  27.3919034  78.0226040
  86.3947582  27.9139137  77.6637077  87.8702641  27.9759002  77.9954147
  93.8847923  90.3510284  53.8662624  94.7619247  90.5009460  54.2189550
  93.5956764  89.5381260  54.2807913  83.2981859 110.0381669  60.1583910
  83.3983521 109.6274759  59.2995930  83.9004062 109.5568576  60.7257557
 110.8689308  99.0884304  91.3441849 110.5927563  99.9184608  91.7327976
 110.5130577  99.1097164  90.4558563  90.5720615  97.8117752  67.1273232
  90.1946735  97.4148369  66.3423061  91.4053059  98.1795025  66.8328619
  90.9726810  21.9401264  67.8685331  90.5051041  22.5502634  68.4389162
  90.6294632  21.0788560  68.1065273  93.1349277  95.6402683  88.9756203
  93.1064224  95.0888062  89.7574806  94.0620613  95.6740761  88.7400341
  26.0328865  92.4706650  69.7049761  25.4171133  91.9750690  70.2448273
  26.0072136  93.3572483  70.0649118   9.8471916   3.7990808  72.1866179
  10.7493496   3.4917665  72.0977259   9.9250299   4.7494513  72.2700930
  72.7266741  84.5168591  78.4779406  72.8655291  85.0029945  77.6651525
  73.5888910  84.4928932  78.8929653   3.3322246   1.0312546  89.9442482
   3.3379562   0.1960553  90.4118347   2.4267490   1.3350857  90.0077438
   2.5706255   6.1024517  56.9287062   1.6139863   6.1030287  56.8959522
   2.7812552   6.4792681  57.7830362  81.8056583  81.9671440  89.1858768
  81.5011597  82.8070736  88.8423157  82.7595234  82.0456982  89.1998291
  84.7805977  72.9469109  63.9616728  84.8662949  72.5221920  64.8151970
  83.8809109  72.7627230  63.6917448  33.4760833  27.7718759  47.7934647
  33.6959767  27.9566741  48.7065506  33.3180022  26.8280768  47.7714634
   9.7289699  13.4643328  57.8616953   9.9641365  14.2078161  58.4168148
   9.9502331  13.7482250  56.9747448  83.1754494 108.6928558  84.1163445
  82.8041840 109.5667553  84.2375088  82.9555416 108.4622383  83.2137394
  79.2468786  96.0345459  84.2963219  79.3572378  96.8068027  83.7416363
  78.3101416  95.8420181  84.2552185  52.5338697  44.2246723   3.8666186
  52.2409153  44.4604540   2.9863816  52.3602724  45.0045633   4.3937483
  68.7065506 107.9080582  83.6129475  68.3430958 108.7022114  84.0046883
  68.5898924 108.0307102  82.6708317  39.5760727  46.2032080  25.5302095
  39.4774413  46.1438751  24.5799541  40.0320053  47.0327616  25.6723523
  43.5596800  67.3880243  89.0921307  42.7265501  67.2657204  89.5472813
  44.0068150  66.5463257  89.1807079  10.3821170  10.9538519  57.1039915
  11.3391459  10.9610057  57.0873928  10.1414323  11.8265522  57.4149513
 111.2679482  33.2781124  71.5366840 110.3536510  33.3516049  71.8103361
 111.7625046  33.7039590  72.2369003 108.6187077   3.3140987  90.5975056
 109.2703056   3.4810740  89.9164963 107.9975510   4.0379542  90.5173016
  86.9017029 106.7106438  86.7887115  87.1682358 107.4156284  87.3787880
  86.5905666 107.1605492  86.0032082  47.1835518  99.4096375  70.3654289
  46.8865776 100.0896835  69.7608042  48.0594206  99.1794109  70.0554562
  94.5165730 102.1523857  60.2411079  95.2649593 101.6970444  59.8553467
  94.7852039 102.3344803  61.1416149  67.3810244  84.4447327  82.5099564
  67.2652435  85.0955391  83.2022572  67.9392433  83.7737560  82.9029083
  13.4510767  56.0989332   1.9985379  13.7444246  55.6937122   1.1824645
  13.8749385  56.9571447   2.0056905  23.2006025   0.4636699  37.3817730
  22.3467398   0.8865203  37.2904062  23.1788445   0.0655830  38.2519937
  83.4975719  68.5334253  69.6988583  83.1041813  68.8900614  68.9024401
  83.4627819  69.2548752  70.3269768  30.7918620  13.8495934   0.9087991
  31.3082457  14.1341329   1.6628656  29.8848462  13.8846684   1.2126538
  45.4972363  85.0885391  67.3543024  46.3856792  85.1908684  67.0130968
  45.0725079  84.4892406  66.7405701   2.0410056   9.0331900  56.6911793
   2.8855953   8.5868460  56.7518187   1.4593750   8.3909774  56.2843609
  23.4652758   6.5801734  58.9247370  24.2436552   6.5532947  58.3682919
  23.6885166   7.2000748  59.6190834  72.7228117  34.4323945  25.2700114
  72.0478487  34.9550390  24.8369980  72.2428370  33.8981986  25.9028578
 106.3415051  25.0410271  73.2268333 105.4469299  25.2590203  72.9652405
 106.2361717  24.3934703  73.9238310  35.9562397  39.4220042  18.7012887
  35.3928566  39.9318075  18.1191099  36.4371109  40.0788021  19.2048872
  86.9326305  74.3025970  62.7824163  86.2550831  73.7755680  63.2059860
  86.7502975  75.1988697  63.0647039  73.5810328  89.0825558  86.4741802
  74.3397951  89.0018177  85.8962536  73.4271049  90.0251961  86.5370941
  74.6135187  79.0269089  73.3706665  73.7320805  79.0895462  73.7385988
  74.5367146  79.4124794  72.4979305  61.0786629  52.6435471   9.3895131
  60.9926033  53.3452463   8.7441856  60.1952219  52.2844696   9.4721460
  19.5237219  19.7950280  65.4793930  18.6075580  20.0425458  65.6043339
  19.9687731  20.6180501  65.2774191 114.9808121  16.5872574  68.3704138
 114.9038887  16.8233454  67.4459791 115.1862335  17.4114025  68.8117933
  24.2848301  28.4030700  74.2874336  23.4398985  28.8131738  74.4721985
  24.6286917  28.8899350  73.5384607  46.3875198  35.3967595  12.3533928
  45.4432869  35.3870797  12.5101137  46.5427113  36.2117028  11.8758821
  74.4331312  11.8649888  78.7461996  74.2209244  11.3830471  79.5455313
  73.6287546  11.8356907  78.2281733  67.6832485  73.9058208  79.2788887
  67.3551321  73.8033819  80.1722336  67.5733042  73.0414009  78.8827515
 102.6414248   0.9289921  64.6168613 102.6106879   0.5321778  63.7463331
 102.2092196   0.2920331  65.1858234  69.0767145  89.9732304  66.5053654
  68.8777781  89.6470547  65.6277180  68.4561682  90.6892776  66.6411304
   4.0367332  17.5710320  58.5476589   3.3824283  17.8898191  59.1693449
   4.1528800  16.6483247  58.7742758  71.1953306   2.3522460  76.5321970
  72.0781898   2.1440732  76.2264872  70.9769106   3.1736773  76.0920000
  77.3716116  74.3892145  79.2491341  77.5171757  74.2409992  80.1835251
  76.4711618  74.7093296  79.1948318  59.2330217  94.3915176  82.6831913
  59.4478130  95.1014519  83.2882404  58.6069632  93.8491535  83.1629086
  80.3351021   2.5649780  69.9140310  80.7342243   2.7885020  70.7548428
  80.7661247   3.1418377  69.2834091  95.8958912 108.7882710  88.8880730
  95.7249737 109.4533443  89.5549202  96.3697910 109.2553139  88.1999397
   1.4609942  15.0945091  80.9051418   2.2143903  15.4680037  81.3624477
   1.8392420  14.4498265  80.3071880  53.7566423  65.5678415   4.5723185
  53.4830999  66.2030125   3.9105296  53.5869122  64.7156000   4.1709360
  22.4603009  24.6135998   2.1998939  22.3638463  24.5057416   3.1460941
  23.2289767  25.1751924   2.0999727  87.2313213 102.0986748  52.6836061
  87.9117680 102.6364899  52.2786474  87.5260448 101.9793320  53.5864496
 110.8512115  93.4929371  35.8811784 110.3859806  93.0079842  36.5628076
 111.5407276  92.8959274  35.5906987 113.9232063  38.1296372  31.8055010
 114.0461636  38.8154745  32.4618101 113.3714867  38.5346413  31.1363149
  91.0134506 107.8316307  92.3029518  90.7954311 108.2866764  93.1163597
  91.1141968 108.5307789  91.6569805  49.3060446  77.5575352  89.5035172
  50.0539351  77.8904390  89.9995613  48.7278891  77.1799850  90.1663971
  71.2138176  86.8047047  64.5921326  72.0840836  86.4162540  64.5028210
  71.3737202  87.7482128  64.6136141  62.1455622  94.5343304  75.8279467
  61.2122488  94.7462368  75.8438349  62.5832796  95.3840923  75.7775021
  67.5259495 106.0609531  89.0512943  68.2649994 106.3296604  89.5970440
  67.8419018 105.2875233  88.5841656  46.6533661 105.0539398  83.4770393
  46.6284084 104.7376823  84.3801403  47.4046421 105.6465340  83.4514713
  83.7603951   1.6709781  91.4019012  83.7645721   1.5528168  90.4520321
  83.1784344   2.4167870  91.5479279  39.2166686  57.0051622  24.8896050
  39.5214128  56.3711929  24.2404199  39.1347694  56.4994526  25.6981730
  12.6530921   5.8283013  94.7586155  12.8724694   5.1435232  94.1268063
  13.4984243   6.1957502  95.0167370 105.3787327   7.0087522  44.3981266
 105.3747940   7.0196801  45.3552532 104.4986057   6.7187619  44.1582918
  93.0815697  92.4860287  80.3092003  92.8861427  92.7870369  79.4218302
  92.2670174  92.6221943  80.7931423  55.5320358  52.2011328  11.2778389
  55.5480576  52.9421377  10.6721306  54.8067808  51.6568375  10.9712803
  79.5165300 102.2620964  90.2697659  80.0622749 102.7946663  89.6911716
  79.7915316 101.3617420  90.0966549 109.8102474  11.3594449  88.7662029
 109.0611935  11.5120471  89.3422890 110.4751682  10.9720242  89.3354321
  51.2679052 107.1685600  11.8761170  51.9987583 106.8274975  12.3916388
  50.5273342 106.6096687  12.1115530  25.5386996  18.7988651  79.5187235
  25.3329945  18.5125983  78.6287975  26.4924455  18.7400842  79.5747948
  47.1194267  37.8519416  11.1314929  46.8221855  38.7345457  11.3526034
  48.0333233  37.9653716  10.8704221  71.7142582   1.7345466  90.3551769
  71.4358473   2.6424617  90.2351284  71.4226198   1.2875420  89.5605850
  88.2779408  85.1072884  90.9934711  88.3313942  84.7045517  91.8601704
  88.4894180  86.0286140  91.1440277  -0.1390304  14.7368348  75.6313801
   0.7314263  15.1214540  75.7344007  -0.2438297  14.1727281  76.3975573
 109.1936874  38.0845881   7.8024089 108.3850098  38.1493258   8.3104277
 109.6750164  38.8840723   8.0154341  30.9088326 101.8109417  91.8535328
  31.2429857 102.6659966  92.1245670  30.7530665 101.3435555  92.6742077
  10.8295405   0.4212907  89.4187641  10.1273918   0.2499889  90.0463581
  11.2254047  -0.4360627  89.2623425  16.0516286  94.3230343   8.1163245
  15.7079375  95.1640415   7.8149813  15.6411505  94.1887665   8.9705563
 100.1128197  78.0432987  16.6176271  99.6161079  77.6221228  17.3191416
 100.0377369  78.9799595  16.8000090 111.9115393   5.0599398  95.1560994
 111.4398591   4.4294228  94.6118621 111.5604060   5.9113563  94.8952774
  35.1710153  91.1884403   1.3571018  34.9496531  91.4726067   0.4702644
  34.6472168  91.7516994   1.9268441  75.6549597  94.4065475  36.9493628
  75.3425598  93.8412666  36.2428951  75.6958771  95.2789879  36.5577006
  60.9025288  84.7286034  72.2283316  60.6440639  84.0005112  71.6632557
  61.6381836  84.3875599  72.7369928  53.3515549  26.5236521   1.6598365
  52.5632000  26.8857694   1.2553629  54.0475273  26.6980052   1.0262318
  37.4148488  41.2753248  19.9424148  37.0734048  42.1172523  20.2437520
  37.9612184  40.9660006  20.6649327  91.2033844  53.7395096  18.7345529
  91.7335510  52.9755783  18.5074735  91.2909031  54.3241405  17.9817080
 103.1958294  21.6683412  78.3820868 103.1548500  21.7045450  77.4264526
 103.2269764  20.7334661  78.5852432  70.3175640  81.9620514  72.6132202
  70.3634596  81.0062599  72.5892258  69.8421907  82.1588230  73.4203959
  77.0623875  93.5780144  74.1222620  76.2436342  93.5475159  74.6171761
  76.9229984  94.2653179  73.4707832 101.6913700   7.9110581  70.1130915
 102.0840359   8.6626875  69.6691418 102.2330189   7.7830404  70.8918476
  53.7726068  88.8597393  69.0741014  53.0656528  89.3023586  68.6044931
  53.8983536  89.3826866  69.8658943  48.3574963  90.3111362  62.2764921
  48.0878496  91.1110687  62.7277374  47.6692390  90.1576710  61.6292095
  37.5915742   1.9460122  46.3042736  38.0326009   2.7320582  45.9819984
  36.7612267   2.2651355  46.6577005  66.6993089 103.1159711  95.0606620
  65.8159967 103.4337116  94.8734978  67.2771616 103.7889695  94.7009504
  14.0118575  18.1446314  24.4766235  13.3980334  17.4102318  24.4662714
  14.7397399  17.8561902  23.9259672  91.3736057  76.1175632  75.7146692
  91.1718178  76.9645596  76.1122990  90.5872631  75.5914211  75.8597898
  12.1111810   8.5089970  88.8321114  12.3411250   9.2142522  89.4370651
  12.7449977   8.5887378  88.1192684  69.9791431  90.7495308  79.0836143
  70.7924604  91.0068798  79.5178032  70.2548122  90.1350021  78.4034634
   9.0048814   1.7017674  75.2636337   8.6626697   1.7044994  74.3697023
   8.6247259   2.4816346  75.6680107  47.2271490  79.3269110  85.1199055
  48.0343008  79.0358162  85.5441666  47.4722767  80.1335716  84.6666431
  19.6449888  55.0909090   7.6287401  20.0541544  55.8255625   7.1714669
  19.2304432  54.5779324   6.9350260  78.1981965  70.0987351  94.9825418
  77.8260584  69.8836494  94.1272736  78.3368822  69.2503798  95.4036018
  79.3154287  76.4723063  64.8693037  79.0609598  76.9417667  65.6637096
  78.5114527  76.0429192  64.5769262  80.0015163 105.6001759  88.1807423
  79.1826487 105.9096909  87.7935791  79.9394226 104.6458054  88.1412601
  70.4596663  95.3481770  78.8297987  71.2922525  95.2947617  79.2990303
  70.4461670  94.5673561  78.2762957  62.3175955 104.8902035  56.2648296
  63.2548809 104.9264050  56.4556456  62.2621679 104.4427204  55.4204845
 110.0769138  11.6668653  83.2159519 109.5096302  12.2922707  82.7650642
 109.7085762  11.6013873  84.0970135  75.5036211   9.7472882  52.9075336
  76.3585329   9.7436160  53.3380508  75.6624985   9.3399155  52.0560408
  62.9657745  46.3921833   3.0058020  63.4492207  47.1109009   2.5984219
  63.4010220  45.6007719   2.6888540  61.1206102  83.8958359  87.7504635
  60.4923487  83.2997036  87.3428535  60.7232475  84.1246891  88.5906792
 112.1722889  20.7823873  70.3964329 111.3012791  21.0972500  70.6381845
 112.2914505  21.0771227  69.4935703  86.7611408 104.8653412  54.2466831
  87.3836422 105.5450821  53.9884663  86.1725426 104.7821045  53.4964466
  29.6659732  70.3648663   5.2412516  30.5026078  70.3209877   5.7042295
  29.6215463  69.5453358   4.7486743  89.2441082 107.5433922  73.8193274
  88.3702278 107.1571064  73.8772440  89.7318649 107.1412277  74.5380783
  97.2571945  27.6972866  69.8038912  97.0406628  28.5138774  69.3538666
  96.7471409  27.0290279  69.3461657  74.9899483  97.9626465  69.2957687
  74.8335314  98.2398796  70.1984930  74.7399282  97.0387840  69.2822123
  10.2432442   4.2565700  90.7471371  10.0022900   4.3218109  91.6712189
   9.4085121   4.2837167  90.2794647 106.4609241 105.6661320  63.4337902
 106.9952106 106.4542294  63.5321808 105.5671883 105.9937191  63.3329821
  64.4870138  60.1531982   8.9392740  64.7474957  59.2562056   8.7300354
  64.6616077  60.2409077   9.8763210  95.0318813  65.5173016  77.3669338
  95.8971119  65.5224276  76.9575787  94.5483303  66.2078571  76.9135714
   4.0499964   8.5798711  71.7304850   4.0957740   7.7992702  71.1783981
   4.8328179   9.0810817  71.5019894  96.6648674 104.4494534  82.1233654
  96.6501617 104.9334908  81.2976933  97.1921253 104.9920464  82.7097321
  84.5976734  76.8220901  89.0147972  85.0338840  75.9705353  89.0431786
  84.7407913  77.1936464  89.8852539 101.4789009 109.5655060  84.2928696
 101.9848537 110.2214813  83.8133430 101.3460159 108.8576221  83.6624050
  67.7765036  81.8676376  44.3006802  68.0223513  82.7693272  44.5074368
  68.5203648  81.5240192  43.8058805  80.0473595  94.3734741  73.8885593
  80.6849384  93.8781071  74.4026995  79.2101955  94.2093277  74.3226528
   3.8258168  94.3475437  63.5411501   4.7040552  94.6903515  63.3755875
   3.9425796  93.7271309  64.2606544  65.5710220  91.4394283  75.4242659
  65.2712870  92.2895527  75.1022673  65.3304529  91.4358425  76.3507366
  47.1203279 108.9608765  78.7399673  47.6289082 108.5198784  78.0594540
  47.5138903 108.6669064  79.5615005  86.7014313  15.8259654  72.5522852
  86.2709522  14.9717069  72.5863934  86.7521858  16.0314882  71.6187859
  17.3798609  44.2158270  60.2280760  16.8135715  44.1233969  60.9942389
  17.6651025  43.3234024  60.0320101  23.2998419 106.3604546  79.5999718
  24.0145206 106.1854553  80.2122116  22.5056791 106.2693691  80.1265049
   1.1942068  45.3084469  85.4200172   1.7434761  44.7311068  84.8897266
   0.5852515  45.7008553  84.7943878  37.3688388  27.5844955  75.2345133
  36.7285490  28.1507969  74.8037434  38.1105256  28.1601191  75.4210281
  72.3533678  95.0705147  80.5781078  72.5295544  95.3563213  81.4744949
  72.1106052  94.1486073  80.6640053  84.9072456  98.5847378  61.6770458
  85.1713181  97.6667881  61.7393017  83.9661598  98.5521126  61.5052414
  23.4240389  25.8696961  40.0294924  22.6584768  25.3088307  39.9046803
  23.0664492  26.6920495  40.3643036 106.1766052  33.5926127  46.0666275
 105.6070423  33.7070727  45.3058815 106.5700054  32.7287269  45.9434795
 105.9702015  10.0078237  76.3808680 106.5897274  10.6003845  76.8066502
 105.3830338  10.5853260  75.8930588  66.0360336  68.1269693  10.6282151
  65.8230019  69.0377998  10.4251492  65.3494215  67.6184654  10.1966798
 102.3621941  97.0621109  50.3189135 101.4781666  97.4288082  50.3350973
 102.2793388  96.2176228  50.7618618  88.3847618  99.2949581  65.0771475
  87.8989410 100.0503731  64.7461605  89.2593479  99.3884754  64.6995306
  64.3962002  99.8000431  71.4522028  64.4870234  98.8493156  71.5162230
  63.4523630  99.9468422  71.3901424  91.2768745  19.3233585  42.6033688
  90.4621601  19.8257637  42.6107693  91.1063766  18.5819912  43.1843472
  92.2847271  14.7508490  72.9780293  91.5499401  15.3300202  72.7758598
  91.8747139  13.9382970  73.2744694  83.9810181   3.0503449   3.2623997
  83.5024261   2.5734076   2.5843829  83.9116669   2.4958421   4.0395412
   6.3459778  22.4449301  90.3273582   6.1497891  22.5256181  91.2607574
   6.0046047  23.2510805  89.9403000  89.1633511  64.5064974  14.8511052
  89.0949440  65.4610968  14.8682976  90.0275135  64.3216372  15.2189040
  80.4293104  93.8168216  94.0723019  79.6795459  93.2553721  94.2694169
  80.2673383  94.1288996  93.1820189   7.3635828  30.3999710  66.2605715
   7.7016902  31.1396122  65.7557487   7.7158731  30.5299139  67.1410513
   5.6283081   9.1608322  53.0496264   6.4389449   8.6947203  52.8450823
   5.0392121   8.9454716  52.3265648   4.7995615  15.0608385  56.7697430
   5.5624664  15.6348419  56.7009878   4.3161803  15.2064741  55.9565020
  46.0361481  13.6128676  88.4507465  45.9593248  12.8255820  87.9117584
  46.3746929  13.2973886  89.2886543  93.4225178 102.1906376  86.2186623
  93.4353733 102.9333878  86.8223000  94.2006016 102.3109341  85.6742859
  94.0868568  99.8055267  92.9547119  93.9476681  99.4037819  92.0971203
  94.0344524 100.7469082  92.7895451  16.8323600  19.5377326  52.0064545
  17.5202131  19.5883274  52.6701832  16.3646781  20.3694463  52.0823240
  81.6744232 104.8775196  46.1298370  81.4930153 105.5177116  45.4417467
  81.7845249 104.0490532  45.6631899  20.4870272   8.0870712  62.0816612
  20.3201389   8.2793659  61.1589479  21.2321901   7.4863786  62.0701647
  67.7494669  95.5227375  43.3321714  68.0793715  94.6493149  43.5432005
  68.1004286  96.0846996  44.0230083  96.6101837  23.8712072  65.7151604
  95.8243847  23.5110664  65.3040123  97.1021652  24.2599797  64.9919367
 109.3319798  36.6971874  80.7461452 109.3846321  35.9001660  81.2736130
 109.2807770  37.4058986  81.3875103   0.9830090  41.9234896  68.5331059
   0.9507257  41.2919140  69.2516470   0.0691869  42.0348883  68.2709026
  21.2092066  22.2932124  75.7529688  21.5591598  23.1004333  75.3759241
  21.9819832  21.8133688  76.0509586 104.6463108 106.5850735  68.6384249
 105.5485058 106.8792534  68.5130310 104.1241264 107.1758461  68.0957031
  23.4558392   5.2598304   2.7926609  22.5516510   5.5699098   2.8429511
  23.8113356   5.6837767   2.0115569 110.8560753  20.6005573  75.1008368
 110.6648540  20.4543805  76.0272837 110.7228374  19.7458518  74.6910143
  49.0425014  76.3570166   6.6007614  49.7564459  75.9273052   7.0717895
  48.2560968  76.1258030   7.0950657  66.2850666  46.8201542  10.2861392
  66.5219593  46.4412975  11.1326516  66.8609333  46.3832903   9.6586382
  82.0275974 100.8968735  92.6900673  81.2886333 100.7269001  92.1058750
  82.6879501 101.3034248  92.1289349   2.1632549  15.6853056  41.1991930
   2.4880451  14.7922754  41.0841179   2.2651507  15.8584905  42.1350622
  83.8287926  19.5019853  52.4751711  84.1607475  20.3988552  52.4344110
  84.5730209  18.9590871  52.2151232   7.9453552  19.8813486  57.0217371
   8.5177690  20.1362538  56.2981367   7.9164255  20.6529188  57.5874901
   7.0534813  12.8861630  58.4925795   7.9838347  12.8711605  58.2679701
   6.6076410  12.6362407  57.6832581  92.3530674 104.9141216  57.3281717
  91.9906044 105.6621647  56.8535471  93.2905865 104.9405289  57.1368647
   9.1380179  25.7209969  40.2701139   8.6890697  25.0074410  40.7234526
   8.5487515  26.4699745  40.3597260  39.2813039  99.6037197   8.4534454
  39.9255562  99.4734955   7.7575886  38.4375095  99.6046638   8.0015171
  49.2084265  42.3968458   6.5903145  49.0733624  41.5485382   6.1679816
  50.1539755  42.4467087   6.7306137  45.5329418  46.3084269  21.4844632
  44.9946213  46.2649250  22.2747469  45.3506374  45.4887056  21.0250592
 102.9081345  92.1790791  88.1607151 102.8359318  91.9885635  87.2254562
 102.1016026  91.8292809  88.5393715  27.0601153  58.0781364   5.0058430
  27.4557495  58.2519770   5.8599430  27.7182460  58.3671665   4.3737361
  74.4922972 100.7584381  86.3836765  74.2810965 100.9793854  85.4765892
  74.3215370 101.5636158  86.8723011  79.6864319  64.7382021  68.4965181
  80.1189423  64.5011473  69.3168688  78.9284277  65.2566290  68.7664986
   7.3579997  30.5759358  44.5962191   7.4850482  29.6434379  44.4214582
   6.8939781  30.9030056  43.8255453   5.5079877  14.1991246  72.4406242
   4.6078557  13.9016461  72.3083305   5.5333865  14.4871557  73.3531094
 108.2538700  11.1364257  52.7338839 108.1153297  11.0298061  51.7927837
 107.3920345  11.3714254  53.0777454  12.5861084  12.4256420  80.0961304
  12.8969836  13.0132866  80.7847977  12.2229779  11.6756296  80.5671406
  55.0737286  13.3714175  56.2031794  54.5072317  13.3041775  56.9718122
  55.0671911  12.4928784  55.8232355  99.3403530  75.0275564  86.9608307
  98.5173988  75.1289701  86.4826107  99.9357319  74.6230364  86.3298702
  94.0703011   2.3467463  80.3292561  94.0759373   1.7086439  79.6157932
  94.6510601   3.0461609  80.0296402  61.8965340 103.4515953  53.6723757
  62.6413441 102.8517342  53.7131500  62.0460033 103.9654350  52.8787422
  95.3188610 109.1774273  85.4346371  95.3614712 108.2259178  85.5297184
  96.0704708 109.5016098  85.9308529  81.9608498 100.2271175  79.8340321
  81.3904190 100.9411526  79.5494461  81.6568565  99.4660664  79.3394327
  56.6017151  11.2332082  46.3217354  56.3848877  11.5696621  45.4522419
  57.0127726  10.3850567  46.1547041  84.2619705 107.6373768  74.9064875
  83.3979988 107.2666740  75.0863981  84.3793488 108.3085442  75.5787945
 106.2238693  20.8302259  66.4929771 107.0465374  20.3432417  66.4449501
 105.9536552  20.9344935  65.5806494  25.2502155  41.2932014  61.2252903
  26.0284781  41.8378115  61.1072254  24.7181892  41.7705441  61.8619442
  11.9284403  11.6073453  67.3750257  11.2311053  11.7164707  66.7284584
  11.8260813  10.7086837  67.6883316  49.2316198  53.9891577  13.9480829
  48.8107967  54.6333790  14.5173991  48.9416456  54.2230701  13.0663610
   0.8389648 103.8237572  72.2302246   1.6478571 103.4659672  71.8642902
   0.1460507 103.2774544  71.8592119  57.4333811  90.9146214  69.2697668
  57.9870844  90.4339123  68.6544991  56.5526199  90.8494854  68.9006519
  67.7283430  50.1547909   3.4458584  68.0798054  49.9306822   4.3075311
  67.4201155  49.3218470   3.0888781  83.4336185 104.0779114  70.1560450
  83.0604458 103.1968307  70.1819515  82.6905632 104.6577358  70.3231192
   7.7617604  41.1203098  74.4316483   7.9372412  41.9637871  74.0145350
   6.9287968  41.2465048  74.8860502  82.9413891 108.5288239  78.3633232
  83.4089470 109.0328026  77.6972771  83.2880688 108.8515663  79.1951180
  49.0445089  53.5593319  10.9197581  49.8094511  53.9801025  10.5272686
  48.6506891  53.0618811  10.2030420  79.2180538  71.4910555  25.7089686
  79.7359753  72.1688986  25.2747869  79.7506237  70.6990623  25.6358290
   2.8088415  13.8760900  66.6771078   2.4030450  14.5793605  67.1840286
   3.4335500  13.4750175  67.2813511  78.8705587 104.6753693  67.7671909
  78.8231754 104.8124027  66.8210363  78.9104605 105.5580330  68.1353378
  19.0202081  11.7882967  25.6747341  19.4053817  12.6278269  25.4236150
  18.0756092  11.9298398  25.6120467 114.1307926  22.8059030  43.1577682
 113.7818718  22.6303768  44.0316582 114.3839169  23.7287140  43.1818438
  44.8449993  99.5447063  65.8836555  45.7869673  99.5994949  66.0446787
  44.6269369  98.6272240  66.0476589  14.2217624   1.2072866  83.6271858
  14.3069732   1.0959786  84.5740700  14.9725854   0.7388334  83.2624245
   9.9971884   0.5145786  56.8491936   9.4679320  -0.2472576  56.6131306
   9.4360185   1.0242791  57.4335957 102.5821018  14.0315497  80.0323963
 102.8043461  14.3744195  79.1667843 103.0555916  14.5968258  80.6427193
   6.9006914  24.1640902  76.7682838   6.0076225  24.4914460  76.8755150
   7.0485753  24.1769409  75.8226633  39.7831988  48.2398367  51.6178226
  39.8948216  49.1142035  51.9909954  39.5126510  48.3981705  50.7134104
  35.8939242  40.3633547  63.9072132  35.8688211  41.1053038  64.5114613
  35.3295183  40.6271029  63.1804991  41.1576319  34.6283102  66.5327644
  40.3692055  35.1547098  66.4003992  41.4752007  34.4460416  65.6483650
  54.3941021 104.5258427  70.0610542  53.8978243 103.7097263  70.1234865
  55.3019953 104.2667198  70.2185822  45.8017159  58.1998348   9.2138845
  46.0705900  57.2964048   9.3804723  45.5269527  58.5295916  10.0694537
  97.7849674  53.9316320  39.8934531  97.1786499  53.9390755  39.1528082
  98.6238575  54.2004395  39.5189548   1.3939241  13.0783021  60.3760910
   1.6082773  12.3542833  59.7878027   1.0094230  13.7442553  59.8060942
  81.2192631  99.6448612  52.9908419  81.4153957  98.7995148  53.3947563
  80.7343102  99.4236660  52.1957779  62.5124121  48.5705233   7.5523424
  63.0479431  48.2068348   8.2574439  62.4458599  47.8619385   6.9122577
  30.2388191   4.2174512  78.9351702  29.5239210   4.0056098  79.5354033
  29.8637486   4.8604658  78.3334351  27.3549390  99.9113655  79.1021013
  27.0938444  99.4377327  79.8918676  28.3034205 100.0102997  79.1847086
  27.0213938  38.9235044  41.9508457  27.9481840  39.0946746  42.1181583
  27.0012927  38.0313087  41.6047001   1.2454454 103.7567520  79.9072313
   1.9605283 104.3798542  79.7782898   1.2841806 103.5369873  80.8380604
  31.2207866  32.9314423  78.2503080  31.3147998  32.2668099  77.5679207
  30.3127289  33.2247996  78.1754494  66.2102556 101.2839222  35.3260946
  67.1023655 101.0616207  35.0597262  66.0166693 100.6796455  36.0427594
  61.0073805  31.2322974  49.7175980  61.0078764  30.4161429  50.2177238
  60.0899553  31.3671303  49.4801426 107.9965496  61.2046719   6.3093990
 107.3122120  61.7311430   5.8961815 108.1639004  61.6419983   7.1442473
  66.3600826  10.3106010  88.1398201  66.7012978   9.7417063  88.8298702
  66.8372536  10.0458920  87.3533916  53.8901567  71.0961342   6.0403478
  54.0109205  70.2146149   6.3932908  52.9514599  71.2622547   6.1268800
  45.9212494  16.6924250  14.8960543  46.2972879  17.4990869  14.5437419
  45.9220171  16.8220639  15.8444345  93.4178925  78.7401581  42.8328753
  93.7387085  79.2892361  42.1174526  93.8217831  77.8860950  42.6789618
  86.9280910  97.1764565  94.7203541  87.1558857  97.7693176  95.4364872
  87.0333767  97.7049160  93.9292336  67.0535421  60.4266500  12.7517176
  67.7123547  60.9623146  12.3098350  66.2848330  60.4752922  12.1834302
  22.7094769  27.8844142  61.3584137  22.8485227  27.5469947  62.2433138
  23.5615683  27.7954173  60.9315062  10.9233725  18.9167631  71.9131708
  10.4280353  19.1249132  72.7053499  11.8189287  18.7764430  72.2206116
  37.9371285  12.5358176  78.3990526  38.3544874  13.0625129  77.7174091
  37.0194507  12.4822998  78.1321573  45.1732349  19.2162538  62.3162842
  44.6439314  19.5931840  61.6134310  45.9160280  18.8131046  61.8668842
 105.6500912  94.6534920  62.0551825 104.7899914  95.0474548  62.2009373
 106.1268806  95.3034592  61.5389967  45.2230167   9.1438806  92.4593925
  44.3209362   9.4454902  92.5667286  45.7155228   9.6184921  93.1290245
   2.1790793 109.2347391  55.6722975   2.9623893 108.8936797  55.2406359
   2.4023727 110.1386368  55.8944273  30.1601243  17.6394284  73.3024979
  29.8933792  16.7520154  73.5424471  31.0364199  17.7352393  73.6755371
  47.2662544  25.3267455  68.7301826  46.8173409  26.1514521  68.5442543
  48.1860304  25.5720401  68.8305473  19.5474350   9.4802302  64.1508961
  19.6477687   9.2704284  63.2223749  20.1547813   8.8898820  64.5968246
   4.2149013  99.7650146  66.8575525   4.2146856 100.5348015  66.2886333
   5.1405686  99.5998478  67.0366859  62.8448296  25.4073906  87.2166348
  62.2826052  25.8713102  87.8370476  62.7183199  24.4816780  87.4246693
  44.5765352  15.3389144  69.5705557  45.4366827  15.5423725  69.2031527
  44.5603609  15.7974625  70.4106188  97.0388699  21.4749503  52.8780079
  96.4386654  21.8734026  52.2477531  97.9099846  21.6442561  52.5192261
 105.7701302  89.1996861  77.6626539 106.5627384  89.7252083  77.7714252
 105.0600815  89.8408413  77.6313496  84.4166088  92.1960068  47.3763657
  83.9471817  92.8124046  47.9384375  85.0594044  91.7859268  47.9550457
  73.5667849 105.4922390  48.0990314  74.1179228 104.9433422  48.6568737
  72.7646255 105.6193256  48.6056089  92.9415512  71.1017227   1.5854895
  92.5256348  70.2468538   1.4739752  93.6560440  71.1053753   0.9485226
  59.4852877   2.8612888  63.6745882  59.3979549   3.4537432  62.9278612
  60.3261805   3.0942535  64.0681028  24.0475821  18.8577855  64.5875502
  23.5647559  18.7897527  63.7638521  23.7370014  18.1176543  65.1090670
 101.4959049  96.5036011  58.3547401 100.6077766  96.6015720  58.6980629
 102.0348358  96.3381767  59.1283178 102.4656010  99.0343761  58.1508350
 102.2499180  98.1027031  58.1096840 102.0930672  99.3299961  58.9815331
  12.9221594  30.9759355  90.4992771  13.2884657  30.6453800  91.3195133
  12.7619195  30.1912165  89.9750900 108.2646084  76.8720531  84.5667362
 108.2058239  77.1264935  85.4876328 107.8546429  76.0078573  84.5303917
  29.9034691  16.9679379  69.0653992  30.2737784  17.6384425  68.4913540
  30.6305051  16.7093992  69.6318007 111.3926315  97.4455070  66.5955067
 110.8142185  97.1892929  65.8771610 111.9449520  96.6779137  66.7437172
 114.2212200  15.3561664  78.1007242 114.5981598  15.4451215  78.9760733
 113.2944489  15.5656850  78.2166052  27.4921727  36.4533663  12.4418497
  27.4924183  36.6418958  11.5033996  28.4010386  36.2288117  12.6412737
 110.8953857 100.2069664  70.6007290 111.7840195 100.5324554  70.4571199
 110.5394650 100.0859356  69.7204447   3.0281079  98.9600468  28.7303948
   2.7878380  99.7973728  29.1271305   2.2662508  98.7168503  28.2044101
   0.8801804  15.4687631  58.9038992   1.1492882  16.3205087  59.2479086
   0.1320897  15.6638980  58.3395338   8.4277779  41.3942909  58.8090038
   8.5193801  40.6670952  59.4246531   7.5691885  41.7685556  59.0064430
  18.3769143  22.5509572  53.7810659  19.0952039  22.3708820  53.1745481
  17.5935161  22.5517917  53.2310486  91.8412399 105.5086327  87.7289200
  91.3202477 105.0690460  88.4008980  91.6349602 105.0391293  86.9206810
  72.1121883  90.6145859  73.8535357  71.8659115  90.7044697  72.9329395
  71.3832188  91.0049248  74.3356943 113.5706806 106.9253254  84.9710369
 113.1879616 107.8021717  84.9410343 112.8176117 106.3346577  84.9557781
  18.0151165   5.9175164  84.3993759  18.4773397   5.4263377  85.0785923
  17.1129644   5.6011534  84.4470024  24.5963621   6.4648026  89.3266869
  23.6464548   6.5550345  89.4026279  24.8712993   7.2358912  88.8306332
  54.4421721   4.4439685  42.2884941  54.4655371   5.2055085  41.7090607
  53.6867142   4.5977619  42.8558207  78.2446766  92.4108696  94.5689678
  77.5552988  92.6635933  93.9548683  78.1879330  91.4563751  94.6131897
  58.4375334   9.1498721  65.4909658  58.4700727   8.3268619  65.0032902
  57.6731682   9.6064591  65.1395273  17.5422573 108.7297821  45.8561277
  17.6663828 107.8027821  46.0598183  18.2118642 109.1799164  46.3711357
   2.0111410  87.8549576  73.3689308   2.1828730  87.7807045  74.3076658
   2.5917816  87.2085667  72.9673529   6.5128005  62.3603487  59.9046516
   6.1830330  61.5891123  60.3658295   6.0054171  62.3895216  59.0935135
  17.5913632  20.6508899  49.5263910  17.6226163  20.2911425  50.4128647
  16.7516303  20.3531027  49.1765261  23.9742732  20.9945607  48.4017038
  23.5300398  21.8420386  48.3758450  23.6331677  20.5220675  47.6423454
  11.0857749 108.2561874  59.0290165  10.3975153 108.6695099  59.5502615
  11.0659456 107.3361778  59.2925119 106.7844963  84.8169994  47.6007700
 107.3209000  85.6028366  47.7054453 106.8569374  84.3639088  48.4408236
  81.7560101  97.3453331  66.5800333  81.6923237  98.2535839  66.8754482
  82.6896191  97.1410084  66.6334677  21.6069174  53.8709593  35.9732866
  22.2358632  54.5925283  35.9738159  21.9544721  53.2498217  36.6133046
   4.0603152  16.7728519  38.7623858   4.3909174  16.0217130  38.2697177
   3.1866708  16.5059972  39.0483332   2.4472305  94.6987820  87.8693295
   2.1165079  93.9588165  87.3601151   3.0056751  94.2998409  88.5365772
  26.6218090  33.1507587  79.8259830  27.3094583  33.6422110  80.2752495
  26.9712210  32.9979467  78.9480352  17.7439559   2.9852870  58.0515385
  18.0497634   2.9404902  57.1456099  18.4419549   3.4456626  58.5174608
 115.5163479  97.1315956  74.0972614 115.7330704  96.2296677  73.8610554
 115.1478004  97.0664978  74.9782658  64.5378923  43.4732389  20.7154059
  63.9201832  44.1975307  20.8157396  64.0055323  42.6864338  20.8327293
  17.8406703  19.4597113  62.7325964  17.6683450  18.9524531  63.5258341
  17.4882102  20.3290629  62.9229403  20.6889725  72.3784351  90.3837204
  20.0053859  72.4642372  91.0482311  20.3034592  72.7564383  89.5933247
  58.7013531  46.0449028   1.8019277  59.5926714  45.9113836   1.4795071
  58.3712673  46.7858076   1.2936604  -0.1301517  98.1840134  69.8238182
   0.4167901  98.8085842  69.3473673   0.4332886  97.8593636  70.5262232
  19.9674881  19.5592535  60.6394386  20.1587129  18.7161219  60.2285957
  19.3494499  19.3497658  61.3397074 101.1216927 102.4785328  79.2767859
 100.5543137 102.8541374  79.9500179 101.0122490 103.0564308  78.5216093
  19.3319905  46.7891073  36.5142345  20.1108503  46.4114714  36.1055803
  18.6758292  46.0937881  36.4672136  49.7994947  29.6177506  75.1871014
  49.3521500  29.7752595  74.3556547  50.3698826  30.3781104  75.2999973
   2.0413089  61.0127211  81.2002563   2.2553550  60.6428671  82.0567703
   1.4507730  60.3722763  80.8036137 113.2498169  34.1802478  84.7086430
 113.6340618  33.6728024  85.4235554 113.2275581  33.5731053  83.9689732
 115.1140213  17.3185313  53.6491346 115.0121021  16.3685787  53.7077475
 114.4049168  17.6691973  54.1880560  30.4576707  18.5018039  24.0939665
  30.2841473  19.4406462  24.1625071  29.8450232  18.0994296  24.7095847
  16.0011756 106.5596676  76.1493921  15.2628016 107.0544815  76.5046310
  16.7756402 107.0100975  76.4863634  55.6913614  17.6321363  58.3730173
  54.7878027  17.7493870  58.6663914  56.2123680  17.6874030  59.1740990
  23.2942009  23.9244318  18.2104039  23.6874747  24.7662807  18.4403050
  24.0326929  23.3164001  18.1763816  31.9819069  35.7382584  67.2274303
  31.8797398  34.8106098  67.0146751  32.1019793  36.1665606  66.3798618
  95.2505779 103.5073948  41.2842989  94.7140503 103.5357571  40.4921055
  96.1501408 103.4492588  40.9623718  28.1262970  31.4643669  55.3762484
  28.6386657  32.2613597  55.5123043  27.4060774  31.7367864  54.8076487
   3.0518571  13.4492993  52.9657030   3.5978884  13.0398428  52.2945642
   3.1531778  12.8863394  53.7331963 115.2107716  33.3050919  56.0923338
 114.3466568  33.5471010  56.4254570 115.7488155  33.1990314  56.8768644
  68.6299276  39.5302892   8.5565192  67.7427864  39.7285175   8.8563836
  68.8984871  38.7779379   9.0838504  34.3582082  36.2169266  73.6070251
  33.8234639  36.6483760  74.2734528  34.4514108  36.8709707  72.9143667
  14.3053746   6.7148775  78.8961601  15.1014411   7.2374099  78.9934731
  14.4036198   6.2846386  78.0467653 101.1270905  90.3169918  78.7954044
 100.3122807  90.0423431  79.2159843 101.6552830  89.5198441  78.7530136
  31.3639832  14.3322217  53.9028072  30.9934807  13.6914265  53.2958984
  31.1860538  13.9705765  54.7710180  38.0026317  15.1766706  60.4967260
  37.9919195  14.2492819  60.2599382  37.6496291  15.2008748  61.3861275
  38.3845901  38.2090974  94.4285583  38.6038661  37.5433326  93.7767029
  37.7279091  37.7914929  94.9858761   8.3311963  12.8431296  61.3195753
   7.9780447  12.9878640  60.4417515   8.5340005  13.7206018  61.6438341
  10.4112387  97.9807281  78.2235765   9.6612805  97.9243183  77.6314497
  11.1663926  98.0838490  77.6444912  63.8951302  20.8865285  80.5812645
  62.9762602  20.6202793  80.5492687  63.8786888  21.8261838  80.3995800
  51.9959593   4.5856112  93.5824871  51.8435287   5.5252028  93.4816647
  51.2078857   4.1755214  93.2261181 101.9744301 105.6416607  62.8131866
 101.1571598 105.3668118  62.3975468 102.1623230 104.9528885  63.4507751
  14.3388808  30.9230065  39.4059658  15.0705624  30.3667903  39.1385746
  14.7394657  31.5998983  39.9514771  13.2089901  11.4431012  86.5730953
  13.0024850  10.6333005  87.0397949  13.7245679  11.1596084  85.8180809
  16.5736556  15.6581199  61.7313528  17.1373904  15.3570199  62.4439335
  16.7779851  15.0739491  61.0011292  21.9361567  30.5856943  60.3599167
  21.6459632  29.7289205  60.6728935  22.3864937  30.3997684  59.5359850
   8.5623199  47.1665764  69.7612667   8.8644266  47.8318834  69.1429377
   9.2065060  46.4622831  69.6889830  42.9606581  36.5013337  78.8254309
  42.3554516  37.1497989  78.4656382  43.4559059  36.9791484  79.4907570
 115.6471443  99.0507221  51.4897013 114.9013519  99.6150494  51.2858582
 115.2531338  98.2204437  51.7573547  17.2820246   4.1360188  70.6345224
  17.7256954   3.6460096  71.3268185  17.1528494   5.0093985  71.0043240
  53.1145000   7.2399986  83.3459091  52.6239347   7.8727233  82.8212833
  53.7437296   6.8581182  82.7339745  43.7790060  22.2286797  70.6386566
  44.5189476  21.6319537  70.5262470  43.0219412  21.7328691  70.3267908
 103.8947201  19.7944725  46.3783264 103.0338573  19.5178068  46.6923380
 104.0984917  19.1844535  45.6693935  89.7065544  10.2515781  79.5382881
  90.4912758  10.7771826  79.6938181  89.6802998   9.6374714  80.2720547
  12.1753025  33.1900907  68.3049345  13.0701530  33.4503794  68.5233927
  12.1441221  32.2533512  68.4993076   0.4389248  20.2436185  50.8110189
   1.1554585  20.3506589  50.1854420  -0.3492202  20.4561067  50.3111076
  33.7408090  10.0676525  76.5236616  33.6238647   9.1228878  76.6235399
  33.9787722  10.1836157  75.6037951  51.1108780  58.3518887   6.1289507
  50.8846474  58.8549900   6.9112134  51.1822271  59.0072966   5.4349905
  13.9535332  73.0428028  85.7402611  14.8525250  72.7866983  85.5342102
  13.6831439  73.5850334  84.9992371 111.1033249  23.5868621  75.3775787
 110.4657745  23.7782121  76.0654259 111.3744068  22.6845360  75.5465508
  44.0918305  32.9991592  94.6973474  44.1486314  32.4772133  95.4977064
  44.4569448  32.4340691  94.0164679  63.9796400  19.5228231  87.1506691
  63.5040522  18.7435734  86.8628788  64.1521358  20.0094295  86.3446331
  43.1483030  25.4250574  53.3103800  43.1692648  24.8327804  52.5587177
  42.9050016  26.2735224  52.9400492  32.8981924  22.8732443  77.5734854
  33.6673117  22.4493670  77.1926785  33.2401609  23.3621716  78.3219767
  93.7662411  77.3927116  58.8936710  92.8850555  77.7071619  59.0958452
  93.6729717  76.9417858  58.0545092  11.3518298 107.8289890  69.7513962
  12.1361709 107.9545689  69.2172861  10.7447195 107.3601151  69.1788530
  15.7306135   2.9682836  16.3008451  15.2668929   3.7084273  16.6924846
  16.0773921   3.3115447  15.4773474  52.6008081  69.7677422  15.4354382
  53.3379650  69.9150944  14.8428857  51.8514633  70.1606321  14.9878287
  26.8660045   0.7812178  83.9602375  26.1992002   0.8229783  83.2747650
  27.0186758   1.6947562  84.2018318 108.3453941  23.3858061  68.8453531
 108.9484501  23.9879179  69.2812634 107.5210953  23.8694310  68.7917662
  76.8831587  98.4534931  37.7876997  77.5128269  97.7447319  37.6557350
  77.0981169  99.0941525  37.1097851  74.8302555  68.2844448  20.1972055
  75.6083059  68.6837196  19.8080325  74.9463749  67.3450661  20.0546861
  33.9755273  35.7583165  46.8767738  34.4681525  36.5321827  46.6034842
  34.4677901  35.0211382  46.5155554  66.9536018  78.6227322  20.2158689
  66.9242048  77.8275871  20.7479525  67.8867292  78.7804937  20.0723052
  30.2067709   4.1799030  58.8063431  30.4546857   4.2603162  57.8853083
  30.0937629   3.2392308  58.9427137  63.5754919  13.7030852  67.7065754
  63.3474827  12.7946889  67.5089407  63.4015322  13.7953317  68.6433029
 106.2973785  59.9523354  78.4633350 106.5805340  59.7825909  77.5648642
 106.9820118  59.5635414  79.0077162  37.5417686 104.5168209  67.7237654
  38.1277323 104.7821045  67.0148945  37.6406789 103.5660172  67.7731180
   1.3712843   9.9158078  10.2760541   0.4482714   9.8071456  10.5051208
   1.8296465   9.2729139  10.8171856   7.3248559  27.2513175  61.8743992
   6.8483198  27.0131230  61.0791588   6.6475886  27.5609422  62.4757910
  42.8299761  22.4935269  49.0202713  42.2416162  21.8571448  49.4265747
  43.6193943  21.9927192  48.8147449  34.1803837  40.0277996  92.3955727
  33.3609009  40.2147341  92.8535366  34.0646458  40.4172754  91.5288830
  26.3808227  53.2050467  79.1583538  25.4907846  53.5110188  78.9838648
  26.9328260  53.7319565  78.5805225  21.0938644   7.3347217  19.7823942
  21.6279721   7.5694293  20.5412579  21.7291617   7.1076232  19.1033840
  97.2555161  92.6578522  64.9917316  96.3086700  92.5176430  64.9985600
  97.6062489  91.9015694  64.5213652  55.3372622  62.7014351   7.6563442
  55.3809404  63.6321735   7.4371409  56.1801338  62.3484468   7.3713905
  39.7123170  21.9058585  22.9416060  39.3373156  21.2905788  22.3114991
  39.0415120  21.9938636  23.6187387  19.4231546  35.5170584  53.9754391
  18.5063314  35.5482221  54.2487383  19.4402182  35.9848166  53.1404877
 113.7911224 104.1213894  77.5039625 114.5938587 104.5041847  77.8579521
 114.0438461 103.7890053  76.6426373  11.9546008  30.3836846  75.8944035
  12.1337044  31.1795354  76.3951826  11.0585606  30.4967952  75.5773067
  33.0690527  19.6333611  47.6993418  33.1422544  20.3354430  47.0528460
  33.8834190  19.6828592  48.1999302  44.2771769  18.4446228  31.8604159
  44.4944000  17.5310302  31.6749620  43.3597660  18.5300922  31.6010189
  72.8547287  99.9246502   8.3566320  72.5777769  99.9394417   7.4404919
  72.0432663  99.8059654   8.8502669  43.7721014  17.3042214  67.3422527
  43.7240791  16.6101313  67.9996443  44.1567230  16.8809450  66.5747023
  45.8408546  16.7249262  54.5590162  45.7966757  16.8574274  55.5059719
  45.0035620  16.3189304  54.3346596 104.0426159 107.9232025  94.2822647
 103.3647823 108.0246449  93.6140728 104.7805023 108.4375858  93.9549255
  23.0971479  14.2667675  63.2930040  23.8500047  14.3518293  62.7080202
  22.9376817  13.3242500  63.3426332  62.8985786  42.1979046  94.2019272
  63.0173540  41.4489937  94.7861004  63.6924648  42.7200460  94.3174458
  98.8382912 109.2468262  83.2196999  99.4809532 109.7606373  83.7087917
  98.8041687 109.6631241  82.3584461  36.3567019  11.6614187  80.8610058
  36.2082887  12.4812794  81.3322067  36.6829371  11.9337809  80.0033188
  53.3169651  28.8745594  51.2005663  52.6142693  28.3984637  51.6430378
  53.4168673  28.4275246  50.3600836  44.8067951   7.3812622  70.1802588
  44.1247892   7.1116805  70.7954168  45.4989386   6.7290962  70.2891254
  35.2370572  20.8326769  62.5285816  35.3662729  20.0741434  61.9592285
  35.1363850  20.4602408  63.4045887  39.6673131  18.1503499  57.9481173
  40.0353003  18.6798394  57.2406864  40.4294109  17.7629495  58.3786583
  55.9502649  28.1880140  72.0341873  56.7620134  28.6929941  72.0819950
  55.6560421  28.2926345  71.1293554  32.0215845  16.3043344  76.3383150
  32.5825024  15.8283079  75.7259369  32.6275945  16.8355107  76.8548727
 113.6234188   5.1615775  29.5506787 113.6161232   4.3382722  30.0388861
 113.3660889   5.8231181  30.1928449  18.8623536   7.8444952  82.6682091
  18.7732613   7.0670700  83.2194805  18.8156557   7.5097185  81.7726707
  94.6910095 107.2840405  91.2398815  93.8506222 107.6389313  90.9499836
  95.3409767 107.7413559  90.7063675  47.1123838  14.6324492  81.7053890
  47.4283409  14.5030630  80.8111477  46.5934420  15.4356098  81.6621971
  92.7532482 100.1981926  41.9702768  93.5855103  99.7513103  41.8157959
  92.6986504 100.2804089  42.9223776  17.9090238   9.0862060  43.1960917
  17.3425949   8.4617299  43.6493254  18.4990120   8.5406780  42.6759529
  94.7086334  47.3406315  22.9694533  94.5812702  46.4217615  23.2054281
  95.6453896  47.4133539  22.7866554  25.2395010  20.8458018  68.0670214
  24.5731068  21.1867499  68.6635971  24.8348880  20.8977127  67.2010946
  62.5942278   3.1313974  22.7051973  62.4527121   2.1855220  22.6661491
  63.4668016   3.2274750  23.0867958   9.3066245  38.2185483  67.5425053
   9.9252576  38.4834075  66.8617916   9.3507695  37.2623801  67.5473833
  15.5160911   0.8285702  86.2651157  16.2992389   0.5921925  85.7680988
  15.2764995   0.0269498  86.7301178  37.0256114   4.3863186  57.3423576
  36.6219664   4.8392138  56.6019583  37.5707126   3.7096173  56.9408941
   2.2150519 100.1651287  54.9679756   1.4667426 100.4897785  55.4688454
   2.9706496 100.3307533  55.5317783  63.5711670  22.6982355  64.7366667
  63.9684963  23.0343342  65.5400324  63.1874943  23.4690857  64.3185520
  25.0652719  38.2283974  86.4671898  24.8355365  38.8820934  85.8067799
  25.0325251  38.7044644  87.2969627  26.9389176  57.7612305  62.2154522
  26.3620090  57.0841217  61.8620014  27.7398324  57.2937012  62.4524832
  28.9310884  35.0597048  68.3890390  29.7475219  35.4994011  68.6263895
  29.1927290  34.1612959  68.1874514  36.0374236  16.0454774  80.9179115
  36.3129044  16.3694012  80.0603485  35.2405334  15.5457520  80.7404995
  81.1172771  99.7398853  82.5949383  81.2767982 100.5284405  83.1135559
  81.3340282  99.9950695  81.6982079  23.6800170  12.8326869  72.3373747
  24.4377542  13.1788516  71.8659544  23.5594654  11.9517052  71.9830132
  20.3361893  17.7810609  70.6146812  19.6098065  18.3008575  70.2705669
  20.0647783  16.8728042  70.4818726  32.3494768   9.8351198  64.0976429
  32.0768571  10.6940460  63.7749100  32.6755095   9.3799669  63.3212614
  29.8664880  13.1282020  78.4953308  29.1846347  12.4840450  78.3046150
  29.9267387  13.1375122  79.4505882  62.6422644  28.9325142  87.7229214
  63.1098986  29.6068835  87.2301960  62.2381878  29.4046760  88.4509373
  29.0577364  71.4785480  88.1651878  28.2641983  71.4278412  87.6323128
  28.9913559  70.7355261  88.7649727  40.7909107  17.4758863  72.1332836
  41.6151237  17.8538966  71.8266726  40.6542778  17.8671551  72.9961109
  40.7975531  21.0623646  65.7039356  41.6191006  21.5066481  65.9134626
  41.0045862  20.1304531  65.7740116  51.2127304  31.0746789  68.7481737
  51.7750883  31.7078733  68.3020210  50.3763771  31.1296535  68.2858753
   2.9942268 109.2316055  64.7700357   2.8932792 108.2848549  64.6715212
   3.8151181 109.4329739  64.3207979  30.4276633  22.3766279  84.9278355
  30.0602341  21.8383336  84.2267895  31.0985613  21.8234515  85.3279877
  18.1241775 106.4257050  56.1220598  17.7424371 106.0659504  55.3213835
  17.7081132 107.2819328  56.2220526 114.5583344  98.1896877  35.8804536
 115.3597736  98.7127304  35.8995891 114.2240906  98.2960987  34.9898434
  28.3520484  42.1056032  32.8681278  27.4575973  41.7869186  32.9890776
  28.2923269  42.7126598  32.1304631  47.7221489  23.7510228  79.9491167
  47.3020029  24.3823338  80.5331993  48.6281633  23.7079144  80.2549171
  56.8589163   7.8215683  84.5302105  57.3107052   7.0262849  84.2479992
  57.0134354   7.8627372  85.4739571  55.3079891   4.6636575  84.9670124
  55.2692747   4.8648596  84.0320015  54.4211578   4.3789196  85.1876545
  20.2670431  20.1605654  92.7448845  20.0588274  20.8170366  92.0801067
  19.4523823  19.6719444  92.8623962 102.0975590  97.1300316  85.3944874
 102.0968342  96.7686939  86.2808704 102.2967339  96.3822174  84.8311615
   9.4990861  21.4168096  46.5199423  10.0561011  20.6423998  46.5990353
   9.6543449  21.9069862  47.3273182  10.6577158  51.2699747  72.7597475
  10.2404714  50.6736612  72.1380138  10.1758265  52.0914602  72.6639891
  53.2075310   6.9899899  51.6412497  52.5497055   7.5994384  51.3064909
  53.7908840   7.5340760  52.1703100 113.5364056  47.0791626  74.0384817
 113.8669682  46.2099028  74.2650700 112.5839520  46.9871998  74.0634203
  10.5292428  38.6681151  35.2811480  11.1263752  39.3506956  35.5873299
  10.7907343  37.8857136  35.7666373  42.2100687   1.3717507  59.8554993
  42.6012993   1.2529746  58.9900112  42.3963785   2.2835365  60.0794792
   8.7339920  20.1426101  61.1067486   8.2425994  19.5593643  60.5283070
   8.6560863  19.7424257  61.9727802  48.1843328  33.7482285  66.2906122
  47.3338413  34.0807152  66.5775776  48.4099817  34.2890906  65.5337906
  57.9525328  16.4508057  67.4414015  58.0618572  15.5006218  67.4792051
  57.7709675  16.7071700  68.3455801  46.9560432   3.2110414  34.7684598
  46.8616199   2.4536365  35.3460860  47.1083689   2.8339213  33.9019656
  94.4441700  55.6921530  16.3728917  94.6185780  56.6333199  16.3773155
  94.4540215  55.4423904  17.2968805  16.9677794  45.1514769  32.9209423
  16.0637081  45.2668953  32.6284242  17.4363112  44.8563433  32.1401715
  39.1645217  22.1858144  63.8870049  39.4303155  21.6640687  63.1297970
  39.6312881  21.7927361  64.6244669  17.0550060  20.7880330  55.5105305
  16.1230850  20.9941292  55.4378748  17.4957716  21.5117145  55.0652885
   1.6341677  14.2203200  25.2098775   2.2571179  13.6093581  24.8163176
   2.1583039  14.7342777  25.8241749  20.8610225  24.9080563  85.6292343
  21.4679503  24.7985768  86.3612747  21.3480806  24.5978212  84.8658466
  26.7513871  28.7308550  65.1737928  26.0260653  28.1562471  65.4186773
  26.4204144  29.6149945  65.3318596  63.3799410  55.8150244   3.8416415
  62.4988079  55.6667995   3.4983322  63.7739754  54.9433041   3.8744795
  22.1688581  17.0468152  83.9765453  22.5982094  16.6457343  84.7322083
  21.8202496  16.3073063  83.4787178  47.2109699 101.1136055   5.4316580
  46.6044807 101.6199875   5.9720159  47.4098206 101.6880417   4.6922582
  63.9889574  18.2157433   3.0382824  64.6027279  18.4801781   2.3530138
  63.6141968  17.3943877   2.7202281  28.1966352  38.8590479  63.6128426
  28.6671185  38.2400107  64.1711187  27.7014017  38.3071375  63.0075598
 110.5031109  21.0768867  51.3440704 110.4925728  21.2615871  52.2832251
 110.4623795  20.1222444  51.2872458  31.1102891  13.9622855  32.9946303
  30.6661081  13.3659387  32.3918843  31.7865515  14.3811452  32.4622226
  20.3993249  18.7073982  87.0991993  20.2243471  18.6283028  86.1614513
  20.1398921  19.6027625  87.3165607  29.0844059   3.8356081  70.9395218
  29.5402098   4.1105434  71.7350626  29.7055674   3.2589254  70.4947472
 116.6657066  56.5387774  74.7322702 115.7136631  56.6019535  74.8088026
 116.8436623  56.7114925  73.8077545  32.9705811  46.5401936  72.5392485
  33.4071684  46.9504070  73.2858086  32.9574943  45.6071424  72.7524996
  60.0443220   8.6246520  73.7575006  60.5859327   8.9794856  74.4624710
  60.3464460   7.7222538  73.6543894 114.4454861  55.9325314  78.9890146
 114.5419407  56.8604898  78.7749481 113.5313892  55.8426332  79.2584038
  17.6565599  15.7937503  53.3443403  17.7589607  15.9873188  52.4125242
  16.7751455  16.1003852  53.5572147  32.8923011  31.4392495  57.2902155
  33.6708689  30.8845854  57.2410917  32.6786256  31.4700580  58.2227564
  43.4791851  61.5297890   8.4930277  44.3520546  61.6382313   8.8706124
  43.6387634  61.3698816   7.5628692  72.8840780  75.8843851   2.8034136
  72.1694374  76.4016485   2.4319801  72.9700184  76.2046719   3.7013346
  60.6137228  36.4400005   1.3115273  60.7429457  37.3857403   1.3830134
  60.8386660  36.1013484   2.1780986  43.8806248  25.0866318  80.8758640
  43.6265516  24.4027829  81.4955711  43.3386374  25.8388734  81.1138153
   7.7753270  34.3553972  39.3823433   6.9489121  33.8730073  39.3584371
   7.6438665  35.0224829  40.0560951  23.2363439  70.3010464  72.3318768
  22.8409338  71.1305857  72.5997353  23.6941123  69.9906158  73.1131029
  44.0229416  60.3782606  23.9991212  44.7356415  59.7400093  24.0295696
  44.1953611  60.9651136  24.7354007  45.0285292  18.3833528  76.3779640
  44.4393969  19.0418935  76.7460394  45.8945513  18.7894118  76.4147425
  33.4279251  16.3068461  62.2936869  33.1150484  15.7722366  63.0234385
  32.7200127  16.9307899  62.1331072  22.2089171  37.8445745  88.0069923
  21.8227148  36.9695091  87.9703426  22.7445626  37.9032946  87.2158718
  62.5468922  74.5753860  21.4476037  62.8751469  73.9716864  22.1139550
  61.9009495  75.1115513  21.9075084  26.6657281  12.4319637  59.4626856
  26.0810447  12.7822685  58.7906265  27.1983147  11.7833447  59.0023899
  50.9772635  98.5634041  64.6800423  51.4538622  99.0012264  65.3853083
  50.9597683  99.2040730  63.9690781  26.2062883  21.5783095  46.7140150
  27.0164728  22.0098758  46.9852781  25.6332231  21.6426897  47.4780035
  41.9952774  28.1333280  69.7497606  42.0236921  28.0758500  70.7048130
  41.2353325  28.6853933  69.5655441  48.5649347  43.0841827  57.7115631
  47.8355742  42.8175259  57.1519518  49.1576862  43.5539198  57.1248531
  46.9943190  21.7768383  60.0695801  47.4676323  21.6271019  59.2511797
  47.3553324  22.5959468  60.4086351  25.0024486  40.2525377  69.0957785
  24.5421839  40.9210300  68.5883236  25.4895997  40.7459354  69.7556829
  20.5657887  35.5861425  63.6620378  20.9803295  35.0367165  64.3272591
  19.7255981  35.8354926  64.0469217  74.5856333 104.9204063  70.7823563
  75.3845692 105.2608776  70.3798485  74.7917509 104.8666096  71.7155552
  17.1959305  32.9319692  72.1008492  16.9629109  33.7876630  72.4610138
  17.3263931  32.3761821  72.8691673  14.0374911 104.2183876  75.6022644
  14.2850506 103.4163189  76.0622931  14.8691773 104.5991898  75.3202677
 109.9806976  21.6835809  67.8014565 109.2682266  22.2406960  68.1148767
 109.5408821  20.9206796  67.4262571  23.2933450  16.3260221  86.4837265
  24.2269421  16.4084327  86.6782379  22.8990006  16.0548079  87.3126793
  46.1792326  66.8202305  12.3263419  47.0811129  67.0654058  12.1196175
  46.2637901  66.0672522  12.9112351  35.3424382  42.5117111  94.6863270
  35.6107545  42.7076626  93.7886429  34.3881083  42.5844479  94.6723461
  63.0529690  71.8787861   4.6227103  63.5783386  71.0804844   4.5685554
  62.5843382  71.9141340   3.7888235  30.6969285  28.3567429  76.4319897
  31.5442300  28.5745931  76.0435963  30.1173449  28.2218766  75.6822395
   7.5732595  41.0176039  21.8132830   7.1763074  41.3278198  20.9993887
   7.8963590  41.8112373  22.2398806 109.6995640  27.6414227  62.4914789
 109.3163490  27.0740843  61.8225145 110.3933716  27.1125078  62.8853130
  19.6142244  98.5122967  85.4621124  18.6924350  98.3689594  85.2476597
  19.5984495  98.9123535  86.3315582  30.1931167  29.5870042  72.5798035
  29.9818301  28.8723230  73.1804895  30.7949924  29.1970229  71.9458532
 115.1091194  92.8289986  50.2301311 115.7265282  93.0412388  49.5301390
 115.6402588  92.8300953  51.0264540  34.9873550   0.5437745  78.4252119
  34.5294101  -0.0474559  77.8277445  35.3448684  -0.0300895  79.1027784
 108.2438850 106.6863537  55.4271555 107.9596233 106.9819069  56.2920666
 109.1550350 106.9727325  55.3636932  54.5288277  73.0441904   8.6729240
  55.4415703  72.8120232   8.8439012  54.3009806  72.5541067   7.8829026
  37.9107928  24.9714303  41.0682821  37.6379752  25.5779004  40.3798056
  38.4891939  25.4892564  41.6282272  36.8020916  16.6578114  83.5910606
  37.4760342  15.9954643  83.7437916  36.4579988  16.4533341  82.7215672
  57.9384136  29.8761153  71.9632483  58.8475513  29.6409702  71.7777443
  57.9741907  30.8030081  72.1995115   4.4874659 108.3953667  42.7161407
   5.1339847 109.0976238  42.7874851   5.0084847 107.5934887  42.6742887
  59.8974562  31.1417747  75.9614611  60.7632971  30.7428002  76.0473013
  59.6395874  31.3499880  76.8594503  23.1583667  30.5809808  57.6863909
  23.6287117  30.3500009  56.8853569  22.9283881  31.5030336  57.5716829
 104.1792202  77.4170399   5.1132983 103.8188648  77.8452158   5.8898580
 104.9243450  77.9631424   4.8627314  64.1385794  29.8780942  85.3334236
  64.2081976  29.7224927  84.3915176  64.9444151  30.3425026  85.5596638
  35.8419824  14.1042089  57.5416327  35.5516481  14.2776287  58.4370995
  35.2408528  14.6081805  56.9931030   5.2320850  16.5124774  61.3613653
   5.3975773  16.1792529  62.2432995   4.7312665  15.8182287  60.9330797
  27.7968192  44.4774818  69.7150993  27.7145600  45.0879240  68.9824104
  27.4659920  44.9637604  70.4702902  23.7813497  54.4192886  52.4391699
  22.9128146  54.5162010  52.8296661  24.3515348  54.1974688  53.1753206
  20.5542183  68.0175209  75.0947618  20.8065677  68.8951397  75.3817034
  21.0976076  67.4287891  75.6185484  17.7840054  55.4476070  78.6383104
  16.8496764  55.6374311  78.5532999  18.1724417  55.7915306  77.8339052
  44.7829437  25.2889991  78.0157995  45.5936480  24.7956800  77.8907967
  44.4896746  25.0490451  78.8948011  38.6224937  16.0456598  77.0188236
  39.3789554  16.0183394  77.6046991  39.0005755  16.1251116  76.1430550
  18.7595451  37.7582335  94.9205112  18.2308543  38.1676221  94.2355919
  19.5944083  37.5637746  94.4945717 107.5273228  46.6987133  64.9787521
 107.1928596  45.9874105  64.4324780 106.7456245  47.1791649  65.2514362
  34.9424505  42.2055340  65.7521868  34.3234706  42.8390074  66.1152411
  35.7563591  42.3650455  66.2300396  53.0781651  32.6624036  54.3248129
  53.6838436  31.9219065  54.3571377  52.2239017  32.2658181  54.1539574
   2.6701745 103.6120605  93.0392838   3.0503747 103.0099869  92.3996067
   1.7501986 103.3534908  93.0942535  50.9872627  10.8674514  73.7602949
  50.6837320  10.4061174  74.5421362  51.9284391  10.9762132  73.8966322
  15.7223606  32.3929548  92.7589226  15.8653748  32.5632310  93.6899376
  16.3192713  32.9925966  92.3113060  82.3022747  94.4196987   2.3281702
  83.0671310  94.7904873   2.7683324  82.6681137  93.8492298   1.6521782
  16.8867922  95.2397060  51.0357428  17.5465870  94.5802307  51.2501860
  17.1925020  96.0350323  51.4719057  77.1934271  65.5509043  25.7089663
  76.9673777  64.6305180  25.5747223  76.5407372  65.8693457  26.3325238
  37.1143627  60.0900793  75.8045197  37.1924877  59.1371775  75.7586145
  36.9979358  60.2762413  76.7361975  68.4171486  23.5991907  86.6491222
  67.6731396  24.1971731  86.5776825  68.9317894  23.9433312  87.3791599
  29.7266173  42.4432421  68.6995697  29.0125132  41.9730616  68.2692051
  29.2916131  43.1340456  69.1993618  29.3434262  15.6249070  57.1254587
  29.6809387  14.7909021  57.4521875  29.2531061  16.1695719  57.9073906
  13.7048090  17.7006137  56.8595743  12.8124022  18.0466664  56.8501043
  14.2631412  18.4766412  56.8118334  35.4875159  21.3799000  79.2383814
  35.3048491  21.8893862  78.4488964  34.8219180  20.6919980  79.2388439
  59.1618395  21.1602473  76.0756588  59.3082666  21.3479686  77.0027781
  58.4596539  20.5097485  76.0709858 115.7085896  22.9163218  69.8578310
 115.3904724  22.4834919  69.0655613 116.6465187  22.7259541  69.8746061
  21.3197184  43.8971519  48.5768080  21.3826346  42.9653549  48.3669710
  22.1656418  44.2595863  48.3135843  58.4516478  71.3678122   1.8488012
  58.4130383  72.2690058   1.5285012  59.2680979  71.0206747   1.4894494
  24.4625497   9.1479707  36.0513163  23.5244679   9.1564333  36.2414813
  24.8516273   8.6737621  36.7861485  84.6497154  11.3209474  51.3769817
  85.4518604  11.8019497  51.5805244  84.0017509  12.0017052  51.1954927
  49.1324472   2.0020513  89.5139885  48.8385677   2.8215608  89.1161537
  49.9627972   1.8087924  89.0787792   3.6999547 108.5086060   9.6503597
   3.5103419 107.8649426   8.9677393   2.8509903 108.6848259  10.0558686
  60.2107573  29.5249844  92.3282719  60.0753689  30.4603148  92.1764278
  60.6681395  29.4824100  93.1680489  46.8730783  51.7092371  89.1314030
  46.2880850  51.6064072  89.8820305  46.2995243  51.9864273  88.4169579
  21.0190225  24.2574430  54.5398998  20.9401536  24.9293447  53.8627291
  21.5717602  23.5830927  54.1449785  39.9668336  29.9307537  49.5011902
  40.8133650  29.9546099  49.0550423  39.7172594  30.8505011  49.5906878
 107.0497036 101.2736607  48.7582684 107.9898262 101.4490509  48.7178755
 106.9251442 100.8269978  49.5956564  14.1360211  89.9627495  75.1841784
  14.8681116  90.1775265  75.7622337  14.2558765  90.5322075  74.4241905
  71.7702913   4.4011292  73.9028883  72.2765446   4.6786863  74.6663666
  72.0905495   3.5198212  73.7106323  42.9527855  54.2344379  82.3607635
  42.5090599  54.7120953  83.0616093  43.8786983  54.4495106  82.4732876
  24.6071959  32.0196819  35.5606318  24.1417599  31.1845732  35.6074834
  24.5734048  32.2611094  34.6349955 106.8149757 103.6041260  51.3710260
 107.0041561 103.4790993  50.4410744 107.5499058 104.1234493  51.6972446
  28.3165860  14.5630538  69.7504234  28.9727736  14.1284049  69.2056942
  28.6461949  15.4554558  69.8562860  55.6641102  24.2159200  91.4659214
  54.9203777  24.6223426  91.9108009  55.3855085  23.3136940  91.3090611
  10.2218223   8.1889230  62.8324938   9.9919176   9.0640575  62.5202179
   9.5889771   8.0087614  63.5276794  14.8799706  27.6589465  64.0125561
  15.1281083  26.7462277  63.8655758  15.3522897  27.9107475  64.8061180
  26.4720941   0.1891744  68.7507486  25.6913233  -0.3286539  68.5545778
  26.3690448   0.9849740  68.2289124  37.2243285  49.0589237  72.1477842
  37.4897170  49.5648861  71.3797998  36.7831731  48.2897997  71.7871428
  41.4901686  18.6839104  86.0696602  40.8227253  18.8261211  85.3984547
  42.1799135  19.3131721  85.8586788  42.0936632  11.6468632  79.7630310
  41.8333578  11.7327380  78.8459158  41.3135386  11.8973684  80.2578926
  56.8734360   1.7272709  78.3341455  56.2631416   1.0995813  77.9471397
  56.7690468   2.5192028  77.8067207  38.8152742  31.3464880  84.7671223
  38.8203669  30.4609704  85.1305294  39.6242380  31.7428398  85.0907135
  19.2764080  26.0673952  66.1974859  19.3571782  26.6008806  66.9881201
  18.9319515  25.2299547  66.5077734   5.3496659  12.3023093  39.8308730
   5.8234143  11.9677556  40.5923653   5.3985673  11.5944541  39.1883922
  38.4844446  15.0198996  84.9329281  38.9810896  14.3148077  85.3481579
  37.9770184  15.4075670  85.6459904  23.3983111   4.9031159  75.9071255
  23.1698132   5.3028518  76.7463112  23.7918282   5.6147003  75.4021263
  46.4001179  52.5469732  74.0201902  45.5402708  52.8991175  74.2501688
  46.3037968  51.5992880  74.1142845  25.7993817  24.2816854  49.1657019
  25.8682108  24.5357442  50.0860023  24.9170065  23.9201546  49.0823841
  24.1617656  44.2159605  72.1358538  24.5101452  45.0752449  71.8981695
  23.6631489  43.9387131  71.3672495  22.7281332  12.1325457  80.2413654
  22.7560186  12.9554784  80.7294655  23.6407971  11.8467546  80.2013683
  58.1087637  29.0787721  95.0846195  58.2256985  29.9388957  95.4880333
  58.3934259  29.1984701  94.1786003   9.3345022  30.3753304  75.5314875
   8.7253201  29.6777987  75.7735205   8.8240498  31.1802840  75.6193352
  12.8352797  15.0244772  87.5996780  12.3052776  14.2791128  87.3172665
  13.6660993  14.9167204  87.1366978  22.3093271  44.0804815  66.6606140
  22.4299741  44.3194008  65.7415962  22.8406477  43.2925415  66.7749882
  39.3588662  11.3760340  73.1966639  39.4781256  12.2837555  73.4760427
  39.8836994  11.2997627  72.3998165  51.1622953   4.7778732  71.5969849
  51.1050034   5.6334221  72.0224094  52.0968676   4.6554083  71.4302349
   8.4635049  13.2187235   7.0926946   7.9968458  12.3836267   7.1255070
   9.1825271  13.1159556   7.7161348  25.1840472  44.0610361  91.7658901
  25.2997565  44.3791628  92.6612377  24.7647691  43.2065821  91.8676186
  22.3745584  45.3705454  56.5119648  22.2056913  45.7684040  57.3660278
  21.8877339  45.9152889  55.8935118  45.8480835  58.5312223  81.7553425
  46.4569616  58.1262350  82.3729897  46.1923027  59.4146967  81.6241169
  39.1778898  72.2084761  56.4866209  39.1879392  72.5256968  57.3896742
  39.5292568  72.9359818  55.9732866  61.7518473  26.7939997  79.9139738
  61.1612368  26.6690040  79.1711521  62.3345900  27.5022578  79.6400928
  30.1570106  37.0834541  65.0665092  30.1118827  36.1274076  65.0796175
  29.9382615  37.3458409  65.9606743  46.4626884  19.2344606  72.9019451
  46.5052605  19.3852401  71.9576550  47.0172787  19.9175680  73.2788086
  47.6516676  68.2011700  94.1218567  47.4643517  68.7200451  94.9041080
  48.3960104  68.6434126  93.7136841  11.9012606  32.2500467  81.0033226
  12.7270424  31.7935872  80.8421993  11.4248109  31.6779876  81.6049671
   1.6438220  94.7020721  24.2820454   1.4614469  94.1482735  23.5229135
   2.2872779  94.2078972  24.7899699   3.1071427 109.8519658  31.8844724
   3.3767131 110.3391570  31.1058784   2.9350856 108.9661771  31.5650892
  68.4430408  70.7950258   7.9269725  69.1165352  71.4751339   7.9361808
  68.7730408  70.1394510   7.3125166  75.4754829  -0.1508338  61.1123514
  75.0511837   0.6538603  61.4101267  75.0373602  -0.3616431  60.2878284
  14.4953394  56.3313532  82.9554462  15.0640512  57.0555353  82.6939869
  14.9169433  55.5525446  82.5922108  41.9365215  33.2809043  46.0639954
  41.2310028  32.9002213  45.5409718  42.3462963  32.5310683  46.4953423
  78.2535601  67.2929859  12.3124695  79.1946411  67.4661684  12.2878313
  77.8491783  68.1396484  12.1230805  60.6587219   5.0691593  56.4232635
  60.1424789   5.7997805  56.0827971  60.4841948   5.0706303  57.3644161
  50.8611488  51.4484501  88.4608936  50.0353432  51.2873840  88.0044556
  50.7518673  51.0226107  89.3111610  28.1392431  65.8247757  73.3195591
  27.6161361  66.1851454  72.6035118  27.9759836  64.8822498  73.2846498
  28.2356596  33.3386683  77.6943016  28.1893516  34.0072346  77.0108509
  28.3979106  32.5228310  77.2206831  42.4454927  34.9290609  42.8194809
  42.0331478  35.0443816  43.6755800  42.9026842  34.0906453  42.8848267
  52.6431131   4.9716464  84.7474003  52.9309177   5.8245945  84.4220161
  51.7477083   4.8806655  84.4215012  37.0095277  20.8571410  73.2036781
  36.2411737  21.2266445  72.7685547  37.7423811  21.0887218  72.6331282
  84.3139553  67.4456167  28.6001182  84.7127628  67.3023510  29.4584060
  84.5577049  68.3420420  28.3693767  67.4688816  20.8919048  74.0962362
  66.8428802  20.6460428  73.4151268  68.2923889  20.4886675  73.8215113
  56.4295483  23.3644056  63.8797998  55.8020401  22.8071284  63.4194660
  57.1537733  22.7784967  64.0998936  52.1362257  29.6114564  64.7996330
  52.3464251  30.0216436  63.9607096  52.8548861  28.9980984  64.9530840
  98.6281872  80.5678749   5.0576979  98.0870628  79.7873163   4.9387747
  98.9490986  80.5020809   5.9570956  24.3652606  30.3346014  55.0660419
  23.9218116  29.5423841  54.7627687  24.9045682  30.6064057  54.3234110
  52.3411751  19.5920050  83.4179783  53.0459547  18.9567900  83.2914257
  52.5323200  19.9963892  84.2642498  41.4907217  21.2721729  60.5248260
  41.5659285  21.9988656  61.1432838  41.0081387  20.5986881  61.0041618
  33.2987905  21.2549496  45.5630541  32.4332237  21.3935304  45.1785755
  33.9038706  21.3337874  44.8255634  52.3905945  15.2705991  56.1430979
  52.6227140  14.3707514  55.9136963  51.5881777  15.4438829  55.6508255
  44.2622042  52.7431059  78.6986256  43.5303354  53.2180119  79.0924072
  43.9209461  52.4286175  77.8614473  37.2060537  42.8209782  67.0913363
  37.6024747  43.5419559  67.5804949  37.1143007  42.1174765  67.7339077
  81.8272495 107.8256607   6.4547080  81.4344788 107.8954887   5.5846012
  82.6967049 107.4580002   6.2962127  33.1576800  39.8766613  66.3646555
  33.6511016  40.5387926  65.8805609  33.4211922  39.0454245  65.9698868
  47.7600145  48.2801819  32.6907516  48.0231380  48.0781937  33.5886359
  47.2293806  47.5301600  32.4221897  37.0199323  24.3246293  79.8664141
  36.2443781  23.7777805  79.7410965  36.6708326  25.1949072  80.0587082
  52.3953390  35.8040404  65.1242018  53.3076191  35.5497432  65.2631712
  51.9113874  34.9783540  65.1405144  63.4782553  21.0024810  59.8429918
  63.3609295  20.6318974  58.9682722  64.2064619  21.6163230  59.7473526
  77.3497772  96.4791012   5.7864225  76.7838001  96.3151073   6.5407473
  77.5757456  97.4068069   5.8537340  34.6787858  10.7505667  35.5061388
  34.6334934  10.2200019  34.7107267  34.1773748  11.5387070  35.2972054
  60.1500463 108.0018616  63.4373617  60.8760357 107.6481342  63.9512205
  60.4640675 107.9812622  62.5333691  63.8369131  31.3978171  69.4884205
  64.1339064  32.0290375  70.1438522  63.9291239  30.5466795  69.9165535
  38.1456542  49.3540955  53.9086390  37.4192929  49.8340654  53.5108232
  38.3451843  48.6588097  53.2817459 109.4375134  89.2986584   4.3346643
 109.3533325  88.3456039   4.3635768 110.3814888  89.4550323   4.3084076
  70.8135319  18.2180774  29.0230989  71.6630363  18.0130517  28.6325383
  70.4494286  17.3665655  29.2651558  50.9121084  39.9519515  59.7346163
  51.8167734  39.7274423  59.9523544  50.4180861  39.1506481  59.9080658
  36.8575072  40.2187586  93.2385731  35.9255767  40.0393295  93.1138992
  37.2348309  39.3717265  93.4760380  91.8363190 105.7020187  63.5888052
  92.0612240 106.1649799  62.7817678  92.6703835 105.6012440  64.0475130
  68.6280489  24.2996264  65.6192875  68.8636684  25.1973462  65.8534098
  67.9630136  24.3965507  64.9376965  57.8529263  32.5090694  73.1115866
  58.5528564  32.7873349  73.7022591  57.5318193  33.3218455  72.7210522
  55.0593853  22.2641540  50.3070021  54.6255255  21.5729570  49.8067570
  55.2662230  22.9361129  49.6574450  30.7159662  24.2174578  47.4135828
  31.3180685  23.5577583  47.7578163  31.1684799  24.5807791  46.6523600
  54.0116358  44.4912577  61.2109852  53.7992954  45.2823782  61.7062330
  53.7985325  44.7118807  60.3042650  27.9782295  43.5786486  59.8123455
  27.6041222  44.2643642  60.3655815  28.6815143  43.2015324  60.3409386
  44.3616343  24.9248648  67.0154142  44.1997671  25.0462699  67.9509830
  43.7688732  25.5428100  66.5876150  58.5537100  36.2694311  31.3251328
  58.2353354  36.7363095  30.5525470  59.5019722  36.2231159  31.2031198
  72.0663691  32.9702163  90.1374245  71.1786366  32.8740549  90.4822731
  72.5193882  33.5063052  90.7882786  31.1819005  38.0534077  47.6097727
  31.7590809  38.6529160  47.1368217  31.4571095  37.1817994  47.3255348
  35.3039145  25.7232261  69.1074419  35.6996393  25.2972651  68.3470535
  35.9930086  26.2936592  69.4480133  47.1229649  19.8021626  83.3805943
  46.7700005  20.0797057  82.5352383  48.0715179  19.8858535  83.2832146
 112.7636147  18.4844911  38.8666558 113.3243084  19.0837479  38.3739614
 113.3698654  17.9825842  39.4114304  26.9558883  40.7732534  49.3557644
  26.0898900  40.5291080  49.0291595  27.4951291  39.9961734  49.2087984
  32.6860690  55.0867367  37.6850271  31.9977021  54.4430590  37.5175095
  32.5240207  55.7821226  37.0475197  28.5046053  66.7021084  88.5286236
  28.0944276  65.9623098  88.9766026  28.4561038  66.4763832  87.5996780
  64.2124557  28.9299464  74.7184038  63.9827919  28.3807182  73.9688444
  64.7072363  28.3501983  75.2974653  25.9090900  99.7444344  59.9996281
  26.8402410  99.5246983  60.0296783  25.5793166  99.5089340  60.8668232
  61.2234735   7.3616034  58.6178255  61.6053724   8.1500417  58.2321453
  60.3066015   7.5898761  58.7710238  40.4585361  32.4040461  72.1317148
  41.1977768  32.0638084  72.6356936  40.7951689  32.4878120  71.2395859
  42.7709866  27.3075104  51.1250305  43.2094145  28.0786967  51.4845943
  43.0089712  27.3072147  50.1978827  38.3953905  24.3296552  61.4906168
  39.3057609  24.0576363  61.6066551  37.9273915  23.5196757  61.2877846
  98.4406376  84.1346741  11.6812193  99.1431522  84.1904736  12.3289776
  97.7994633  83.5421562  12.0737088  38.5133648  33.9995456  86.4796925
  39.1235828  34.7142053  86.6617107  39.0365434  33.3525372  86.0065174
  40.8489084  54.5386934  61.4782238  40.1478338  54.5060778  62.1291113
  41.5368128  53.9792919  61.8389082  34.7651577  27.7819514  88.3848190
  35.4481006  27.2033215  88.7239552  34.6214914  27.4824476  87.4871063
  20.2064610  28.9313173  57.6276684  21.1215091  28.6532760  57.5875521
  19.9867749  28.8985515  58.5587406  18.0672431  18.3962345  55.9025383
  18.6845970  18.9203143  56.4128780  17.4686956  19.0372694  55.5190706
 104.5031261   2.0307761  21.8047738 104.2652321   2.8071237  21.2979007
 103.7388897   1.4582174  21.7388177  62.2089148  45.4053879  28.3189702
  62.7253199  44.6722031  28.6536312  61.6430235  45.0153923  27.6527119
  60.0615072  36.6526055  53.7333488  59.2306662  36.7168880  54.2043161
  60.5060577  35.9049439  54.1328526  18.3468413  37.6564312  64.3613195
  18.0671775  38.4225655  63.8602591  17.5312841  37.2170782  64.6022892
  39.0478110  60.1819515  56.9288301  39.9679899  60.0814342  56.6851091
  39.0021157  61.0445547  57.3412132  48.7716818  31.1331677  67.2544432
  48.9730740  31.9430757  66.7857027  47.9479218  31.3163948  67.7061987
  46.5222549  38.1974053  60.6870651  47.1429777  38.8714600  60.4103279
  45.7233953  38.3916783  60.1968479  31.4333585   6.9565119  94.6616217
  31.8213895   7.8267254  94.7532146  31.8560603   6.5861334  93.8867828
  48.9929152  34.3735552  54.4513655  48.5785961  33.5484982  54.7040558
  49.1456509  34.2865539  53.5104465  21.6594005  23.8127637  39.3712592
  20.7581282  23.9305997  39.0711713  22.1281528  23.4911919  38.6011338
  31.4231849  30.7927561  54.7797155  31.9528055  31.1243916  55.5048037
  30.5288315  31.0563684  54.9962187  49.2880535  42.3426867  30.4755259
  49.3289137  41.7109108  31.1934566  50.1961851  42.6153517  30.3444481
  42.2522449  51.1980772  24.2770505  43.0688238  50.9531641  24.7123075
  41.8070793  50.3658962  24.1172409  28.2493114  10.7402623  78.7522984
  28.0823684   9.8062795  78.6256599  27.5131917  11.0453987  79.2826319
  92.3871326  90.1134968  28.3020067  92.1569347  90.7480526  27.6233482
  92.0230675  89.2854023  27.9890299  47.9924822  10.6924725  65.5408382
  48.7805939  10.7573020  65.0014782  48.1876230   9.9955130  66.1672592
  28.3251762  51.5504074  77.8323650  27.6541519  51.8259907  78.4568739
  28.1202054  50.6334352  77.6496649  39.6276712  27.5890255  86.3118172
  39.2840910  26.7047811  86.4394665  39.8598385  27.6241255  85.3838539
  14.4067121  15.0995207  81.5570641  13.5931265  15.0616002  82.0599270
  15.0909090  14.8879838  82.1921635  42.5397348  48.7823772  67.8277636
  42.7401972  49.6992350  67.6395702  41.8610096  48.5506105  67.1938515
  54.4763803  32.6557446  56.7562342  53.6241245  33.0037975  56.4940405
  54.5030355  32.7772713  57.7053165  63.5760069  30.2146316  47.7410507
  63.4261274  29.7896171  48.5855246  63.2387066  31.1029267  47.8567743
  23.0768490  64.9360895  72.4159527  22.2679210  65.3455305  72.7229118
  23.7734771  65.4195404  72.8600454 114.7036266   2.9859859  12.6309991
 114.1873360   2.8635705  11.8343270 115.5661488   2.6320237  12.4141943
  46.7052746  46.3738251  58.1511354  46.1489010  47.1088028  58.4089804
  47.4805546  46.7834568  57.7672386  29.6734405  22.8351879  42.9844475
  29.3148351  23.3789778  42.2830725  28.9106154  22.3967671  43.3614302
   7.4363613  11.2821782  28.8476729   8.0215591  11.3820541  28.0968070
   8.0153120  11.3186431  29.6090651 115.8773518  32.4477935  42.2263718
 116.5514755  33.0919242  42.4428988 115.9946346  32.2836661  41.2906742
  66.6734886 101.5149212  17.6534176  66.2783480 102.2062588  18.1845880
  67.1222496 100.9538364  18.2859051  40.2904654  28.9275789  65.0661850
  39.4633269  29.1535616  64.6407318  40.5191708  28.0709743  64.7054148
  63.8236904  98.4103394  10.0847733  64.2326880  99.1549397  10.5258107
  62.9524088  98.7243080   9.8428679  57.7869272  36.7264342  51.8044710
  58.5447788  36.9005656  52.3626566  57.0319462  36.9470167  52.3499823
  35.5335283  45.2912760  66.5944862  34.6902680  44.8388910  66.6165686
  36.0706282  44.7678518  65.9996891  12.6527905  83.7857056  71.8232155
  12.2970617  84.6001244  71.4676666  11.9831550  83.1286907  71.6330528
  48.5104132  20.7441735  73.8967371  49.1525459  20.4117393  73.2695341
  48.8659382  20.5054212  74.7527933  25.4608583  20.9956574  37.7814531
  25.1626015  21.6425300  37.1420527  25.3011751  21.4071584  38.6308050
  39.4848967  27.5160480  67.6591349  38.7118769  27.6819301  68.1987238
  39.4393802  28.1750870  66.9664383  99.1333294  72.3946619  67.2407341
  99.3285847  72.4686146  66.3065815  99.2955971  73.2711840  67.5894594
  16.2682021  18.6797392  79.9700642  16.6983020  19.1391850  79.2488432
  15.3329170  18.7688076  79.7869253  51.6137838  40.3164864  51.5483618
  51.3414907  40.2614069  50.6323624  52.4656582  39.8805976  51.5716267
  36.7492700  57.2441339  75.7994461  36.2655401  56.7980099  75.1043129
  36.2157965  57.1146631  76.5835810  35.5799556  43.2759857  86.5243053
  35.2317595  42.4498177  86.1889935  36.5303302  43.1687164  86.4854431
  68.0286264  59.2901659  59.9223709  67.7878857  60.1005936  59.4735050
  68.3419895  58.7141466  59.2250633  33.1109813   9.3781723  95.1421695
  32.4974015  10.1123299  95.1697577  33.7377646   9.6154131  94.4587286
  67.1853590  34.5343232  91.8012524  66.8243265  33.7284279  92.1706009
  67.1443081  34.4030499  90.8539867   3.4432834  48.4380436  40.2231693
   2.9032090  47.9176712  40.8179426   4.2440820  48.6126375  40.7176065
  61.0634518   7.6232433  50.9013700  61.4064121   6.9164759  51.4482641
  61.8012428   7.8762978  50.3465223  60.4673719  41.7733574  56.8144417
  61.3846016  41.9449806  56.6012001  60.2079630  41.0758734  56.2123966
  56.2518454  20.2905512  64.2438030  55.5263615  20.2088046  63.6247540
  55.8988142  19.9631941  65.0711107  30.7470584  68.4904528  64.8115015
  29.8319054  68.3157825  65.0310802  30.8287597  68.2238197  63.8958216
  50.6804657  11.2613118  67.0356464  50.1905155  11.9287038  66.5552616
  51.5991783  11.4750552  66.8728304   9.0072548  28.1199813  85.0368977
   8.0556607  28.1755090  85.1241684   9.2022043  28.5985231  84.2311573
  31.8573403  45.9413719  56.8224859  31.0975075  46.4844799  56.6129160
  31.7723060  45.1792336  56.2496471  50.1611185  36.2305570  71.3834667
  50.8026075  36.9285226  71.5160084  49.4114351  36.4893413  71.9194126
  59.6061850  40.8737230  46.2388515  59.3754005  40.8022690  45.3126383
  58.7689590  40.8170223  46.6993618  73.3090496  27.8680205  87.5762463
  72.9354763  28.7390447  87.7103901  74.2547321  28.0001163  87.6430511
  14.8892164  34.2019224  69.6832418  14.1965878  34.8567748  69.7707939
  15.6795871  34.7116137  69.5050335  36.3250279  50.8733416  63.4436464
  35.3734016  50.7771254  63.4808064  36.6630054  50.0359869  63.7612009
  31.0561728  29.9724603  48.4945154  31.3963938  30.8017921  48.1588173
  31.7995238  29.5744562  48.9475632  28.6383200   9.1476202  25.4590297
  27.7371383   8.8527411  25.3280663  28.5854030  10.1026881  25.4232860
  49.6187401  52.5646162  20.7314014  49.7443819  52.5243378  19.7833371
  50.4871750  52.7664089  21.0797358  39.5811296  68.2766199  69.8900175
  39.5513844  69.1291332  70.3242588  40.4003382  68.2883978  69.3950510
  65.0750589  35.3443003  62.3541737  64.6432781  35.5761671  63.1763887
  64.9639463  34.3961358  62.2843790  62.3245287  23.4058857  71.7479610
  61.5695143  22.9698896  72.1430492  62.8929424  23.6182356  72.4882603
  32.9934216  23.2534909  66.9031811  32.6422286  23.1066370  66.0249281
  32.6166630  24.0904093  67.1749401  12.5989950  45.2369356  59.5832634
  12.2454095  44.7746515  58.8233280  13.0640399  45.9868717  59.2123699
  90.6811428  66.6204596   4.9082506  90.4522896  66.3990784   4.0055603
  90.1567078  66.0232258   5.4416496  54.4658756  41.0894346  84.5074368
  53.6042976  41.4946938  84.6058559  54.9534988  41.6957855  83.9499569
  50.1597786  25.6411171  83.9465904  50.6844234  26.2333870  83.4078884
  49.2821550  26.0231233  83.9374447  58.7495184  38.8562107  75.1617479
  58.6597157  37.9388809  74.9035358  58.5124540  39.3502545  74.3769217
  44.8708439  34.5270967  79.8495674  44.9172640  34.7421217  80.7811451
  44.0315628  34.8867011  79.5622873  42.4130869  52.0442009  45.1356220
  42.7988005  52.1775627  46.0014629  41.8389368  52.7997541  45.0102329
  74.0484190  61.5658331   7.6777124  73.4178162  62.1375942   8.1155062
  73.5382891  61.1199903   7.0015252   6.1055452   6.8385249  31.1051273
   5.9195155   7.6425457  31.5900755   6.2513793   6.1784011  31.7827702
  55.4272223  15.7691300  88.9166069  55.2315283  16.4801574  89.5268345
  56.2679243  16.0113406  88.5282898  59.8760128  17.5646544  26.1649251
  58.9271307  17.6819670  26.1192584  60.2314997  18.2809532  25.6388283
  82.6231098 104.5113277  16.6446161  83.2087326 104.1693020  15.9691191
  82.1704483 103.7386894  16.9827926  53.5482883  31.4507890  85.7095432
  54.3431616  30.9552693  85.9066868  53.1519508  31.6178942  86.5646648
  59.1348553  40.9763479  59.4316673  59.5121861  41.1748981  58.5746765
  59.1126585  40.0200891  59.4678640  16.2572813  39.7508550  73.7809801
  16.3305473  40.6746101  73.5411072  17.0287883  39.5819116  74.3217850
  38.2256532  45.1764727  85.6926346  38.7809324  44.4003630  85.7671738
  38.7219691  45.8688784  86.1290741  16.3885820   0.0362473  82.8832150
  17.1091878   0.4885668  82.4446201  16.7702103  -0.2873281  83.6992359
  39.3451810  12.5333643  85.6094074  38.4262085  12.2697723  85.5621052
  39.7904277  11.9633400  84.9824619  52.8922176  34.9743462  57.2426796
  52.3447752  35.3837061  57.9127216  53.7064075  35.4774189  57.2583866
   6.8236208  99.3452549  67.8405094   6.9851089  98.4018230  67.8503799
   7.5701684  99.7209263  68.3071613  13.6268437  40.2725601  77.9731464
  13.0130470  40.4167843  77.2529459  14.2549884  40.9911156  77.9000235
  42.8913069  50.8358479  59.0127563  42.9531193  51.4651251  58.2941294
  42.0019293  50.4875135  58.9502525  31.6378450  34.5487571  64.5060015
  32.5896692  34.6365428  64.5565891  31.4455843  34.5620942  63.5684013
  99.5747089  74.4042015   3.7535709  99.9024582  74.1553020   4.6177834
  98.7450504  74.8475361   3.9306149  38.6052632  32.1523523  53.1768560
  37.9394913  31.9350600  53.8293600  39.4064069  32.2790742  53.6851311
  77.8416061  80.1366329   0.4432172  77.7273083  79.3704700   1.0055023
  77.4715090  79.8728275  -0.3992000  47.6713753  39.2824769  66.0309553
  47.4088717  38.7407875  66.7751980  46.8537378  39.6658063  65.7135201
  52.2582197  24.0265393  67.3756695  52.4743080  24.7331142  67.9841852
  52.7864075  23.2853103  67.6720333  39.1707420  51.6848278  83.9127922
  38.6824489  51.8128347  83.0995083  40.0666714  51.5041828  83.6283398
  44.9670839  37.6915312  51.2499952  45.0239468  36.7370915  51.2951756
  44.0871525  37.8634429  50.9147406  48.6015511  60.3273630  68.2900143
  49.5130062  60.2706909  68.0031776  48.0948591  60.3337955  67.4779463
  26.3583660  55.8029747  93.2204247  25.9538102  56.6637802  93.1128120
  25.7048225  55.2887535  93.6944389  74.8241949  21.5882969  67.2742844
  75.3714657  20.8038712  67.3117495  73.9292574  21.2534809  67.2175646
  37.6754141  31.6476798  78.7537718  38.1643867  30.9651136  78.2941580
  37.6227093  31.3371539  79.6576691  42.5760841  47.8523827  60.2192497
  43.3026934  47.9730606  59.6079302  42.0363140  48.6348915  60.1071787
  48.3392906  60.7543564  72.9600000  47.8362179  60.0039339  73.2762480
  48.8537216  61.0340977  73.7171888  61.3993740  32.8377223  73.2588005
  61.1600399  33.7299633  73.5095167  62.1877956  32.6492310  73.7678099
  44.4062614  64.4487858  65.4758406  43.5130358  64.2804098  65.7758904
  44.6201229  65.3110218  65.8322668  35.5511522  55.3291273  93.4180069
  35.9895945  55.2362108  94.2638016  35.7527471  54.5169878  92.9532242
  30.6944251  96.5546608  70.2192545  30.6341147  97.1161556  70.9921122
  29.7961378  96.4982796  69.8934746  77.5523615  87.9960251  68.4383345
  78.2090998  87.6292038  69.0302515  77.2057772  87.2388554  67.9663134
  42.3933649  63.2173920  66.7943764  41.6005039  62.6924992  66.9043159
  42.9670095  62.9370356  67.5075102  60.5202103  78.4573603  76.6925335
  61.4192343  78.4820318  77.0202160  60.5216503  77.7553749  76.0418034
  36.1016774  49.6402407  59.5458508  36.6997099  49.7774363  60.2805424
  35.9650612  50.5148506  59.1816807  44.8002291  48.2137012  58.8562202
  44.8701143  48.4367895  59.7844362  44.7373533  49.0586615  58.4108877
  33.3127475  25.2898622  83.6003494  32.9678392  25.9241223  82.9718781
  32.6484418  25.2488065  84.2882824  38.4941578  18.7256765  70.9310389
  38.6238503  19.6318173  71.2108946  39.2915392  18.2734513  71.2065506
  28.6866736  48.0724096  70.9174824  28.5521793  47.3596478  71.5420723
  27.9320383  48.6474848  71.0441828  38.5845613  74.2448187  83.0280304
  39.1687202  73.7336302  83.5880947  38.8673973  75.1510048  83.1507874
  25.0706768  54.5692205  71.5280151  24.5806599  54.3480301  72.3199701
  25.3472638  55.4756165  71.6628170  49.9035883  48.4700871  69.4346714
  50.5438805  47.9862118  69.9563265  49.2764759  48.8050222  70.0755882
  62.6108789  30.9376788  44.7363520  63.1648111  30.7498574  45.4940557
  63.1166553  31.5647745  44.2194653  59.3397331  82.1363258  78.1973553
  60.2857065  82.1948338  78.3313274  58.9951468  82.9508400  78.5634899
  46.4805317  71.3097095  72.6082516  46.1098957  70.9492731  71.8026781
  47.4208546  71.1474323  72.5328207  43.4722424  78.3326721  86.8691063
  43.9524221  79.1369915  87.0658970  42.5530148  78.5993338  86.8571568
  79.3724823  57.8354216  65.4474926  79.5286608  57.9345274  66.3866520
  79.3778706  58.7303925  65.1080418  85.6255627  67.4353361  43.8442898
  86.0545635  68.2034397  44.2213917  84.9270916  67.2230148  44.4634008
  75.5087376  23.6763477  31.5402389  74.7598219  24.2564511  31.4029908
  75.3174019  22.9071641  31.0035992  84.9882030  46.5207815  42.5740623
  84.8460293  45.5967712  42.7795553  85.7593822  46.7641306  43.0862045
  82.3634624 108.1664467  71.6523314  82.5243187 108.5714245  72.5045919
  83.2051754 107.7823162  71.4069939  78.0224419  63.5009813  64.8824787
  78.3815289  64.3713331  64.7099352  78.2815027  63.3093691  65.7838106
  38.4624124  14.7493410  31.0363698  39.1664028  15.2245796  31.4777064
  38.7983418  14.5881021  30.1546741  78.5815859  76.9283390  72.6671410
  79.1389370  76.7328882  73.4203911  78.9927244  77.6886225  72.2558451
  58.8574266  72.8112793  57.0994902  58.2562208  72.9725885  57.8266478
  59.4906235  72.1831942  57.4470568  70.1117134  74.0135813  91.7809200
  69.8181915  74.7225952  92.3530769  70.7177973  73.5057878  92.3204041
 103.8574219  61.0690641  65.6111240 103.3361626  61.7339659  66.0610342
 103.2221985  60.5804348  65.0877094  69.6227217  64.0039110  34.0643311
  70.0551224  63.5716677  34.8008275  69.1502047  64.7361851  34.4602275
  63.7775040  98.1683064  56.2881708  62.8320456  98.0188656  56.2858582
  63.9865637  98.3938122  55.3817129  80.3714561  60.1630306  39.2358971
  80.0673676  60.9528065  39.6831250  80.8984566  60.4888201  38.5062623
  69.7800159  85.8456802  70.7910538  70.3137541  86.2398815  71.4809513
  69.7008657  86.5315533  70.1280737  23.1259608   6.3624430  73.5531569
  23.9789557   6.0446572  73.2571077  23.1630397   7.3093259  73.4179878
  70.4496288  81.9576836  86.9842911  70.5778646  82.8530312  86.6710186
  70.3121328  81.4430523  86.1890030  59.6994877  74.0937567  54.7618103
  59.2701674  73.6579609  55.4980183  59.8319197  73.3992720  54.1165352
  66.8599275 109.8206513  44.4057417  66.0722402 109.7731873  43.8639641
  67.4602464 109.1878321  44.0115452  59.6506500  91.2082958  63.6728239
  60.0281000  91.9433117  64.1560555  60.1121807  90.4393768  64.0074587
  65.7208538  63.9637184  45.1730347  66.0577440  63.4908485  45.9340382
  64.8644495  63.5700178  45.0062609  52.6346731  58.4726191  84.6671391
  53.0460358  58.6016750  85.5217457  52.9966974  59.1691732  84.1194248
  68.1664944  53.5788774  62.9189014  68.5284328  53.9685249  63.7147713
  67.7973986  54.3186617  62.4364996  56.6682100  95.4253578  41.6449118
  57.2810030  95.5852413  42.3626566  57.0567846  94.7004795  41.1552143
  80.7372952  65.4740953  54.8902702  79.8203564  65.6036663  55.1324987
  81.1178017  66.3520813  54.9145365  93.6902046  58.6967087  80.9326363
  93.6237812  58.7573338  81.8856049  93.2328510  57.8853607  80.7118034
 109.2341709  80.4106617  60.5015659 109.6124458  80.6671143  59.6605110
 109.3312359  81.1861229  61.0542583  59.3269825  72.4338007  60.9480476
  59.3762875  73.2324505  61.4733696  58.3891296  72.2720623  60.8455420
  51.4492893  78.3279610  71.8557930  52.0482826  78.5789108  71.1526155
  50.9964609  77.5543785  71.5200186  82.4281502   3.6018071  65.7091379
  82.3980808   4.1645849  64.9354410  83.0545712   2.9148111  65.4814005
  84.3734264  62.0256901  64.2461729  85.0294209  61.6859388  64.8548412
  84.8689842  62.5840235  63.6470747  66.7796946  97.8129578  35.9732771
  67.1880436  97.7967644  35.1077008  66.3409662  96.9654274  36.0470271
  84.7517300  98.5039520  82.1587467  85.5653667  98.1293678  82.4962711
  85.0274467  99.2899990  81.6872025  34.2149663  67.8477812  74.4615316
  34.8242688  68.3235502  75.0260067  34.4793200  68.0826759  73.5720539
  84.8886395  42.0909452  58.5050917  84.3298626  41.3139915  58.5237646
  84.2918110  42.8193760  58.6766100  53.3826017  80.0332165  91.5551472
  52.9800701  80.8961964  91.6525173  53.5858059  79.7613621  92.4501514
  14.7944784  11.1151946  68.3641577  13.8838053  11.3737392  68.2225227
  14.8999369  10.3166318  67.8470421  63.3786249   3.4708950  26.8626380
  63.6786175   4.1810995  27.4299550  63.8770247   3.5840666  26.0533023
  65.3452015  91.5016842  65.3970861  65.9263659  91.4594746  66.1564922
  64.4826555  91.2716293  65.7425022  99.6576309  74.1156578  84.4744682
  99.1923237  73.4124804  84.0214062 100.5731487  73.9996290  84.2203045
  48.4907818  11.2546635   6.8500084  47.6818752  11.7662549   6.8368334
  48.2111311  10.3594315   6.6587317  70.7217360  61.1061764  72.0050287
  70.2055025  60.3002262  71.9915342  70.1203489  61.7701912  72.3421431
  39.7509885  32.2382808  16.0438883  40.0632572  31.4130354  15.6728232
  39.3161845  31.9853806  16.8582702  71.7474985  69.3755150  52.8132105
  71.3507175  68.9627790  53.5803127  72.2258806  70.1259947  53.1655836
  20.2417922  41.9180012   1.6005969  19.6350217  41.1776972   1.6033688
  20.8891726  41.6995907   2.2709906  60.7263947  75.0793076  41.7844248
  60.5435371  74.1637659  41.5733099  60.1386833  75.2790833  42.5130653
  48.4349442  73.5771322  94.4505310  49.1274405  72.9930782  94.7596645
  48.8950109  74.2484570  93.9466476  59.6970701  80.2316093  46.1622047
  58.8711071  80.0821114  46.6222811  59.4424391  80.6649590  45.3475857
  85.3478432  77.7633619  71.4913607  85.2512741  76.8428659  71.2472439
  84.7733879  78.2330513  70.8866978 111.4834023   9.9988741  90.5966949
 111.5667248   9.1677916  91.0642338 112.1557426   9.9594843  89.9165058
  13.0493915  55.9462023  73.5450315  12.5706506  55.3234291  74.0920210
  12.7970588  55.7216692  72.6494074  74.9078465  75.1945782  62.8483391
  74.3151331  75.6931210  62.2858667  75.4958391  74.7471857  62.2397852
  81.1566067  73.8619089  82.9841042  81.5963173  73.8335657  83.8338566
  80.2278233  73.9507771  83.1978703  54.7719717  42.9559851   3.5651892
  54.0761995  43.5357761   3.8749859  55.5218124  43.5345411   3.4264392
  95.3770733  87.2837257  74.9510670  94.8624897  86.7733383  74.3258095
  95.3629303  86.7632103  75.7542467  66.3884497  74.6650553  69.5679140
  66.4624977  74.6327543  68.6141300  66.8892050  73.9083958  69.8727846
  61.6224957  73.8272667  84.9466801  61.2244940  74.2113686  84.1654682
  61.2429142  74.3186855  85.6751442  45.8125114  32.8108740  16.5020597
  46.1990547  33.4840369  15.9419978  46.5434361  32.2330332  16.7213440
  76.6770840 100.1453209  51.3205099  76.4769363  99.7429657  50.4753637
  76.3464403  99.5216656  51.9670010  86.3825893 103.3806896  70.0422430
  85.6897449 103.8548374  70.5020094  86.4203644 102.5294590  70.4783773
  61.1725569  72.6856518  51.9973135  61.3054323  72.3802233  51.0999346
  60.6333733  72.0072412  52.4038553  76.5313768  59.3702269  68.3205223
  76.8433762  59.8165560  67.5333261  76.6514587  58.4395552  68.1316710
  90.3489113  66.4876080  72.2896862  90.1882362  67.2269821  71.7033958
  91.0893440  66.0261822  71.8958902  54.5531130  78.3691454  77.0457745
  53.8107347  78.8862085  76.7331219  55.1885462  79.0192699  77.3454237
  33.4195971  48.7890196  87.5989532  32.6964450  48.2817841  87.2301865
  33.0602407  49.6684980  87.7156258  76.1364174 101.2525940  82.1799469
  76.6176414 102.0794010  82.2122765  75.3204060 101.4319801  82.6470470
  63.2217312  88.3092022  75.1223087  62.7681971  87.8743839  74.4001818
  64.0586376  87.8497219  75.1908445  74.6010065  53.9266539  66.6692734
  75.2279806  54.5033503  66.2327480  74.9377155  53.8379574  67.5608921
 115.3666401  42.2147512  41.7605209 114.4139481  42.1252584  41.7849636
 115.5153179  43.1376219  41.5545225  63.5451126  78.4329128  82.4606419
  63.4757853  79.3532753  82.2069550  62.6766157  78.2109118  82.7962971
  11.6874039  39.3791199   5.9761161  12.5493324  39.6709013   5.6791723
  11.1495292  39.3764997   5.1843363  78.8631773  85.1301384  62.2662687
  79.5755863  84.5854664  61.9315481  78.0856562  84.8189354  61.8027449
  22.8337097   0.6724638  86.4746571  23.3040285   0.3874191  85.6912136
  23.5160184   0.7822529  87.1369553  67.7569962  59.4644642  64.8288059
  67.5723362  59.2356110  63.9178991  67.9263115  60.4063749  64.8095274
  49.0690088  77.2154522  57.5325394  48.9144802  78.1497288  57.6720762
  50.0218105  77.1252394  57.5487375 107.7393627   4.4464779  81.7413425
 107.8901863   3.5012460  81.7458153 108.6102486   4.8274505  81.6288853
  65.1996565  96.5995598  61.7743540  65.2259970  95.7784462  61.2831163
  66.1129093  96.7702579  62.0046949  59.3545055  70.2334595  85.6384563
  58.5374594  69.7449493  85.5383587  59.8937941  69.6842051  86.2074184
 100.5664062  79.8640919  93.7229824 101.2764740  79.2222738  93.7330627
 100.1159763  79.7360897  94.5578194  61.7614365  77.6600504  93.6235428
  62.5813150  77.1774244  93.7289047  61.7042446  77.8327799  92.6837921
  54.6615887  94.6093845  74.8956203  54.7195292  93.8971138  74.2587996
  53.9052773  95.1231098  74.6122313  75.5408716  91.2666607  81.0457802
  75.5508327  90.3830910  80.6777763  75.6362391  91.1343670  81.9889832
  88.9642429  77.4800253  71.5232563  88.3733845  78.1122875  71.1141634
  89.7904301  77.5840759  71.0512066  83.9311695  78.8373327  69.4210625
  83.9194679  78.3378887  68.6045790  83.0388069  79.1720486  69.5098972
  77.0896864  69.0613890  71.7920303  76.6067171  69.4772005  71.0778332
  76.5512705  69.2173386  72.5679255  71.5692377  80.4623890  53.0382442
  71.1268282  81.0153294  52.3942184  71.2489748  80.7764435  53.8838482
  74.9873400  62.5130749  68.2329702  74.9858522  62.4918890  69.1899347
  75.8076906  62.0866060  67.9852295  84.6304703  82.0501137  48.2382822
  84.0563679  81.3754845  47.8756332  85.4610252  81.9307423  47.7776861
  48.7119389 103.8663673  78.7513065  47.8301001 103.9358521  78.3855629
  49.1626596 104.6515656  78.4405851  79.0011215  78.1222868  56.4995289
  78.1987095  78.1492949  55.9783411  79.6068525  77.5942183  55.9794664
 104.5004272  45.8614445  75.8757067 104.2356586  46.6142893  76.4042425
 105.1648998  45.4195070  76.4042950   7.8080010   2.2326757  69.0988588
   7.4352241   2.5047222  69.9374628   8.5694551   1.7032233  69.3357134
  98.5310078  93.8711929  66.9249630  99.4493198  93.8270855  66.6585445
  98.0657768  93.3538914  66.2675428  79.1075754  98.1852150  75.2546120
  79.0548706  97.5148773  75.9358692  78.3809233  97.9847908  74.6646643
  18.1519604  49.9687338  52.4222803  17.4041450  49.4301796  52.1635008
  17.8425121  50.4577589  53.1847239  73.6553526  65.2708292  55.6471062
  73.5586929  64.3193054  55.6084776  73.0259275  65.5486965  56.3125753
 115.1491642  42.2516632  67.1009159 114.7956848  41.4403915  66.7360592
 115.6436729  42.6427221  66.3806629  44.8226976  68.2960320  71.9324398
  44.7265100  68.3424568  72.8836632  44.0365601  68.7223244  71.5911245
 106.5127468  86.7180634  91.5166759 105.7915497  86.1888409  91.1760426
 107.2159576  86.0890484  91.6781330  70.0446701  96.1026859  71.6632986
  70.4923773  96.1914062  72.5046730  70.6012487  96.5758228  71.0447598
  93.7386417  75.2997303  32.9131246  94.6925545  75.2235031  32.8915668
  93.5389519  75.5536556  33.8141680  74.8936701  84.3872452  80.3329563
  75.0355196  84.0804958  81.2285042  75.3269386  83.7333775  79.7843599
  64.5864201 100.8047009  68.0785513  64.8345375  99.9101830  68.3120346
  65.4169035 101.2778091  68.0266619  77.9462242  55.8773375  51.4203882
  78.7484646  56.2028408  51.0121155  78.1025791  55.9667873  52.3604870
  87.0763016  70.8338833  76.6620111  87.0287132  71.3108206  75.8334541
  86.7741966  69.9511909  76.4479637  73.3468819  56.0237503  69.5650530
  74.0316534  56.2578773  70.1915503  73.5911846  56.4818573  68.7608862
  64.9068737  89.6332932  54.3596363  65.6661940  89.1699696  54.0060902
  64.2635918  88.9449120  54.5286274  30.7529521  13.4780455  20.7714820
  31.5066051  12.9620183  20.4852033  31.1008143  14.0515280  21.4543724
  85.4878902  67.8208208  76.6935587  85.7427597  67.0461226  77.1946764
  85.9980202  67.7620506  75.8857584 102.7403164  88.9110088  42.7780390
 101.9607162  88.6348248  43.2599020 103.3567429  88.1864643  42.8842926
  71.0446787 104.9887562  94.2834187  71.1447763 105.4646015  95.1079082
  70.0993156 104.8745918  94.1860104  80.1713085  68.8196754  92.5843716
  79.4113922  68.4774685  93.0551720  79.9093199  68.8049364  91.6638374
  67.8140974  77.4684000  72.8139687  67.8955364  77.6016235  71.8695879
  68.2986927  76.6607571  72.9845905  82.5613594  71.6391230  86.1302280
  82.4266624  72.5752592  86.2776756  83.2301807  71.3899899  86.7680740
  87.6646709  65.8604145  42.6767397  86.9878769  66.5213299  42.8229284
  87.6331425  65.6894493  41.7354584  68.3461237  76.1850214  53.7584591
  67.4917412  75.9318781  54.1080046  68.4365559  77.1087313  53.9925766
  17.9034805   3.4716198   8.4985822  17.1551585   3.2584518   9.0560824
  17.8323030   2.8664237   7.7604067  68.0237246  96.9621849  69.2274094
  68.4463787  96.4368057  69.9067974  67.2616577  96.4459229  68.9648151
  32.2128391  20.4543400  31.1081553  32.1729493  19.7390151  31.7429376
  31.4422297  20.9885454  31.3005519  68.7582302  75.4208374  77.1771574
  68.0375481  75.2752495  76.5642548  68.7017918  74.6889162  77.7914429
  95.8611965  80.5124664  71.6037560  95.5794239  80.2944088  70.7153416
  95.2602386  80.0294113  72.1709776  48.9804173 108.4062195  58.5724211
  48.3880520 109.1057301  58.2966900  48.4119844 107.6462269  58.6970091
  51.8474674  39.5475650   8.7340707  52.7094173  39.8991346   8.9569390
  51.7771482  39.6681690   7.7871060  95.7057285  66.4797878  91.0472107
  95.7514572  65.6949949  90.5010891  95.2214336  67.1126699  90.5169773
 101.3242340  -0.0012462  81.9985676 101.7035198   0.5168292  82.7084827
 102.0477962  -0.1344384  81.3862419  71.2750244  61.9094276  65.1766014
  71.6650629  61.7610645  64.3151522  71.2372637  61.0400629  65.5753613
  73.5833931  76.6378069  88.6556530  72.7420378  76.5525818  88.2072163
  74.0597296  75.8402967  88.4247589  68.2204294  79.1726398  56.2275887
  67.4377155  78.6579370  56.4242554  68.5846996  79.3918085  57.0851994
  78.7247992 104.7469902  42.3731041  79.2298889 104.8367310  41.5649796
  78.8211250 103.8258076  42.6147127  71.4289045  73.5824871  58.6212158
  72.0916510  73.2078886  58.0409765  70.6096411  73.1707811  58.3463669
  57.2185135  17.6494789   2.3104286  57.7788687  17.2657752   2.9849687
  57.0029163  18.5200548   2.6448661  72.7808380  58.3133554  50.4317045
  72.8098679  57.3649168  50.3057766  73.3931923  58.4786367  51.1486006
  58.0908775  95.6439686  80.5553341  58.4417534  95.4785252  81.4304066
  58.7671423  96.1633015  80.1203728  22.3985529  28.5219955   9.5696902
  22.2814560  29.3559909  10.0246286  23.3394027  28.4712219   9.4009978
  43.7988033  64.6842623  94.3973211  43.5521661  64.2065960  95.1893038
  44.5937570  65.1583302  94.6413295  82.3484421  85.0741386  65.5207109
  82.5267029  84.1337585  65.5325079  83.0363464  85.4413700  64.9655771
  86.8937016  78.6786366  56.0164785  86.5296173  78.2282448  56.7785978
  86.1473942  78.7965536  55.4288149  70.3866005  85.3638458  79.4074154
  71.0991526  85.1248837  78.8146257  69.8377514  85.9575844  78.8950920
  66.7499638  89.6233463  84.4238472  67.4339151  90.0112534  84.9697113
  66.9449234  89.9331760  83.5394096  81.0144901  71.6708803  34.9795461
  81.5903473  71.5986586  34.2183661  80.7270718  70.7736015  35.1484299
  78.5850286  91.8948555  48.0464745  78.5229540  92.7059841  48.5509014
  79.3655539  92.0091152  47.5042915  51.4366007  77.8467846  87.6576900
  50.6892538  77.3250198  87.9500294  51.8879271  78.0922365  88.4653378
  66.9664860  66.7152882  60.9543943  66.8332529  67.1476984  61.7979002
  66.3984871  67.1915245  60.3487492  96.5439606  91.8888950  60.0854206
  96.8923092  92.0182037  59.2032862  96.8019581  92.6774311  60.5627823
  74.2153025  87.1014595  80.9837532  74.3872881  86.2493992  80.5829620
  73.8989878  86.8931770  81.8628407  62.8047371  85.1554203  78.6530209
  62.5700331  86.0122490  78.2966518  62.6072693  85.2223110  79.5872402
  99.4661999  99.4957066  45.2204800  99.4343758 100.0981236  44.4773006
 100.3247833  99.6477032  45.6154108  94.9938965  84.8616409  56.1118650
  94.9865627  85.6027126  56.7176628  94.1111565  84.4960690  56.1699390
  99.9783611  97.1495533  54.8558187  99.6053791  96.5689087  55.5191183
 100.5221939  96.5770340  54.3148041  58.5544586  79.4646358  57.5315523
  59.0392780  79.3142128  56.7200375  59.1283751  79.1274738  58.2194281
  99.1053772   7.5056481  63.7762070  99.3009281   7.9517204  64.6002293
  98.1988335   7.2134638  63.8712835  90.6871223  82.4900913  81.3063431
  90.3983879  83.0575466  82.0210838  90.2725220  82.8580189  80.5259800
 100.9427547  61.9031048  65.8153582 101.0494995  61.9232464  64.8643446
 100.2720451  61.2372446  65.9670448  93.3498573  80.6980610  88.7679100
  94.1582775  81.1490250  88.5243607  92.9120827  80.5243969  87.9345894
  62.0076418  85.0924969  63.7486029  62.1455097  85.6472778  62.9808474
  61.9907475  85.7032013  64.4854736  72.4098635  85.9365273  44.1151857
  72.6623440  86.7738819  44.5041990  71.4656448  86.0115623  43.9771557
  90.1457500  63.3648252  88.5396004  89.9719143  63.3819532  87.5984764
  90.1393414  64.2855787  88.8011456  47.2224522  64.8310471   0.1247864
  46.7603254  64.9990225   0.9460395  46.8552065  65.4654312  -0.4907787
  17.5362360   2.5536302  53.1197119  17.6964271   2.3549275  52.1971703
  16.6458631   2.9045337  53.1380367  16.8294561  19.0050411   5.8235937
  15.8927846  19.0341568   6.0186088  16.9742763  19.7444165   5.2331847
  72.5737286  55.1424551  53.0110884  72.8475952  55.2165318  53.9252758
  72.4896336  54.2007113  52.8618145  99.5717430  90.7124805  56.8740082
  99.8987389  91.6107082  56.9238806  99.9371433  90.3695011  56.0584831
  99.6360016   7.6601768  74.1134310  99.5280743   7.5956255  75.0623322
  98.8032436   8.0140918  73.8011837  66.3218689  63.9585066  60.3819466
  65.4448509  64.2910337  60.5729818  66.8597174  64.7441626  60.2834606
  87.1640301  73.3027029  66.4910555  87.3777676  72.4483824  66.8661356
  87.7882767  73.4122992  65.7737398  63.1793928  90.8703423  73.5410357
  63.2225084  90.4113865  74.3799210  63.9254475  91.4698124  73.5573721
 111.4350891  17.9994357  73.4521961 112.2734642  17.8817165  73.8988447
 111.1008835  17.1105719  73.3319473  76.6380501  74.3209743  89.5892525
  76.1409187  74.5479870  88.8033962  76.0162497  73.8400173  90.1354027
  75.1410866  68.0569887  80.1753044  76.0072565  68.0024767  79.7715616
  74.6094131  67.4280739  79.6874285  90.3711224  74.2915249  57.2550964
  89.8739433  73.4778881  57.1711969  89.8486805  74.8313713  57.8482676
 112.7702045  13.0205786  69.7011900 112.7893829  12.7544260  70.6204414
 111.8795776  13.3432698  69.5637941 101.9925022   6.0553598  77.2992420
 101.6051102   6.9105846  77.4856663 102.9259109   6.1713922  77.4767780
  30.9492064  11.2731481  10.1331389  31.0051942  11.6055214   9.2372453
  31.6995883  11.6638827  10.5808961  62.0808697  82.4659443  78.4424591
  62.7069855  82.5825596  77.7278948  62.0989561  83.2981873  78.9149666
 101.2223339 104.1480541  58.0989742 100.5528831 104.2940235  58.7673759
 100.7555580 103.7181568  57.3823547  64.6028280  18.9154959  12.1043050
  64.4362926  18.0415785  11.7510843  64.0869570  18.9505589  12.9098344
   5.4180145  16.5175307  77.6329136   6.3456368  16.5806043  77.8604460
   4.9573162  16.7511773  78.4387684  97.1640873  79.2492628  59.3813181
  96.2468243  79.0808964  59.1656542  97.1743965  79.3334579  60.3347540
  77.1372271  65.5989027  69.7446346  77.1595144  64.7490311  70.1844692
  76.2166262  65.8594656  69.7735167  59.0868998  90.0984192  88.7948322
  59.0973520  90.0367737  89.7499847  58.1934261  90.3679371  88.5819817
  84.2881966  94.3150997  39.7467422  83.4620094  94.6160984  40.1249743
  84.8558235  95.0855541  39.7673726  89.1887474  88.5828876  66.4567089
  89.9573135  88.2825279  65.9716082  89.3810081  88.3651161  67.3687649
  67.2980645 109.3990701  88.6591339  67.3991921 109.1584643  89.5800591
  66.4417317 109.0493980  88.4128666  66.3652277  75.0290155  87.8810120
  66.5856028  75.9589767  87.8277588  66.2015104  74.7693586  86.9743729
  83.3526230  92.9663754  90.4240322  83.6557865  93.8176727  90.7396603
  84.1159439  92.3947048  90.5063725  15.6174207   5.7375866  87.0513439
  15.2093256   5.0395870  86.5390110  15.5846226   6.5047258  86.4798069
 101.7366505  94.7161770  91.3779354 101.6863155  95.6460857  91.1566353
 100.8777237  94.5110226  91.7472458  95.2082539  65.0373793  53.1781101
  95.2331257  65.4063177  52.2952223  95.5930996  65.7163191  53.7323380
  41.3029337 106.8633270  15.0061202  42.1733904 106.9028854  14.6099246
  41.0399342 107.7790546  15.0983691  62.6537943  79.0024519  74.6924400
  61.8197918  79.3973637  74.9468374  62.4545908  78.5168886  73.8919544
  73.0828428  83.5367775  74.2447662  72.4013424  84.0758991  74.6461964
  72.7204514  82.6508331  74.2482567  64.4367790  73.4705067  93.7384129
  65.3428745  73.3023453  93.9971447  64.1923094  72.7085066  93.2132244
  93.7804317 102.1021938  63.1672144  94.3956757 102.2475815  63.8859415
  92.9188633 102.1098614  63.5841990  72.7971458 106.2237453  59.9647474
  72.6438379 105.7029343  60.7530880  72.5740671 107.1184444  60.2216291
  48.8220263  90.5556488  78.3436775  49.7698927  90.4274940  78.3805561
  48.5577774  90.1522350  77.5168371  99.6148491  86.3722992  57.7399826
 100.0697803  85.6074333  58.0924654 100.2620792  87.0762634  57.7817822
  76.3421631  98.1498623  53.8205910  75.6478548  97.6255798  54.2197037
  76.8629551  98.4610748  54.5609665  59.0625858 107.9014874  53.7866831
  58.4870577 108.4203911  54.3485832  58.7676382 108.0958843  52.8970480
  32.6890874  18.3542562  11.2672687  32.3113275  17.4865103  11.4106035
  33.3275080  18.2246852  10.5659401  44.0602684  82.6214695  62.3389101
  43.3143711  82.2903538  61.8386841  44.0179253  83.5716724  62.2313976
  56.5115023 104.5878601  55.1082373  56.0240841 103.7825489  54.9346399
  56.8267679 104.8670292  54.2486429  72.0259380  49.4352531  67.0850611
  72.1540976  50.3632069  67.2818136  71.1418343  49.2439270  67.3980904
  93.4377670  58.0201817  86.9378090  93.6620712  57.6633883  87.7972412
  92.4844170  58.1042624  86.9547844  59.3285513  86.7447948  57.8420353
  59.6294165  86.5326691  58.7256193  59.0968275  87.6725674  57.8842020
  75.8489418  77.2455740  67.0319986  76.0398245  76.6957235  67.7919054
  76.0089302  78.1388474  67.3364639  67.1835136  86.4764786  55.3255987
  68.0713081  86.3673210  55.6663799  66.6587305  86.7043686  56.0929966
  89.8553753  87.9594326  82.1393681  89.5170498  88.6257648  81.5412331
  90.1151085  88.4482384  82.9202938  94.2888641  59.7321844  37.1709800
  94.8593140  59.8759794  37.9260564  93.4574604  60.1369095  37.4183893
  66.5290213  86.5351582  87.0158577  66.9008207  85.7389736  87.3954582
  66.9092703  86.5824699  86.1387062  76.2114954  73.3040667  72.8533077
  75.9778357  72.7068138  72.1427250  76.6280508  74.0462065  72.4151993
 116.0010153  25.3674054   5.8469361 116.1816389  26.1577392   5.3380358
 115.1449660  25.0728106   5.5360901  64.9609041  70.7336044  51.2893105
  64.1882181  70.2846146  50.9463930  65.1460123  70.2924490  52.1183777
  73.4991646  50.7527876  60.8161402  73.7233686  50.7943821  59.8864985
  73.4185696  49.8171616  61.0014534  67.8701878  57.6220608  53.0698824
  68.5117769  57.0794535  53.5283279  67.0475292  57.1392632  53.1496668
  60.7124853  12.7408826   1.2014459  59.8044109  12.4385333   1.1867343
  60.6919861  13.5347068   1.7359121  33.8042808 102.4363232  26.2452388
  33.2019162 102.5571442  26.9792628  33.3004308 102.7014732  25.4757857
  70.8603621  72.3003292  70.0991488  69.9714088  71.9589233  70.1962996
  70.7410192  73.2355833  69.9339533  61.7276430  16.6875041   0.5516287
  61.7620516  16.1224163   1.3234603  60.7932186  16.7892146   0.3707139
  44.7312832  20.0945902   0.7349592  45.4830456  20.4178977   0.2384131
  44.9310732  20.3173470   1.6441871  66.9448900  95.1368427  76.7422867
  67.8297186  95.4917526  76.6565704  66.9681358  94.6287632  77.5531816
  82.5992393 107.1947479  81.7607021  82.0563030 106.5611172  82.2297096
  83.4803009 106.8215942  81.7876911  44.4424772  66.5555143  76.5305805
  44.5253611  65.6509161  76.2288141  45.0379181  66.6142607  77.2777319
  85.2880478  90.8359718  49.6599674  86.0162830  91.3277626  50.0395298
  84.8650837  90.4174423  50.4097414  72.6270151  65.5985785  75.6861067
  72.1784210  66.2002039  75.0919342  73.4957457  65.4846191  75.3006840
  78.8448048  62.4801636  54.6379185  79.2433071  62.5893688  53.7744951
  79.5836878  62.4943352  55.2462626  22.2065043  48.6647415   4.2242458
  21.8378711  49.1086960   4.9879521  23.0843687  49.0351057   4.1324884
  54.5344019 103.7802505  50.0004578  54.0611839 103.0166245  49.6700430
  54.3769169 104.4610977  49.3463373  64.5291710  96.4626980  76.7683220
  64.7639179  97.3321152  77.0927334  65.3627157  95.9957886  76.7097712
  96.0007763  53.9708376  84.3168640  96.4477539  54.6541691  83.8173676
  95.8626842  53.2644224  83.6858749  94.9984550  83.3823013  79.5962334
  94.4499016  82.9478741  80.2493763  95.7988644  83.6102772  80.0690937
  82.6428604  62.8628445  44.8781013  82.5650978  63.7420559  45.2484751
  83.3406353  62.4495983  45.3866005  70.7561731 107.0640659  72.0110083
  70.7387400 107.4454784  72.8887653  71.4483786 106.4041138  72.0503426
  85.6639481 101.2240124  61.7335081  86.2250423 101.5185452  62.4509001
  85.2841568 100.4035282  62.0478296  75.6897402  84.1839027  42.1724606
  75.4237556  84.2171097  43.0913639  74.8849297  83.9767456  41.6974926
  51.7848206  87.0503902  62.3601389  51.8430662  87.2639084  61.4288759
  50.9082794  87.3365211  62.6171064  91.5522385 109.0835476  60.9182119
  90.7185078 108.8191986  61.3071108  91.3896179 109.0760326  59.9749565
  73.0180359  75.2394056  55.1788807  72.3256016  74.7544336  55.6278467
  72.5536680  75.9035730  54.6694899  76.3795376 101.1466026  89.2800426
  75.7472324 101.8651962  89.2867470  77.1879053 101.5357494  89.6137142
  70.9584761  77.6944017  83.9077759  70.4360962  77.4119043  83.1570816
  71.1077785  76.8937063  84.4105911  79.3153763  69.2181396  67.4514151
  78.5965967  68.5861158  67.4399137  78.8838005  70.0721550  67.4263668
  64.8517084  90.2875805  90.5067253  64.6214390  90.3360939  89.5789051
  65.6720924  89.7947502  90.5244541  51.1970568  91.8333721  38.4491944
  51.1694622  92.4021721  37.6798153  50.8041859  91.0119438  38.1539893
  81.8960190 107.5193977  63.4926176  81.3684845 107.2626114  62.7363062
  82.6037979 108.0471897  63.1228685  81.7994022  91.4329052  52.5739050
  82.7175045  91.6900730  52.6586342  81.4246464  92.0771980  51.9733477
  61.1319590  44.9316311  15.0949812  62.0441389  45.0163555  14.8175204
  61.1134768  45.3072786  15.9751964 115.5595684  26.2430954  83.6744976
 115.1421356  25.5596828  84.1988373 116.4864826  26.0044456  83.6641407
  85.9311199  78.0459833  63.6641121  85.2022457  77.6260853  64.1208982
  86.6919231  77.8753614  64.2193556  16.3971531  45.6666994  42.0189142
  16.8928659  46.1443710  42.6839924  16.0439765  44.9074984  42.4827194
  11.6173494  73.1258297  45.8798504  11.8126404  73.9269590  46.3659334
  10.6871665  72.9682636  46.0416031  76.0180521  85.6469536  86.9517231
  75.3822374  85.0717640  86.5261173  75.6402111  85.8260822  87.8127575
  59.4114161  79.2926693  91.2544155  60.0342703  79.5946455  91.9155502
  59.3165112  80.0352287  90.6579018  86.7331886  94.9523640  58.8548565
  86.5501690  94.0146828  58.7957716  86.5801048  95.2825260  57.9695368
  82.5905514  89.5940113  75.0032663  82.1737671  90.1143551  74.3164110
  83.3717346  89.2296982  74.5870304  62.8975439  57.5717402  24.1825652
  62.8462267  57.2942448  23.2679081  62.2506475  58.2733583  24.2566466
 106.2376308  96.6282082  71.2200689 105.7852364  95.8353615  71.5081072
 106.8886757  96.7936230  71.9019890  69.6205711  97.5522900  81.3585854
  70.3978872  97.6413536  80.8071518  69.9118805  97.0202255  82.0990467
  78.8460779  65.2795601  60.7297373  78.8133812  64.3635798  61.0056782
  78.1627274  65.7092237  61.2441874  86.9005108  58.4799004  63.1060410
  87.4227333  58.4072733  63.9049387  87.0036983  59.3919659  62.8345346
 104.9831104  99.1680813  73.8367224 104.8612022  98.5583115  74.5644236
 104.5160198  99.9589539  74.1061306  57.1980667  39.7314191   0.9200493
  57.9083490  40.3639650   0.8122689  57.5067711  39.1391683   1.6057386
  45.9357023  40.3821659   7.3434430  46.0205269  41.1069775   7.9628700
  46.7731953  40.3636551   6.8803024  62.7189541  19.7434628  10.0963175
  63.2799959  19.2089355  10.6582272  63.3282280  20.2129197   9.5265573
  18.0402148   8.9007521  19.6807659  18.7953615   8.9904720  19.0994430
  17.9908323   9.7389454  20.1403594 111.8279839 106.2193584  32.2444963
 112.5742340 106.4745331  32.7869225 111.3259029 107.0266247  32.1328259
 103.1489372  47.7682114  12.7422893 102.8075504  47.4672604  11.9002020
 102.3701477  47.9017115  13.2825613  74.5356464  78.5281372  86.9911385
  74.7766447  77.9652214  86.2554169  74.2111444  77.9238605  87.6587963
  96.4811707  94.9700928  78.5026550  96.4687634  94.0178204  78.5988903
  95.5745888  95.2378559  78.6531162  42.7410889  53.6060143  38.0593038
  42.5597954  54.4613981  38.4487700  42.2787619  53.6215591  37.2213030
  61.7010260 105.4452038  70.9947586  61.0104656 104.8707294  70.6640959
  61.2629652 105.9987640  71.6412210  12.3451674   2.7551448  60.6685972
  12.0092297   2.0777327  61.2555265  11.5969920   3.3323464  60.5159378
  98.3793926  96.0254288  84.9795914  98.6966610  95.5652618  84.2025375
  98.7146187  95.5127239  85.7151127   1.7497045  82.0206070  73.3207035
   0.8657226  82.3589134  73.4633827   1.7038067  81.1057949  73.5986185
 111.4772129  79.4798803  74.3547106 110.8050156  79.2996454  75.0118923
 111.2937546  78.8605118  73.6483383  64.4415092  84.6713257  70.1063633
  63.9589643  83.8893223  70.3744173  65.2632236  84.6249771  70.5951071
  83.9027500  75.4275036  70.7931185  83.3246994  75.1856232  71.5167093
  84.3637085  74.6177721  70.5738449 103.7821484  77.6781750  76.2985802
 102.8845024  78.0065489  76.3498497 104.2400646  78.1201363  77.0135784
  77.2192192  92.7270794  87.8833199  77.7250338  93.3735657  88.3757019
  77.2239351  91.9466591  88.4375381  79.0437746  96.0677147  59.8534536
  78.9783192  96.9655895  60.1786852  79.7814226  95.6920624  60.3340673
  75.2589798   6.5986210  65.3820896  74.7606945   7.3597807  65.6797171
  74.6336651   6.0898960  64.8659325 109.7619057   9.7582293  78.9213610
 109.2287254   9.1672432  79.4530439 110.2387142   9.1801631  78.3257771
  89.1192341  92.5151539  88.6039925  89.9539852  92.1892643  88.9404583
  88.5712528  92.6182747  89.3820190  36.5006280  56.1149073  90.2685356
  35.5627751  56.2192774  90.4290581  36.6709566  56.6456413  89.4903660
  66.1731958  27.0167613  13.6006093  65.9399557  27.9444528  13.6355305
  65.6125546  26.6039467  14.2574942  42.1039772  26.8317080  18.5724330
  41.7516041  26.7529988  19.4589281  42.8998756  27.3531961  18.6764789
  24.8464751   2.7074507  71.7835188  24.6064687   3.5465348  72.1766710
  24.8923922   2.1010235  72.5226879  51.2955141  99.3184757  86.1799717
  51.6918087  99.1725159  85.3209686  51.6893673 100.1339436  86.4900017
  86.9226265 101.8946552  64.1315985  86.7947865 102.5589466  64.8087978
  87.6331711 102.2383308  63.5900688  74.1305876  10.4353499  57.1547794
  74.2178774  10.9796000  57.9373407  73.9600801  11.0578418  56.4479113
  18.1348777  19.6541595  69.6962261  17.7890944  19.7656095  70.5818033
  18.6022282  20.4700923  69.5171404  47.4435425  45.5833483  54.3521404
  48.2728767  45.3076220  54.7425413  47.2772932  46.4476204  54.7284746
  98.8315582  89.1393852  19.4465292  98.6788177  89.9334335  19.9587846
  99.6084309  88.7446117  19.8425579  38.9351320  36.2749171   5.0502390
  38.2278204  36.2626171   4.4054192  39.7169423  36.0350418   4.5527801
  93.2858944  98.3911896   5.0606185  93.4239864  99.2999268   5.3277516
  93.6988735  98.3293438   4.1993076  41.6107273  55.7503557  27.5363278
  41.7714834  55.3915405  26.6636086  41.7233324  55.0049877  28.1262231
  66.8940830 103.4679127  60.1202250  66.4969158 102.6045036  60.2342987
  66.1503267 104.0666866  60.0530005 103.4336281  67.0707130  89.6813011
 103.8567829  66.9642305  90.5332565 103.7480450  67.9164410  89.3617439
  61.0567665  97.0534229  65.0132751  61.4310217  96.2810802  64.5894051
  61.7457104  97.3607540  65.6024551  57.1721506  44.8566103   3.4412929
  57.8251839  45.2636814   2.8720200  57.6765537  44.5198488   4.1818333
 112.1666813  57.9520512  73.6288452 112.6058769  57.2328854  74.0828705
 111.6575813  57.5249767  72.9398870  68.8376665  80.6163406   0.9608741
  69.7535706  80.4212761   1.1591178  68.7874413  81.5720844   0.9769075
  64.5491314  68.6072493  61.3148737  64.9711514  69.4566250  61.1856604
  64.6660423  68.4209681  62.2464657  32.1628165   6.8508357  58.6681795
  31.6012955   6.0757416  58.6806107  31.6314220   7.5380385  59.0701818
  88.0829048  97.6449013  62.3850775  87.7709866  98.2921028  63.0175829
  87.7213955  97.9349327  61.5475655  10.4126179  24.3630862  31.3382483
   9.9105710  25.1235104  31.6313982  10.2146387  24.2908406  30.4045367
  55.7999992  57.1524572   7.4659222  55.2591658  56.4229965   7.1632409
  55.4200363  57.9233313   7.0444822  84.8289585  92.5424480  20.4861426
  85.6595230  92.7512836  20.0586176  84.1659832  92.9674435  19.9420130
  76.5412855  80.6072712  83.3635712  76.8412304  80.5743408  84.2719650
  77.2079325  80.1258564  82.8736210  67.8890228  73.4347343  74.6225357
  68.2714081  72.8712940  75.2952480  67.9075003  72.9036379  73.8264036
  81.1622810  85.1491737  73.5294962  80.7670307  84.3329716  73.2231855
  80.8325386  85.2548409  74.4218683  89.5478535 103.7817383  52.1348476
  90.2821541 103.9933872  51.5584469  89.0605068 104.6018791  52.2128963
 111.1186695 101.3135719  40.8069706 111.4614677 101.8591499  41.5148306
 111.5742397 100.4776669  40.9067392  96.0244846 107.9500198  61.4146996
  95.3852749 108.6130047  61.6756487  96.7793274 108.4525776  61.1083221
   4.2045695  16.3822770  87.1473789   4.4157991  17.3041368  87.2949791
   3.2490641  16.3609755  87.0945740 103.1511497  91.7979050  44.6174002
 102.6869488  91.7898178  43.7803364 102.6208591  92.3623466  45.1799154
  27.7808475   9.5011413  33.2166123  28.5808468   9.6937525  32.7275991
  28.0318666   8.8025594  33.8209343  99.2349434  97.2358704  59.4379044
  98.5923672  97.2311306  58.7284613  98.7245655  97.4382401  60.2219868
  33.1396012  41.4541363   1.0016025  33.1205229  40.9124112   1.7905296
  32.2300343  41.4762997   0.7042182   4.7363132  54.3010616  85.3660583
   5.3225887  54.7534323  85.9725857   5.1771587  53.4719753  85.1803112
  42.8223276  64.3733740   1.7888214  42.7830315  64.5837784   2.7217835
  42.7534533  63.4192371   1.7553656 104.9421597  92.0066929  91.9984245
 104.2081547  91.7233086  91.4532948 105.1264191  91.2549877  92.5616550
 102.5952148  88.9759636  74.5517921 102.2144985  88.5026932  75.2915859
 102.4522972  89.8994446  74.7591257   4.9643418   1.6109565  83.8947678
   4.0192544   1.6118869  84.0465641   5.0565386   1.7814469  82.9574013
  93.1449413  94.8326778  65.6294346  93.3519268  95.2584553  66.4613581
  93.2568645  95.5209827  64.9737358 116.1349201  10.1178956  76.0003090
 116.6465664   9.9071372  76.7813492 115.7163906  10.9536922  76.2064838
  13.3292687 108.4700584  68.0421782  13.6102283 109.3850613  68.0343294
  14.0923035 107.9879379  68.3608818  84.7051716 104.2872524  80.4762363
  83.7681484 104.0950966  80.4401684  84.9912739 103.9276218  81.3159084
  18.5416090   3.3713016  66.3939095  19.4245934   3.0324450  66.2464380
  18.1501949   2.7574673  67.0153904  57.2393656  69.5916033   5.4730713
  57.1050692  69.8717403   4.5676875  57.5864124  70.3667164   5.9146446
  81.0806847  99.5942020  67.6841068  81.5985107 100.3919983  67.7918863
  80.4823399  99.5942688  68.4312439  93.6855602   3.8519311  72.7825880
  93.2615948   3.8372248  71.9245243  93.6485481   2.9440537  73.0836201
  67.2237921  28.7088799   2.1306244  67.2778368  29.1727638   1.2950861
  68.1355143  28.5614300   2.3821205  23.4787324   0.4260124  94.7678576
  23.8974526  -0.0490557  94.0500733  23.6642793  -0.1015793  95.5446821
  11.9856155  16.5283966  26.2189603  11.7525089  16.6212487  25.2952337
  11.9697022  17.4222517  26.5610170  99.3531513   5.6535655  61.7297935
  98.5203075   5.7554781  61.2691116  99.1934299   6.0235173  62.5980425
  56.5738392  93.6656857  63.4770823  55.9999132  93.6036968  62.7135420
  57.3113871  94.1984367  63.1797075  52.3067570  38.1033421   3.6119074
  52.4814844  37.2554255   4.0202427  53.1285810  38.3346415   3.1790844
  38.3567381   3.7385762  64.6565151  38.9213848   2.9669628  64.7014332
  38.7937903   4.3876153  65.2078438  94.5216084  93.0438042  29.1669393
  94.6641254  92.4513245  29.9051023  93.5707188  93.0689621  29.0601349
   4.9196002  72.1575642  58.2129145   5.3116035  71.5050077  58.7932014
   5.3063285  71.9789505  57.3557281  63.3945704  81.2981892  81.3524532
  63.8088417  82.0799732  81.7177296  62.4750376  81.5418816  81.2461281
  11.6751540   1.2494597  83.1553841  11.4757252   0.3243896  83.2992840
  12.5858605   1.3443562  83.4343910  55.2925825 100.8283424  72.7327776
  56.1770153 100.4663658  72.6781893  54.7206926 100.1016331  72.4856520
  10.5597842  90.9385967  67.2717905   9.8041153  91.5041161  67.1124506
  11.0078001  90.8938503  66.4270973  49.9410629  30.0221753  30.8253336
  49.6140432  30.8325672  31.2159181  49.4280529  29.3306899  31.2435436
 104.7837353  88.2155418  66.0617447 105.1897812  89.0627956  66.2448454
 104.1375923  88.1039143  66.7590809   4.0044710  27.5618958  38.4438825
   4.2620799  27.7434993  39.3477035   3.0480599  27.5320911  38.4688139
  95.3673649  87.8546238  62.9439640  96.2755394  88.0281258  63.1916285
  95.3893852  86.9835663  62.5477362  12.5650167  92.8198051  81.2710857
  11.8635011  92.6792526  81.9069672  12.6206493  93.7712479  81.1822224
  42.2277784  13.6823022  10.9282565  41.3234186  13.9122248  11.1415672
  42.1788406  12.7766848  10.6221604  53.3856153  81.9817734  63.9755106
  52.9864979  82.8505230  63.9285851  54.2851496  82.1464062  64.2582893
 100.5223274  74.0717173  12.5860488 100.5716991  74.8683643  13.1143916
 100.2976513  73.3829594  13.2116413  21.1985850  74.5919847  48.4001637
  21.0439920  75.4173660  48.8595963  21.3417339  73.9526081  49.0979767
 107.9390812 102.1363449  18.2230759 108.1755924 102.6884556  17.4777794
 107.8586388 102.7458954  18.9567053  56.1345387  70.1452780   2.4670598
  55.5941486  70.7897758   2.9240400  56.9649982  70.5954790   2.3124842
  67.5484753  92.7085876  67.0756769  68.4743595  92.5793934  67.2812843
  67.2931099  93.4735680  67.5912571 115.4294967   5.8660936  71.6121292
 114.8813398   6.6441518  71.5102434 116.3261915   6.1946994  71.5474129
  77.2538233  72.5604963  85.8131027  78.1749725  72.7833700  85.9474277
  77.2253704  71.6063881  85.8845139 101.8618298  56.2707663   7.0159096
 101.1673260  55.6121206   7.0243847 101.4275837  57.0802069   7.2851044
  61.0567188   0.9636714  47.5161314  61.5074778   1.6685940  47.9810333
  61.2304306   0.1817411  48.0401897  85.7724857  74.2159843  88.5097218
  85.6273270  74.0023041  87.5880337  86.2679672  73.4723377  88.8528252
   2.9250994  96.7112541  76.0861397   1.9884351  96.9024658  76.1343908
   3.3479524  97.4951458  76.4367676 109.9811077   7.5803602  65.7762098
 109.2037296   7.0929056  65.5036211 110.4152489   7.0057321  66.4067316
  93.7532330  77.1120787  82.8787899  93.4807777  77.5149250  82.0543385
  94.6222878  77.4760914  83.0475426  60.7950020  59.9505663   8.9911968
  61.5845108  59.9843884   8.4510458  60.6622314  59.0183544   9.1631973
  52.8094244  63.2913351  24.4648504  53.0241966  64.0926504  24.9423456
  52.2583103  62.7932310  25.0685048  20.4131460   8.4162694  53.4771252
  21.1165380   7.7836758  53.3311939  19.6325040   7.8793001  53.6131239
  86.5987015  11.6044950  72.4102879  86.3700962  11.2526333  71.5499592
  87.4057674  12.0969963  72.2608948  59.7950459  83.9978695  82.3914146
  59.7326088  84.5324135  83.1829929  60.4340792  83.3196354  82.6101875
  97.6724815  70.9187555  69.1181469  98.1571484  71.2875128  68.3796740
  98.3502483  70.6024027  69.7154570 108.9955807   1.2716638  92.3706532
 109.8738670   0.9999424  92.1041775 108.6631584   1.7718577  91.6253185
  24.8509955   0.9244543  48.5678959  25.1220155   1.7494267  48.1651545
  24.2983508   1.1874063  49.3038797  42.1542597  78.6881018  63.2810354
  43.0929756  78.8574934  63.3607483  41.7430592  79.5371437  63.4431314
  80.9216118  65.4950285  81.2613297  80.8269787  66.2699080  81.8152714
  81.7608070  65.1154041  81.5218639  59.5696545  88.0192757  87.1013069
  60.4770660  87.7834892  87.2942829  59.3309927  88.6380386  87.7915382
  26.0355496  13.3488500  70.6233549  26.8737745  13.7640417  70.4203081
  25.7712007  12.9298317  69.8043489  92.0840168  70.1323891  91.7254639
  92.6383877  69.7916651  92.4274635  92.2710228  71.0709572  91.7067432
  58.4059477  86.7518330  79.8698425  58.9299393  87.1353531  80.5731106
  57.5510740  86.5901947  80.2689552  80.6626225  93.3998299  51.1528444
  79.9745989  93.5784149  50.5117750  80.6774616  94.1772366  51.7111015
  82.2050476  97.7330780  60.4802513  81.5026093  97.8816605  59.8472118
  82.9759598  97.5486183  59.9436855 107.6636410  92.5691795  49.2176199
 108.2322979  92.9508591  48.5489035 107.3311710  91.7650604  48.8187695
  38.6393309  35.3560448   9.6556544  38.2094026  35.8341074  10.3647733
  39.1389608  34.6697593  10.0979376  43.2652140  91.7370129  65.0708389
  42.4915934  92.2255611  65.3520155  43.5513639  91.2693024  65.8554363
  76.9218731  82.1579170  57.9264307  77.5676441  81.9317436  57.2570658
  76.4632368  82.9184818  57.5694752 102.2090054  86.9243908  65.2371359
 102.3544598  86.0799503  65.6637383 102.8244781  87.5187206  65.6663179
  92.6823616  79.9738932  76.3331556  92.6322842  80.6327629  77.0256948
  93.3127117  79.3314219  76.6589355  49.9954367  76.5590334  70.3432751
  50.5511570  76.1033869  69.7109842  49.1090631  76.4654684  69.9942541
  90.1034546 105.0727654  92.5072765  90.5535984 105.9125328  92.5988579
  89.6690273 104.9407291  93.3499336 103.7492657 106.0188770  28.1011248
 102.7965355 105.9515095  28.0379295 103.8990307 106.7870903  28.6521697
  99.8414707 108.3867455  77.6835346 100.3649998 107.6089191  77.4908257
  99.5813370 108.2797241  78.5984707  78.9168262  74.0615368  50.8346033
  78.6831379  74.9124575  50.4637194  79.2431211  74.2638969  51.7114258
  78.8779640 101.9342041  43.1990337  78.5450459 101.2478733  42.6207972
  78.5889387 101.6720390  44.0730858  38.7801671   3.3651412  69.4621563
  39.5304632   3.1414172  68.9114857  38.0179858   3.0967984  68.9490223
 102.1870136  96.4346123  73.2093573 102.5915623  97.1762848  72.7593565
 102.5206852  96.4869213  74.1049910 108.6210632  42.3140430  34.6468210
 108.1032753  41.6084671  35.0344992 108.9812660  41.9342947  33.8453960
  91.0360241  88.8818645  55.4725885  90.3651142  88.5648632  54.8679304
  91.8470860  88.4784126  55.1633358  52.5871468 109.7006989  78.9627647
  51.6301489 109.7169304  78.9740515  52.8160429 109.7183037  78.0335045
  59.1258860  46.9270420   5.8185840  58.2109499  46.6459322   5.8288252
  59.4766331  46.6316223   6.6587824 106.3629723  10.6145704  33.8119054
 105.7663822  11.3322031  34.0247846 107.1535397  10.8022285  34.3178868
   6.0289139  10.0460446  80.4425716   5.3118992  10.4000258  80.9687042
   5.6153226   9.3840086  79.8885965  47.4650621 105.2445698  56.0574436
  47.4524546 105.9687996  56.6831923  47.7397394 105.6453609  55.2327299
 103.3841038   8.4830517  91.2723637 103.6555576   7.5651652  91.2778378
 104.0194893   8.9173377  90.7032394  36.0663581  31.9530058  91.7325592
  35.3574777  32.5120640  91.4144707  36.7232847  31.9800925  91.0368919
  24.8932791  54.0356016  25.9887600  25.1802897  53.1388330  26.1609912
  25.5945134  54.4137955  25.4582214  79.7200537  71.6120577  87.2219276
  79.3445730  70.7320070  87.2494125  80.6043339  71.4845514  86.8783855
  83.7987041  98.8838387  75.7032108  84.3202305  98.1023407  75.5201387
  83.1102180  98.5792637  76.2943506 104.0160847  75.4416847  40.1096010
 104.3189716  76.3258934  40.3161621 104.6614933  75.1067305  39.4871163
  72.1770382  59.1264439  29.9234009  72.7053070  59.2541456  30.7113433
  71.8295813  58.2386732  30.0092745 111.7360973 101.8469429  76.4741993
 111.7506027 100.9004974  76.6165543 112.4237919 102.0023346  75.8267641
 100.2388763  69.6147251  73.6674404 101.1108971  69.9779606  73.8219452
  99.6490574  70.1946878  74.1490889  88.8677120 108.3361912  61.6327572
  88.5469246 107.5725937  61.1529207  88.0966663 108.8932610  61.7395163
  46.4530754  14.8897910   4.0536764  47.2185326  15.3798962   4.3538469
  46.7722654  13.9949512   3.9370069  60.5179548  92.5339890  68.5811615
  59.6396589  92.9118347  68.6265755  60.3709650  91.5884399  68.5572481
  56.0147047  80.3925705  78.1943512  55.5842829  80.9045124  78.8791037
  56.8411732  80.8492947  78.0375814 108.6194420 100.8062077  30.9644175
 108.3702278 101.6912365  30.6982684 108.8625336 100.8928108  31.8861747
  50.4805803  37.4316168   0.4824010  49.5399046  37.2764349   0.3970656
  50.5465317  38.3276796   0.8124782 114.5662212   8.4889752  44.1175079
 114.7722626   8.3172458  43.1986570 115.0987816   7.8597587  44.6040297
  17.7594090   2.6793650  60.8399963  16.9598949   2.2488615  61.1427784
  17.7887833   2.4968138  59.9008226  33.9728451   2.2340509  69.0083551
  33.3207154   1.8182945  68.4443474  34.1527700   3.0745834  68.5872078
  57.3369265 103.1454754  63.1390858  57.9121876 103.8391113  62.8163195
  57.5863838 103.0350018  64.0565825 112.3352337  81.0723972  29.2429972
 112.9028988  81.7665195  28.9080739 112.4768543  80.3380394  28.6455965
 115.5282116  75.3819227  79.1544724 115.1112747  74.5333290  79.0051889
 114.9815559  76.0049105  78.6756372  41.9375467   1.8814473  84.2287159
  42.8181410   1.5691932  84.4367695  41.7743444   2.5786477  84.8639393
  48.4983969  73.5525274   1.8966481  49.3612337  73.6936712   1.5070055
  48.1935740  74.4299412   2.1278533  78.4771490 103.3194733  62.3053789
  78.1442976 102.4359417  62.4629354  77.7163696 103.8873577  62.4276209
  54.6841717  65.5889559  17.7216601  54.6612501  65.9707022  16.8441772
  54.3524361  66.2816429  18.2929492 114.9547195  73.0923414  47.6838303
 114.6812248  73.4920597  48.5094595 114.5041847  72.2479916  47.6656914
  62.7669811  76.9805861  31.0715604  63.3164072  77.7457285  30.9015012
  62.7237320  76.5251398  30.2307701  96.8824196  61.7240286  69.9894333
  97.4983788  62.4365520  69.8187399  96.1868000  61.8489647  69.3438911
  14.7048545  88.5766125  68.0231428  15.2699673  88.9508152  67.3472357
  14.2442703  89.3293285  68.3939743  92.4755001  70.9051418  55.8761883
  92.0428181  71.0389042  55.0329065  91.7590809  70.7427979  56.4898920
  26.6171670   9.6556836  70.6733847  27.5729394   9.6458107  70.6220531
  26.3721609  10.5419040  70.4072714  82.0375824  91.0591125  43.8774395
  82.0479870  91.9319725  43.4847116  82.9338646  90.9242344  44.1851997
  54.2014933  60.0852776   0.6634763  54.5863819  59.3730640   0.1527418
  54.6919966  60.8630133   0.3974636  68.8182735  83.0515480  75.0248480
  69.4274378  83.7545872  75.2504206  69.0584421  82.3305988  75.6068993
  23.2162595  51.1402941  24.6454525  23.7203503  50.3484011  24.4583035
  23.6150646  51.8138647  24.0945530  96.2896252  76.3378906  80.8096790
  96.4086056  77.1690845  81.2692356  96.4429474  75.6703997  81.4783955
  98.7240601  88.6612034  78.8729429  98.4046555  88.9026928  79.7423649
  99.1649246  87.8217983  79.0043640  96.9828892 101.4022827  80.9203148
  96.5494633 102.1600056  80.5275822  97.7304649 101.2305546  80.3477097
 101.8969154  28.9997673  76.1360025 101.4754868  29.7052979  75.6452274
 102.3155880  28.4590268  75.4662657   6.5754372  18.3993208  59.5662975
   6.2246585  19.2597651  59.3364668   5.8156955  17.9055858  59.8749208
  25.4652643  89.4438457  82.7814865  24.6834469  89.9158478  82.4947643
  25.1341629  88.7711716  83.3765507  83.3573627  92.9409218  56.1740398
  84.2479897  92.5931358  56.1286116  82.7949333  92.1736145  56.0685062
  47.3337746  94.6296310  75.5445290  47.4726582  94.2107773  76.3939476
  48.1907988  94.9856758  75.3100681  83.7137794 103.0904293  61.2426949
  84.0834522 102.2638702  61.5531349  84.2390633 103.7646103  61.6737318
 106.3179684  92.7929306  55.8454609 105.3760147  92.8327084  56.0108900
 106.5373135  91.8651962  55.9316349  33.9150047   1.8169540  13.3150065
  33.6173534   0.9079603  13.2780349  34.8165488   1.7610742  13.6317492
   5.0279492  32.5764251  67.0573664   4.6664113  31.7196226  66.8306303
   5.5710649  32.8137326  66.3057423 109.1899109  17.7296305  41.0026121
 110.0158501  18.0445445  40.6353426 109.3994141  17.5112176  41.9107056
  95.1278114   3.5920408  66.7157841  95.7841682   2.9860529  66.3719654
  94.3358135   3.3966720  66.2149954 114.2160225   2.0180903  45.8775949
 113.2669353   1.9993526  46.0004902 114.5655441   2.2286882  46.7434549
  61.2292242 106.0853672  89.4824696  60.7152128 105.6761456  90.1785660
  62.1226025 105.7751942  89.6304607  90.9184647 102.3753834  93.2302570
  90.8487225 101.8381310  92.4411201  90.5934048 103.2354164  92.9639816
  47.6496792  90.8758068  75.6324482  47.0450258  91.1908817  74.9606133
  47.7294874  89.9373341  75.4617500  93.5808849 105.4488850  73.7998295
  92.7702332 104.9535465  73.9169073  93.8122082 105.3158665  72.8805780
  71.8032646  69.5289564  62.0004797  71.4545107  69.8073435  62.8473043
  71.6899014  68.5785055  61.9955111 105.2569866  85.1779366  79.2502689
 104.6954441  85.4596710  78.5280991 105.6655025  85.9844494  79.5647192
  69.8676825  77.7908659  76.0809088  69.6334171  77.0818233  76.6797495
  69.1354561  78.4046841  76.1383963   5.8048832  97.6733589  71.2619638
   5.1220894  97.7301121  71.9303942   5.3324968  97.4758530  70.4532146
 108.0875301   8.4497577  61.3374233 107.4591064   8.1376517  61.9885063
 107.8059673   9.3434829  61.1419582  23.4874988  15.0681674  23.4433222
  23.4739709  15.6723809  24.1856003  23.9768267  15.5332971  22.7647614
  79.7220135  82.6303196  91.1364174  79.8155117  81.8248558  90.6277752
  80.5948544  82.7893925  91.4956951  75.6480026  98.1626034  78.7026787
  76.4181376  98.5809612  79.0875149  75.4403925  98.6999702  77.9382372
  99.7866058 108.8653851  48.6357880 100.0906563 109.1188717  47.7642822
 100.2265644 109.4739437  49.2293549  17.5214112  13.1411231  90.3930759
  17.1866465  13.7107491  91.0856724  16.7621589  12.9699075  89.8358917
  41.2740946  12.2738564  64.9794197  41.8514776  12.1927750  64.2202806
  41.3263369  13.1982195  65.2224302  86.3517380  92.2150898  42.3836613
  87.2046852  91.9326687  42.7137375  86.5115738  92.4377251  41.4665365
  64.1186047 105.7074165  89.8181629  64.2745066 105.7547474  88.8749313
  64.6101236 106.4450455  90.1794815 103.4188175  91.4143562  80.8150768
 103.7811661  90.6212807  81.2099934 102.5356770  91.4807796  81.1782265
  23.6662698  27.4741697  64.1570282  23.6992979  28.4301519  64.1921949
  23.0588412  27.2296524  64.8552179   5.1836073 107.2892284  58.1304836
   5.1189476 108.1922150  57.8195906   4.7543776 106.7703819  57.4501896
  19.6501374  15.8166981  78.4249592  19.0666509  15.0647295  78.5265446
  19.6418703  16.0011113  77.4857283  40.3917360  13.8944721  93.1140518
  40.4416752  14.6093941  92.4795246  39.5233727  13.9831114  93.5068893
   0.4779932  14.8779452  37.2281885   1.2864664  14.4695020  36.9187117
  -0.1029821  14.1423488  37.4220872  97.6799583   3.9647019  80.7094002
  97.9390621   4.0748590  79.7945356  98.4216213   4.3034405  81.2108231
  96.0288620  78.2086945  78.6167717  96.0197830  77.7002001  79.4276857
  96.5418911  78.9884949  78.8287783  18.9608872  22.2748852  71.8551016
  18.1297219  22.1251845  72.3056412  19.5775580  21.6842413  72.2876406
  87.3587418  89.4644070  89.7062397  88.3035278  89.4715118  89.8596859
  87.0037174  88.9379501  90.4225063  90.7107162  75.6091785  85.1325703
  90.1919270  76.3521481  85.4409313  90.2605629  75.3149223  84.3407345
  28.1274343  21.9613361  38.4641647  27.2426963  21.8689203  38.1107092
  28.1367826  21.3966799  39.2370224  12.0119107  39.9314380  71.7087793
  11.4468801  39.8654318  70.9389639  11.4104664  40.1033926  72.4333000
  30.4428530  41.1098909   1.0203096  30.3532457  40.2910995   1.5079410
  29.8922634  41.7327309   1.4948085  93.5356998  44.0550470   1.6883510
  93.1028557  44.6738577   2.2765315  94.4589615  44.3064022   1.7135562
   7.5796896  59.3609524  61.2939787   7.4599224  59.2371082  62.2355461
   6.8918407  58.8295460  60.8930969  51.8622208  57.9225016  17.1204424
  51.0329580  58.3979893  17.0708179  52.2714376  58.0649519  16.2669313
  95.0562000  96.3545418  75.4562283  94.9995708  96.7328453  76.3336754
  94.7696018  95.4480267  75.5672836 105.4477978   2.0939402  73.5724497
 104.9038982   1.8453208  74.3198395 106.3458824   2.0255218  73.8965034
  96.8052387  78.4049511  85.8347321  97.7569294  78.4699917  85.7554436
  96.5475845  77.8010416  85.1382065 103.3172417  11.3641977  58.9326811
 102.5475979  10.8710408  59.2166948 103.5986614  11.8399513  59.7141552
  47.6268578   5.2972060  37.1323562  48.2918549   4.8853037  36.5806794
  46.8048477   4.8872438  36.8631649  97.8907681  80.9800529  88.9243412
  98.0147839  80.8905029  89.8692417  98.5783768  81.5863228  88.6489201
  19.7817433   6.9444442  71.5712500  20.0117636   7.7431107  71.0964298
  20.4255843   6.2987947  71.2799788   7.9268181  39.8177552  30.2675104
   8.2768321  40.2418518  29.4840145   6.9950885  40.0370455  30.2625847
  90.9891129 109.2353153  67.9294825  90.7876873 108.8440418  68.7795210
  91.8303013 108.8512135  67.6823092  89.0901279  96.3478661  84.1656399
  88.8017559  95.8362389  84.9214840  89.2907429  97.2124386  84.5240879
  16.3209641  13.9590716  83.0627346  16.9643700  14.0546966  83.7649536
  16.7888212  13.4907258  82.3713589   3.8436082   8.6603737  47.1478844
   3.2685465   7.9374796  46.8969679   4.7282919   8.3111393  47.0401716
 105.3124237  95.0696754  45.2520466 105.8179474  95.8201313  45.5643082
 105.7737827  94.7810650  44.4645929 108.6552143   0.6858324  59.8548889
 108.2043839   0.6846932  59.0105057 108.1488895   1.2917614  60.3959179
  12.9528475 103.1741238  73.0380821  13.2926774 103.6128235  73.8180065
  12.0024872 103.1856823  73.1517172  36.5604448  64.2750597  11.7234445
  37.1905017  64.8875856  12.1030152  36.8150091  63.4215832  12.0741677
  15.2868080   9.2919236  65.8542538  14.8198056   8.4612077  65.9439850
  15.6814361   9.2519557  64.9831057  77.6054049 102.9971981  55.8593607
  78.5360765 103.0527210  55.6425762  77.2027826 102.6005173  55.0868464
 113.9097214 107.6963711  63.1105089 113.9563370 106.8409634  62.6835012
 113.0122280 107.7516842  63.4386349  36.4081740  57.6224852   3.1583095
  36.1739802  58.4817696   2.8075710  36.0858226  57.6356697   4.0595016
  77.9218674  94.2969513  66.8423319  78.5943937  94.2166042  66.1659575
  78.2447863  93.7602234  67.5661278  85.5973530  98.4672546  72.2874022
  84.6654129  98.4798050  72.0693064  85.9373474  97.6917076  71.8411350
 115.6390667   3.4759590  57.5525188 115.8712673   2.8963801  58.2780552
 115.7741261   4.3583032  57.8981495  25.2474403   7.6567525  82.7878189
  25.7525921   7.3121625  83.5242367  24.4400144   7.1426624  82.7898026
  17.7514434   1.1053532  48.2742739  18.3187377   0.3451316  48.4026146
  16.8631709   0.7512163  48.3165741  24.4388676  15.9111142  70.5004072
  24.7531152  16.5960169  69.9101639  24.8140907  16.1375785  71.3513803
 103.7580490  97.6311207  39.1945529 102.8538704  97.3205090  39.1475439
 104.2820740  96.8897057  38.8913417 109.0438461  92.7255440  73.7253571
 109.7769070  93.2224655  73.3621407 108.3599186  93.3792782  73.8705921
  15.7097363   0.6643256  89.7571373  15.3314137   1.4012420  89.2774963
  15.8559847  -0.0060833  89.0897560  94.5694447  92.4369049  65.0672674
  94.2846203  91.9703865  64.2814779  94.0511322  93.2416248  65.0691509
  12.5789595  19.0854728  41.0558033  12.0457089  18.4656274  40.5581427
  12.0185924  19.3523729  41.7844915  39.3491411  10.3150713  66.1798668
  38.6872792  10.0041807  65.5621910  39.7433949  11.0725105  65.7473373
   1.4258483  24.0561533  44.7735977   1.6810007  24.4406629  45.6122160
   2.2006178  24.1533017  44.2199469  53.9504099  50.8445454   3.0656242
  54.3712330  50.7482147   3.9199436  54.6768141  50.9515953   2.4515289
  17.3050261   5.4067248  67.8198385  17.2288799   4.9519435  68.6586523
  17.3347509   4.7054577  67.1690130  92.6586533 104.0681934  70.6131458
  92.3156643 103.8435841  71.4780998  92.0289898 104.6977901  70.2619028
  70.9807253  78.1118011  45.6749296  70.7783794  77.7353621  44.8184347
  71.0284138  79.0546703  45.5169296  81.1814690 105.5936241  70.2533627
  80.3775311 105.8283806  69.7898912  81.3044262 106.2969017  70.8909512
  39.9723172  66.2228680  12.6490283  40.7533169  66.7439651  12.8353930
  39.9390173  66.1745071  11.6936314  19.1619742   9.3436706  47.9321718
  19.8983479   8.7513769  48.0844021  19.4595075  10.1878428  48.2714033
  21.4688754  22.5136328  67.6681042  20.5978370  22.6566148  68.0383492
  21.3086390  22.3320246  66.7420483  10.5847907  29.1474605  77.8314734
  11.3786137  28.7618923  78.2021713  10.8076298  29.3216705  76.9170189
   4.1205892  13.7713075  87.7516270   5.0360131  13.4918690  87.7395916
   4.1600168  14.7243500  87.6717091  54.3741179   5.3464425  49.1652250
  54.3230057   4.7723493  49.9294472  53.4701538   5.6207508  49.0108347
  27.3061609  42.2106886  86.2404823  26.7789745  42.6873589  86.8816376
  27.6752687  42.8926992  85.6793594   7.3557997 102.5725079  46.9316530
   7.0782429 102.2830677  46.0625029   8.0466771 101.9580650  47.1794176
  12.8324068   7.7378029  81.0344124  13.3768213   7.6249379  80.2552414
  12.1018004   7.1329039  80.9057808  60.1204729  73.8138294   2.1828796
  59.8570108  74.6276522   1.7533265  59.6546030  73.8226366   3.0190146
  71.7650318 105.4428005  83.9376831  71.2352562 104.6470070  83.8898087
  71.9307709 105.5643082  84.8725605  48.0695057  71.4409161  20.0813293
  47.3214722  71.9724464  20.3536439  48.0301189  70.6665850  20.6426573
  35.2904940   5.3122908  76.7593956  35.8468676   5.5396169  76.0144138
  35.5840826   4.4392964  77.0200062 109.8596287  14.4344866  88.6787701
 110.2444363  14.9387002  87.9618931 109.5394897  13.6336792  88.2634926
  34.3064356  15.3898752  87.0331955  33.8211918  15.5201721  87.8479290
  34.6663904  16.2527966  86.8281841 102.5106335  82.8944492  86.7138577
 102.6217079  83.7726784  87.0780182 103.3349323  82.4484634  86.9084072
  39.3745494  35.9917092  68.5764503  39.5770931  35.2104163  68.0618715
  40.1589632  36.5355968  68.5049391  75.1917648  77.5961447  84.5102310
  76.1178160  77.8378534  84.5256233  74.8368454  78.0558777  83.7493706
  45.9046745  21.9971132  91.3680649  46.0582924  21.2961173  90.7346249
  46.2490129  21.6543746  92.1928024  39.4351315  56.4188766  10.4029143
  39.9602127  57.0109034  10.9414554  40.0786066  55.8923101   9.9286765
  49.3538570  82.3757458   4.0505111  48.9187908  81.5889359   3.7220627
  48.8636303  82.6091194   4.8388323 113.6626530  89.2055511  91.8846703
 113.8266945  90.1134682  91.6296959 114.1701603  88.6861992  91.2610245
  45.0745201  46.2859774  13.7604022  44.6640825  46.9646740  13.2245433
  44.3409920  45.8326960  14.1759777   2.1043152  24.8459148  47.4370623
   2.6276803  24.6996331  48.2250500   2.1078061  25.7959437  47.3201609
  77.2940063  89.8211098  66.5942001  77.5254107  89.2012405  67.2859049
  77.8901434  90.5586338  66.7242527  33.0336165  14.8822427  82.0719814
  33.5739017  15.3089118  82.7370167  32.1598220  15.2513576  82.2003174
 107.9892159  93.4416103  53.9164925 108.2476044  94.3621349  53.9622307
 107.3662949  93.3317089  54.6349096  74.6303606  93.4771347  83.8727283
  75.3180265  92.9469967  84.2756081  75.0966692  94.0565681  83.2701969
  18.4325135   5.3898758  61.2773466  18.1702387   4.5790687  60.8414173
  18.1670165   5.2684003  62.1889305  52.1857405  68.8504124  19.1956449
  53.0675173  69.0515137  19.5090985  51.8162727  69.7008467  18.9579737
  64.3584156 104.4743729  63.7735605  65.0534439 104.2753124  63.1462288
  64.2362261 103.6602688  64.2619658  22.8724909  73.7842321  66.3036156
  22.9963112  72.8962564  65.9683561  23.3914685  73.8112926  67.1074581
  60.2254629 100.0996971  90.5603695  60.7483912  99.4655514  91.0509205
  59.3227863  99.9204636  90.8235836  23.1397462   4.4347981  48.5909128
  22.4322224   4.0148211  48.1017685  22.6965213   4.9045336  49.2974043
   7.3633575  11.1731684  92.9276180   7.4087381  12.1288204  92.8975868
   7.5674570  10.8955133  92.0345974   3.0015332  27.9577494  79.8703051
   2.5843659  28.8192511  79.8663616   2.2815062  27.3423386  79.7322273
   6.9995213   0.1512438  76.5015936   6.2723202   0.7582596  76.3639641
   7.7610040   0.6034783  76.1384678  17.9946160   5.6855685  91.5685368
  18.9367342   5.5579126  91.6796684  17.8919053   5.9207058  90.6463718
  86.1029816  96.9526863  86.8898010  86.0951710  97.4485111  86.0710621
  87.0048523  96.6431808  86.9737911  98.3992386 107.0733833  28.9935088
  98.2887459 106.2062168  29.3834472  99.3194485 107.1027470  28.7316227
  86.7108440 107.7797604  65.6699371  87.2424030 107.9654598  66.4440155
  87.3139858 107.3517799  65.0622559  96.5317822 106.0942459  46.7614746
  95.7483196 106.5252495  47.1030140  96.2897682 105.8244038  45.8755636
  41.4408398  18.7585628  67.4573517  40.8307457  18.0249155  67.3813629
  42.3035479  18.3681035  67.3176718  52.7566910  25.3945613  64.7654676
  52.6986647  24.6494269  65.3634977  53.0499029  25.0146890  63.9372444
  25.6124830  18.7035501  53.2929707  24.6727157  18.5568428  53.1855059
  25.6831384  19.6213150  53.5555458   2.9435447   4.5620900   4.8343515
   2.8606245   5.2304852   4.1542014   2.0818794   4.1466135   4.8681790
 101.0636234  99.3593788  60.5194712 101.3374043  99.6168518  61.3998032
 100.3060436  98.7916279  60.6607056  75.0333643  33.1560969   2.4796416
  75.1751804  32.9845142   1.5486854  74.2858982  33.7536192   2.5019133
  76.1811304 106.5293598  47.0606613  76.5264273 106.6610527  47.9436493
  75.2507401 106.7423534  47.1330881   7.6649374   9.7923386  35.3819823
   7.5413865   9.0849757  34.7490501   6.8028164  10.2018094  35.4548693
 105.3341579  40.5819416  57.6262617 104.9756432  41.0173082  56.8528605
 105.1171684  39.6578360  57.5030851   1.8106697   6.2986660  54.0768719
   2.2987846   5.8989823  53.3569908   2.3129851   6.0746884  54.8602867
 114.7987175   9.9612981  65.0770092 115.1780987  10.7504201  64.6902466
 114.2465782  10.2850521  65.7887411  23.9647603   0.9422354  53.0581760
  24.4219923   0.7541670  53.8778114  23.2558799   1.5342101  53.3097458
  72.6886702  84.6835899  11.5940285  72.5404549  84.8942471  10.6721365
  73.0859566  85.4740620  11.9594717  47.9398870  43.6779737   4.5498320
  47.7745104  44.6118498   4.6793044  48.3971071  43.4032583   5.3446335
   2.0078278   6.4335626  59.9155903   2.3061675   6.9029731  60.6946135
   1.9173409   5.5251324  60.2033329 107.6094151 108.5038185  77.8352404
 107.6620388 107.6376724  78.2392883 107.5953388 108.3287239  76.8942976
  31.4777350  19.4869101  92.0354939  31.7491364  20.3817368  91.8309116
  30.7404017  19.3200946  91.4483452  98.1714153  83.8889313  53.6766672
  98.1971645  82.9615116  53.4411573  99.0725613  84.0989113  53.9217520
  16.8413436  13.8746989  25.2868295  17.2641802  14.7333229  25.2725124
  15.9042156  14.0688920  25.2691674  27.7293110  21.7602754  44.3508577
  27.7024078  20.9374785  43.8624763  27.3926687  21.5351200  45.2181578
  34.0243697  25.5718684  13.8983727  34.0601873  25.6651497  14.8503423
  33.7972403  24.6529508  13.7561333  39.3856025   0.8148424  48.4524584
  39.4035196  -0.0840851  48.7808466  38.5016870   0.9241528  48.1017780
 106.2792206 107.0834923  85.5051422 106.1185551 106.2331200  85.0961304
 105.4293633 107.5234509  85.4847813   5.0510389  66.3352966  61.2982893
   5.1633763  66.2171221  62.2415018   4.1499579  66.6432667  61.2011337
  26.7036700  36.8169856  89.1473293  26.4072108  37.5126219  89.7342110
  25.8978987  36.3922787  88.8530731  76.8045191  54.0395474  -0.0899350
  76.2912802  53.2362866  -0.1770913  77.0915942  54.0424657   0.8231986
  69.6045208  52.4708033   5.8810091  69.3602419  51.5531158   6.0010338
  69.2079544  52.9235363   6.6253221  65.8793688  98.9732838  74.1158390
  66.3491249  99.6561432  74.5946550  66.3977003  98.1812382  74.2580652
  29.0231252   3.3682978  40.5802536  28.3703160   3.5291383  39.8989296
  29.8502302   3.2877383  40.1052380  83.3690834  66.7525244  18.2234752
  82.6948929  67.3770809  17.9558611  83.7487030  66.4428711  17.4011374
  74.2464447  97.0567608  66.3884735  74.4246578  97.2894669  67.2996902
  75.0171566  97.3601151  65.9086657   7.6901454  36.9045448  59.4868279
   8.1646270  37.0259166  58.6644125   7.5720519  35.9573030  59.5576668
  21.3579297  33.6401176  54.4466925  21.2934494  33.4442067  55.3814077
  20.8794212  34.4623303  54.3407393  40.3858662   8.5674208  60.8480787
  40.9936047   9.3066871  60.8672762  39.7629571   8.7873763  60.1553726
   2.6155987   9.8802334  34.1909766   1.8951568  10.5025029  34.2908525
   3.0318248   9.8554075  35.0525880  86.2942886 100.1195526  37.4548507
  86.6574287  99.2415810  37.5711632  86.8571758 100.5262280  36.7960620
   7.1113211  12.8627920  70.4775953   7.9576159  13.2757258  70.6493568
   6.5052879  13.3011854  71.0748959 104.2932987 106.7932224  79.4349384
 104.0731525 106.0341263  78.8949919 105.2087021 106.6562366  79.6788931
  98.9857101 105.7817173  32.6386380  99.2209911 105.0353622  32.0874262
  99.8089123 106.0441303  33.0506063  23.8374996   4.4903585  63.3834839
  23.0428934   4.7142074  62.8990030  23.8206887   5.0642157  64.1494083
  91.0725212  94.5720768  43.7233019  91.6239643  94.3376541  44.4697523
  91.6647816  95.0200081  43.1193066   4.8547500 106.7494202  47.0371628
   5.5447924 106.2867641  47.5125837   5.0053388 106.5257645  46.1187220
  42.4951839  31.0517120  81.4830875  42.6021338  30.1758265  81.1121178
  42.9438925  31.0105634  82.3276043  18.6851299   2.8870127  72.8162479
  19.5099771   3.2951635  73.0794430  18.4067845   2.3912561  73.5863018
  77.8410912  66.7300510   4.6974054  78.3501101  66.9587231   3.9196903
  77.9459953  65.7824087   4.7822189   4.2821068  86.1337852  45.7188892
   3.8946083  85.3548241  45.3197670   4.6105513  86.6440201  44.9786091
  91.6508961  87.9714298  77.1710634  92.4649620  88.4066677  77.4242449
  91.9278240  87.2688770  76.5828800  17.6995718   4.5241922  63.9243889
  18.2340872   4.4091031  64.7100639  17.1560407   3.7371638  63.8870811
 111.5142822  93.7087059  88.3313465 112.3071480  94.0371513  87.9074287
 111.6758442  92.7726078  88.4490585  32.0361638   2.3502573  21.7549920
  31.8362164   2.3236041  20.8192873  32.9249668   2.0009315  21.8200326
 107.1741390  16.1617506  39.8563123 107.8648758  16.6005385  40.3528833
 106.9169235  15.4217565  40.4062939  90.8342552 108.9441299  64.9838352
  90.2126598 108.2593250  64.7370720  90.9273338 108.8527203  65.9321022
  18.7722528 103.5778618  64.3498993  18.8636518 102.6615238  64.6110487
  17.9751325 103.5976315  63.8203335  67.6030731  97.2546005  54.7524595
  67.4751997  97.4380875  53.8217545  67.3117304  98.0512905  55.1958847
 114.3334103  88.3747959  42.5601244 115.1939392  88.7488461  42.3709345
 114.1547966  87.7973747  41.8178844   8.9799726  12.5299692  65.4017782
   8.9396423  12.1741199  66.2894630   8.1479758  12.9899013  65.2900839
  16.3125837  11.7081678  49.4073820  17.0311272  11.3508189  49.9291372
  16.3185537  12.6454210  49.6016788  51.4852381   6.0191202  60.2491236
  52.1720266   6.6856635  60.2325344  50.7750797   6.4193803  60.7508230
 115.9807968 107.8242779  34.5617151 116.7252636 107.6967621  35.1497126
 115.8015156 108.7636471  34.6025109  84.7141743  92.9758263  71.7895985
  84.8446369  93.0075741  72.7373314  83.8653469  93.3958054  71.6504765
   3.4366137  89.4818401  52.4955130   2.7047688  89.9653530  52.8787136
   4.2042246  90.0229454  52.6804686   8.2234597 100.4043102  53.5451651
   8.4896559  99.8478031  52.8132677   7.2852951 100.5409908  53.4132624
 101.8625546 100.1979446  47.0317268 102.8090382 100.2536583  47.1632290
 101.6307831  99.3181705  47.3292351  36.0333109  91.7563343  57.0216894
  36.7897892  91.1825466  57.1431351  35.3745532  91.1995411  56.6066551
  54.7889042  21.2702107  75.7838249  54.7397566  21.4976168  74.8553276
  55.6594753  20.8869410  75.8907890  31.0402513  18.2509136  62.7088261
  30.3726387  18.0093789  63.3508396  30.5524087  18.3916736  61.8973923
 115.3513527  95.9025478  78.7807417 116.0111523  95.5927563  78.1603241
 115.6841469  95.6354427  79.6375608  53.5115051  23.1419349  42.9777241
  53.4445190  22.3391390  42.4607515  53.2973528  23.8422871  42.3613834
   2.8517824  88.8292980  27.4164891   3.7131047  89.0854740  27.7462292
   2.4313541  88.3936405  28.1578922   5.4701138  90.9892750  54.0633535
   6.0847801  91.6197109  53.6878872   6.0112429  90.2328777  54.2897892
  42.2503996  15.2060723  60.1263905  41.6847324  15.5086672  60.8368063
  42.1410656  15.8615279  59.4374371 104.3602371  94.6951103  47.8700399
 103.4141922  94.7250462  47.7274323 104.7271252  94.5113850  47.0052433
  20.7761145  12.2048652  75.8810806  20.6072116  11.4224648  75.3561449
  21.6799879  12.1027982  76.1791229 100.1024818  73.6562872  58.8032532
  99.1569519  73.6406517  58.6550808 100.4739571  73.2435894  58.0235577
  26.7010880   8.9584804  41.2188864  27.1203876   8.3200318  40.6419945
  27.0968676   9.7958529  40.9772301  18.0853903  95.6273651  63.7427664
  18.7274122  95.8016872  63.0545425  18.4010005  96.1257935  64.4965553
  98.2191086  76.6799545  62.5043201  97.3287296  76.9130898  62.2414351
  98.4976959  76.0314560  61.8577337  13.2484615   6.7644060  51.9220018
  13.3603132   7.6138437  51.4951801  12.7254176   6.9546843  52.7007484
  39.4029641  19.8535049  27.8028226  40.2412605  20.3076077  27.7174783
  38.9015222  20.1301789  27.0358539  78.9263868  75.0794029  53.8007259
  79.2444372  74.2813015  54.2227602  79.5336819  75.7609463  54.0886927
  27.2607899 107.0993423  66.2478733  27.7289534 107.5480270  65.5437851
  26.3353562 107.2393894  66.0473871  86.6342640 105.2750683  62.9876995
  87.3635960 105.2602673  62.3679495  85.8608246 105.4243183  62.4438715
 116.1165047  86.9803238  75.8804893 117.0351505  87.0730019  76.1329412
 116.0758114  86.1366653  75.4301453 113.6499214 106.6109467  47.2433472
 113.4641933 107.0593643  48.0683613 114.1211987 105.8189774  47.5020170
  51.5370941   6.9178843  64.6781301  51.1362219   7.3690051  65.4211140
  52.3817348   6.6135371  65.0100756  14.7129488  74.9917126  55.4262924
  14.0239191  75.6428051  55.5587721  14.2913508  74.1542339  55.6189442
 100.2593517  63.5777903  25.6163001 100.6332493  62.8391838  25.1357865
 100.6625175  63.5284042  26.4830470  47.3504210   7.7008975  36.1184502
  46.4211130   7.9153144  36.0369182  47.3644018   6.8783045  36.6077113
  35.2459192   4.3880442  67.4268389  35.9210396   5.0665259  67.4164915
  34.4379163   4.8573086  67.6345730 105.9482861  81.5890217  73.4035158
 106.4676476  80.8998108  72.9894114 105.9674168  81.3755608  74.3364143
  50.8117008  16.8858171  60.8297110  50.6243753  17.1037579  61.7427492
  50.6544352  17.7002168  60.3519535  21.1497092 103.9340782  68.4425879
  21.9450903 103.9484787  68.9749336  20.6037879 104.6298599  68.8087749
   4.7541174   5.8907634  43.1193113   3.9035738   5.5576622  42.8332138
   4.8474982   6.7291319  42.6669312  33.1929684  17.5571442  73.2313871
  33.2570601  17.4885142  72.2788048  33.8570714  18.2038212  73.4701490
  11.6811419  98.2482529  83.8819790  11.9420385  98.6204147  83.0395699
  12.2255766  97.4667835  83.9775085  48.8793802  34.0126514  51.8101835
  49.5820618  33.4465027  51.4908886  48.0745029  33.5747409  51.5333509
 104.0404415  95.7785320  67.6235676 103.3542728  96.0087204  68.2500029
 104.2832279  94.8815441  67.8531361 115.1186848 104.6689510  48.3552599
 115.2639771 104.1978550  47.5347757 115.9983063 104.8496723  48.6866808
  22.1964264   6.5209883  67.0218468  21.4794540   6.0440981  67.4398899
  22.9895425   6.0997599  67.3531580  80.9192944  36.7122030  93.2937908
  80.7954025  36.0987639  92.5695133  81.5186977  37.3734236  92.9477692
  20.1789403  85.4729462  40.2981138  19.7003698  84.6439743  40.3026581
  20.8744383  85.3515339  40.9444666  64.3575907   4.6957698  75.3837872
  64.4762897   4.6806371  74.4340992  65.0458431   5.2800107  75.7019091
   0.7711112 109.2719746  73.5915899   0.7243979 108.9593601  74.4950962
   0.9093007 108.4805870  73.0711651  20.7192755  14.9266446  75.3766823
  20.6612182  13.9800382  75.5062866  21.6397381  15.1343846  75.5373716
 100.1250076   1.7709672  62.4122381  99.2345428   1.8293190  62.0659924
 100.6202030   1.3242871  61.7255831  20.2770185   2.7208799  50.6289911
  19.8929405   3.2442945  49.9256039  20.5941939   3.3655572  51.2614632
   1.7147416  83.6753178  30.3797317   2.1048576  83.8937378  31.2260962
   2.4234506  83.2582378  29.8898220  43.8531876  10.8243334  55.4499626
  44.1808987  10.9570897  54.5604610  44.5131111  10.2714133  55.8683109
  26.6208291   1.0349865  27.0948625  27.2812700   1.6500080  26.7758012
  25.8058167   1.3247804  26.6849804   4.1154939  90.6935215  35.8622861
   3.9417276  90.9005356  36.7805362   3.2817167  90.3611374  35.5297685
 111.1884403 105.2941799  76.4721012 111.2363052 105.1247025  77.4129629
 111.6750908 104.5726013  76.0736990  33.0941510  13.8653338  50.7314587
  33.2571507  13.6233413  49.8198080  33.1044531  14.8224783  50.7307100
  33.0188370  87.6942539  45.3915596  32.8202820  86.9136810  45.9087801
  32.4999881  88.3887959  45.7973099 112.3692608 105.8791351  67.7416277
 111.9525623 106.7337227  67.8523636 112.5764751 105.5964851  68.6323595
  63.0692005  13.3994651  47.1911335  62.8486109  13.2382452  48.1085110
  62.2456074  13.2709169  46.7205954   6.4244157   9.0376884  61.3015842
   5.9673470   9.8786771  61.3092136   7.2633076   9.2171568  61.7261791
  46.3945961  32.3661590  54.8335695  46.7118359  32.3066783  55.7347107
  45.9401417  33.2077003  54.7946930  11.8737769  43.7244129  57.3639393
  11.0477912  43.5282850  56.9217682  12.5455844  43.3526039  56.7923975
  84.9592400  48.7303495  52.9069376  84.8585701  49.6732616  52.7764797
  84.6966362  48.5849237  53.8158512  48.4205866  19.3025875  79.9168205
  48.5524321  20.1188087  79.4345045  49.3054438  18.9941692  80.1121044
 107.0312881 105.4805565  78.5563374 107.2895050 105.0050259  79.3459082
 107.1655273 104.8543644  77.8449392  66.9841719  21.3957930  86.5082932
  67.5911856  22.1332645  86.5707493  66.3638258  21.6532874  85.8263111
  89.6559143  91.4825535  49.0404844  88.9037132  92.0426273  49.2321539
  90.1597500  91.9723320  48.3904886  69.9864483 109.0654087  74.4733858
  69.4652462 108.4463310  74.9845839  69.5076227 109.8917580  74.5374537
   4.2360690  32.8261709  26.4301491   3.5401538  32.3538709  26.8871665
   4.9403125  32.8974175  27.0745063  20.2104068  95.2887440  32.8506160
  19.9933863  95.9395504  32.1830869  21.0456967  95.5854893  33.2118130
 114.2077732  99.0343666  55.3192568 113.9460373  98.1145096  55.2794027
 115.0763416  99.0538692  54.9174547  10.9187126  93.1157112  42.0498705
  11.5957916  92.6022816  42.4905348  11.2280643  93.1957722  41.1475849
  61.5170145 105.4295540  13.3071160  62.4066353 105.7508373  13.1602037
  61.2750006 105.7783985  14.1650057  26.1251116  14.0009356  53.2346773
  26.2660789  14.8970270  53.5402584  26.4778638  13.4510326  53.9342546
   1.0000362  94.5574188  59.1003609   0.0745949  94.3226242  59.1686344
   1.3428782  94.4401741  59.9863291  97.0069885 100.7743168  65.6856012
  97.5203133 100.7730293  66.4935207  97.2457027  99.9566936  65.2488613
  36.3863826  40.2516270  56.7473745  36.3830638  40.4751635  55.8166504
  35.4845071  39.9910474  56.9343281  19.3329525  91.7547989  55.8687210
  19.5201397  92.6802254  55.7113123  20.0730610  91.4462852  56.3914919
 108.2799816 100.5658150  39.3323708 109.2182541 100.6647396  39.1708493
 108.0574989  99.7207165  38.9418125 104.9946690 100.3605080  58.8730097
 104.4149208 100.7431126  58.2144260 105.6968689 101.0027885  58.9761114
  41.9286260   0.2805890  49.4953918  41.6984174   0.7582654  50.2923012
  41.5090498   0.7741154  48.7906790  64.4987824  22.8813375  95.2068045
  65.0749829  23.5503162  95.5765390  64.8041394  22.7734627  94.3060545
  61.3445807   3.5122877  88.0856323  60.6273222   3.6892945  87.4769974
  61.8925619   2.8728646  87.6305771   8.8737184  16.8540335  65.1863766
   8.2864708  16.4553785  65.8285999   9.7524565  16.6447830  65.5030251
  11.2742150  11.8544865  77.8769207  11.8108785  12.2824311  78.5440731
  10.6867957  11.2835145  78.3720589  41.8487215  44.0937662   4.8204157
  40.9322453  44.2319155   4.5812115  41.8458557  43.2756519   5.3173238
  21.0141635 104.5074463  27.6777220  20.9787416 104.5555592  28.6330557
  20.6774545 105.3534889  27.3826504  95.6236458 103.5089397  47.5007010
  96.1168194 104.2325020  47.1140862  95.9076881 102.7369499  47.0112276
 104.7553825 100.5304527  24.3587565 105.3807926 100.0417709  23.8237000
 104.5926666 101.3333702  23.8637066  93.0069542  74.7389555  56.4507532
  92.8794384  75.4423285  55.8141756  92.1208572  74.4511938  56.6704464
  12.5583100 107.0589066  37.6819754  11.9668376 107.7503586  37.9791164
  13.0227709 107.4439907  36.9388628   7.1332604  84.1332054  62.4633074
   7.9526657  83.6903667  62.2426271   7.3717177  84.7451115  63.1596804
  28.4143996  13.8273060  61.0165453  29.3466306  13.7626123  60.8091927
  27.9892564  13.2361352  60.3952551  17.2132850  97.4795723  86.5265369
  17.0981920  98.4265041  86.6059303  16.9096637  97.1303082  87.3644257
  10.8986127  43.6695004  90.3270245  11.3504684  42.9252100  89.9294186
  11.5029943  43.9857006  90.9985638  67.7920628  17.7755582   7.0307988
  67.0774317  17.2048521   7.3133403  67.3897076  18.3655572   6.3934296
 104.0975475 100.0408173  53.7905979 103.4260178 100.6703949  54.0530682
 103.8873482  99.2472458  54.2828369  83.0060387  46.2388372   5.7724297
  82.2077274  46.1583328   5.2504605  83.0448246  47.1654224   6.0094196
  20.2767491  14.4386876  47.1856499  20.2355814  14.6932745  48.1074524
  20.2488327  15.2670908  46.7069006 105.3526688  90.2880859  87.4410725
 105.7296371  90.5872726  88.2684898 105.2055073  89.3510723  87.5698566
  96.9512177  13.3706677  43.8022280  97.0010185  12.5534964  43.3062649
  97.8341961  13.7365663  43.7502670  14.8273003   7.3334587  43.9718008
  15.2202296   6.6365325  43.4463215  14.7465420   6.9563347  44.8478651
  40.7154179   0.7258244  21.8267679  40.8716726  -0.1648872  21.5130019
  41.5232229   1.1969119  21.6224122  61.9394779  14.0500474  52.1772051
  61.7759991  13.4731877  52.9233551  62.7852154  14.4554043  52.3686361
  27.5952005  97.7827549  66.4635086  27.2101831  98.5672379  66.8541145
  28.1960082  97.4527264  67.1315956  37.5374031  35.3282738  59.8801994
  37.1563911  36.1785197  59.6607924  38.2307649  35.5313683  60.5080795
  35.5263686  14.1653085  31.9276977  35.3884149  13.2480025  31.6915846
  36.3156772  14.4195914  31.4496112   0.3744536  97.8412437  59.9752808
  -0.1820790  98.4799767  60.4208279   0.2576870  98.0300617  59.0441799
  15.0565803 104.3910313  81.6907883  15.9363484 104.6334171  81.4018440
  14.8289418 105.0514889  82.3451710  31.0433006  26.8689418  63.7974405
  31.9123912  27.2100139  63.5862875  31.2141705  26.0757828  64.3053102
  38.1374741   8.6227292  53.5442877  39.0905213   8.6350393  53.6325026
  37.9794168   8.1691867  52.7163076  -0.0250759 103.8668251  68.5536242
   0.9022675 104.0956974  68.4913158  -0.4743995 104.5503712  68.0565214
  49.8836327  28.2092476  58.3431673  50.5739784  28.3135200  58.9979839
  49.7627974  27.2624350  58.2712173  68.6396503   9.1315383  77.4643850
  69.2535448   8.4104002  77.3253584  68.7056065   9.3253303  78.3994436
  28.6664200  13.2915092  41.0196972  29.2594147  13.5074329  40.2999973
  27.8332305  13.6923528  40.7720041  66.8142271  95.4508305   7.0499665
  67.3628187  95.9733009   7.6350290  67.4253035  94.8537159   6.6183650
   3.9484560  95.6866074  82.7155018   4.5776185  95.2088547  82.1750069
   4.3264094  96.5613079  82.8064632  41.5119171  27.5304341  35.1124835
  41.3240957  26.6008258  35.2420378  40.9170628  27.9808068  35.7121038
  25.3436279  58.0011892  42.0969200  26.1536002  57.7943707  42.5631857
  25.5512190  58.7886667  41.5939093  83.7552261  26.4552474  92.1669674
  84.2990685  27.2411537  92.1138573  83.9824009  26.0633135  93.0101871
  32.6471949  32.3375964  70.4285526  31.6973782  32.4471855  70.3830814
  32.9961658  33.2210255  70.3102112  36.3672256   4.1233584  42.3199463
  36.8172789   4.9149632  42.0249128  35.7019901   4.4397548  42.9311657
  58.4388399   2.8902334  72.3884106  58.9084864   3.5479793  71.8755388
  58.5965109   2.0677030  71.9249249 116.3159806  96.5909672  90.3189468
 115.5611717  97.1650982  90.4488277 115.9449059  95.7089138  90.2963543
  77.3435688  38.2445955  51.0224247  77.5455761  37.7083278  50.2557135
  78.0550766  38.8836837  51.0618973  48.5678625  21.1434245  66.8900299
  48.1189871  21.9561648  67.1228313  49.1693544  21.3943529  66.1889744
   9.1272777 103.2617092  68.7679768   9.6888053 103.0351353  69.5093155
   8.3040291 102.8057671  68.9429474 103.3928108 108.3675671  81.5168381
 104.3192959 108.5375214  81.6870403 103.3909702 107.8019428  80.7446384
  33.4659219  99.4193268  37.7293921  34.4220185  99.3746471  37.7401829
  33.2618189 100.0073147  37.0021796  42.2888613  11.5895736  48.1291485
  42.7633238  12.0046449  47.4088478  41.9098759  10.8000422  47.7428293
  61.8489838  67.9923964  21.4493489  61.4837027  68.8755751  21.3964176
  61.6819477  67.6120424  20.5869913 106.0437012  91.8617249  52.3719883
 105.3486347  92.5163841  52.3046637 106.8547535  92.3684978  52.3318720
  43.3669806  22.2933507  66.0096788  43.8153267  23.1335425  66.1061096
  43.8695097  21.8291593  65.3401852  43.6703253  30.0921559  63.4937763
  43.4276342  29.2094612  63.2141685  43.4459352  30.1189399  64.4239187
  65.9601402  16.3765585  41.9334793  65.7251787  15.4917586  41.6539145
  65.9984446  16.8820393  41.1215353  69.7187328  13.2480001  72.5162125
  70.5463839  13.4962404  72.1043825  69.3922853  14.0591192  72.9057598
 109.1315079  51.5979385   1.2443063 108.9389801  52.4208498   1.6937287
 109.2321205  51.8449402   0.3250138  48.2390070  37.7772093  73.3205557
  47.4253464  37.5268555  72.8829288  48.2469034  38.7336230  73.2825994
  22.7848554  38.4436941  47.3056793  23.3043146  37.9581547  47.9464960
  23.3880734  38.6031938  46.5797853  80.3118706  14.9243605  87.9439831
  80.3635979  14.0466845  87.5655079  81.1270428  15.3489149  87.6766109
  11.5678847 107.4130821  78.2652664  10.7613134 107.6955605  77.8341246
  11.9040763 108.2041931  78.6863899  23.0824780  56.0366917  36.6787744
  23.5173202  56.1524343  35.8339381  22.6969790  56.8919563  36.8688917
  73.7888861  30.9652948  26.8896365  73.7840748  30.1483464  26.3908339
  73.1994486  31.5443969  26.4064837  52.9826021  46.6061926  62.5242329
  53.7245321  46.9168186  63.0431557  52.2793484  47.2263861  62.7166653
  24.3047571  12.9319572  50.2587318  25.1459217  13.3851922  50.3157949
  23.9670634  12.9401052  51.1543512  45.6350136  54.4713068  13.5647225
  45.6487656  54.7722292  14.4732869  45.6687021  53.5167980  13.6280179
  45.3171253  42.1703815  61.0056353  46.2320518  41.8895197  60.9892893
  45.3265142  43.0404615  60.6067657  60.3781605  29.9671006  58.3028555
  60.7364035  30.8371258  58.4787798  61.1478806  29.4111276  58.1817818
  32.3667860  15.3434575  64.7779226  32.6736951  14.6179760  65.3217220
  32.7058411  16.1271405  65.2104855  94.4730949  94.4315910  61.7339277
  94.4537163  95.3610992  61.9617033  93.9670658  94.3729877  60.9235334
  23.6010909  14.2912149  47.5966454  23.2398462  15.1042473  47.9497910
  23.5889983  13.6828947  48.3355856  31.6542459  20.7048440  55.9351158
  31.2265897  19.8600364  56.0752678  32.4960399  20.4839730  55.5365753
  56.1596823  11.8061841  66.6777754  56.2971640  11.2420559  67.4387550
  57.0047379  12.2345614  66.5413952  34.8495412  13.7224782  48.4694099
  35.4669094  14.2322075  48.9940643  34.5161152  14.3433034  47.8216171
  25.8330560  26.9750452  30.6673932  26.4124203  26.6856408  31.3722444
  26.1967158  27.8153110  30.3882217  67.0270824  18.8481486  67.1620178
  66.6552353  19.5678091  66.6520691  67.7371120  19.2507517  67.6620245
  15.8414173  45.9123564  27.4335957  15.6419122  45.0567293  27.8135109
  15.9840381  45.7342815  26.5039825  42.9672146   5.4676062  47.2595024
  42.7261734   6.1673796  46.6525030  42.7407265   5.8115065  48.1236029
  36.3015556  31.8240309  33.6894107  37.0222688  31.8105674  34.3191886
  35.5113530  31.8201447  34.2295933  20.0128388  19.4885004  57.2636461
  20.2205110  19.7851610  58.1497002  20.4379559  20.1272774  56.6913939
  13.0358207  19.2676699  59.5859814  12.5907183  19.0947187  58.7564039
  13.3528721  20.1671720  59.5046997  30.2788901  89.5039082  75.9168196
  30.4344153  90.2002335  75.2787113  30.9394073  88.8414288  75.7141733
  82.0815086  77.5544882   9.7908002  82.3895359  76.9357729   9.1285735
  82.8105354  77.6288509  10.4066157 101.7992020 108.2263756  68.9914513
 101.3528252 107.3970890  68.8203907 101.2049389 108.7031841  69.5708799
  46.6445112  27.7797842  62.4475718  45.7931280  27.4293160  62.1857500
  46.5198183  28.7287664  62.4583960  16.9894600  16.2692344  80.8095169
  16.7552388  17.1142566  80.4257107  16.1526656  15.8198547  80.9281158
  41.9357920  58.1957626  63.5614014  42.4097872  57.3708916  63.6669922
  41.1321163  57.9530239  63.1016064  45.9107590  46.1674023  32.9359937
  45.1426983  46.5039015  33.3976054  46.2556028  45.4843187  33.5110688
   4.9826592  95.3352261  37.8802156   4.5604032  94.6366787  38.3801723
   4.6608931  95.2181816  36.9863486  47.2970486 102.8014946  73.7213945
  47.8893471 102.2698498  73.1896353  47.7508020 103.6383820  73.8212252
  40.6174564  11.0798597  77.3177862  40.8492279  10.2582645  76.8847799
  40.2196836  11.6104782  76.6275311  16.8648195  88.7540722  40.1067829
  17.3224878  87.9544735  39.8471427  16.8476069  89.2886925  39.3129873
   8.3405995   5.7086557  60.9119797   7.4449098   5.9128922  61.1807919
   8.6005116   6.4484835  60.3630447  55.0434732  31.7923355  66.9969988
  55.4008484  31.0713553  66.4786386  55.4072380  31.6611028  67.8726053
  10.1941299 104.8261547  94.1873360   9.4968110 105.1934052  93.6441040
   9.9155748 105.0022984  95.0860119  52.1975040  24.9935389  73.3399773
  51.6069174  25.7449245  73.3934546  51.6369867  24.2673063  73.0667782
  53.9077806  20.5718827  30.7457900  53.1190014  21.0079503  30.4234529
  54.6210814  20.9642005  30.2422786  53.3856773  30.2555299  93.5102844
  53.3981180  29.5098114  92.9102993  53.6585855  29.8903418  94.3519497
   9.8421162  27.8362060  62.9823732   9.9722081  27.5573349  63.8887596
   9.0031433  27.4499702  62.7310181  34.2127132  39.3360782  38.0399513
  33.7227821  40.0885010  38.3717012  34.8548388  39.1477251  38.7243700
 103.1678200   5.4968011  56.9045639 104.0242386   5.0796300  56.8109989
 103.3254719   6.2391710  57.4878836  55.2563524   8.0421829  43.4025431
  56.0464287   7.5206339  43.5439730  54.9786758   8.2995158  44.2816925
  58.8338327  22.3489666  50.0610352  58.0725956  22.8553486  50.3444529
  59.4976997  22.5203776  50.7289696   0.3212809  39.8706436  33.2794189
  -0.1989144  40.6435108  33.4992051   1.2227722  40.1905775  33.2449532
  27.8538084  32.9718447  34.8939562  28.7281203  33.3610058  34.8748279
  27.7908874  32.4837422  34.0729618  54.3220091  42.4566317  38.4517455
  54.9666834  42.4290657  37.7447343  54.7940826  42.1332264  39.2190719
  42.7278662   4.7682181  41.7918015  43.5037947   5.2796549  41.5624475
  42.8059340   3.9683458  41.2718582  61.8525887  23.4813666  62.2839785
  61.0972452  23.4928799  61.6961336  61.6958094  24.2058325  62.8896189
  45.9613609  16.5545750  78.2708693  45.9418344  17.0986116  77.4835491
  45.7464314  17.1565628  78.9833641  31.2121725   9.1066140  24.1516113
  30.4658890   9.4715548  24.6271253  31.1710215   8.1664205  24.3264651
 112.3082352  39.6794128  40.0341463 111.8876839  39.7312522  40.8924484
 111.5883255  39.7649121  39.4091272  21.4727139  27.5852442  51.0482454
  21.1200523  27.8812122  50.2090406  22.4060774  27.7924871  51.0022926
 110.1059341  91.4148903  53.8679123 109.8603153  90.6452370  53.3545494
 109.4232941  92.0580959  53.6767912  58.7472582   9.2527795  44.1805363
  58.8269663   9.2203927  45.1338625  58.6146545   8.3412653  43.9201689
  19.8880553  94.4741249  51.5824461  20.4899263  93.7414360  51.7134237
  20.4025841  95.1241589  51.1039591  42.4280739   9.7877014  65.4242802
  43.3648777   9.9841887  65.4290819  42.0066929  10.6336629  65.2725601
  15.8615446 104.7287941  78.1541252  16.7766094 104.4579887  78.2286549
  15.8504534 105.3337860  77.4124479  10.8487558  16.6070020  23.7991047
  10.5562031  17.3391724  23.2563591  10.0518000  16.2910330  24.2248464
  72.4896860  14.1067100  34.7407246  71.8047285  13.4443891  34.8323894
  72.9432344  13.8717699  33.9312005  96.6884232  91.2965012   3.6521676
  96.2076187  90.4814529   3.7961879  96.0259342  91.9827461   3.7322310
  15.8288443  17.2594988  72.6346111  15.2323747  16.8727565  73.2756138
  16.6812813  17.2592604  73.0700207 104.3818283 100.0738907  47.9437113
 104.4139099 100.0894451  48.9002466 105.1065063 100.6364536  47.6705837
  41.6467857  24.9730539  60.2964544  41.6524076  24.6355176  61.1921501
  42.5621700  24.9327040  60.0195456  22.9341722  54.1144133  66.3774490
  22.0871902  54.3430758  65.9946108  23.3566546  54.9568748  66.5447903
  26.4727879  10.5139351  24.0821815  25.9683418  10.1049054  24.7853613
  26.2019420  11.4319158  24.0958238  88.7648106  35.4743814   6.1792564
  89.2675018  35.3773546   5.3704798  88.4694386  36.3848186   6.1699104
  68.1379747  38.3722043  91.2065411  68.7616301  39.0705466  91.0075474
  68.3829355  37.6576257  90.6186581  44.2511940  24.6117234  44.5847130
  43.5843182  23.9261341  44.6230745  44.6979713  24.4648910  43.7510109
  40.7285643  44.8924780  66.1780310  41.6737747  45.0316048  66.2367916
  40.3846931  45.2317905  67.0043802  29.5869064  36.1324549  62.0114279
  29.0791082  36.4311385  61.2570000  28.9286184  35.8554864  62.6487494
   9.2095113  97.7342510  63.5967970  10.1447082  97.5458908  63.5183144
   9.0497100  98.4256554  62.9544210  53.3457088  31.8812537  50.5655813
  53.6569118  30.9855747  50.6965160  52.3926878  31.8148255  50.6253290
  50.5777550  22.6978827  72.3803282  50.4185724  22.9509139  71.4710093
  49.7402239  22.8446531  72.8199100  84.9314499   9.8633265  73.8376951
  85.7566929  10.3319347  73.7127352  84.5182133   9.8715985  72.9743290
  70.4028559  10.1314056  83.5697174  69.5775938  10.1684129  83.0861855
  70.7368183   9.2493552  83.4063530  28.1450343  44.0825319  30.8415008
  27.8303933  44.9487877  30.5829763  28.2020044  43.5935736  30.0205827
  16.6685021  19.1641474  38.8107276  16.9715798  19.1620374  37.9027796
  16.0958743  19.9288559  38.8703108  17.3380101  58.3352900  13.6495733
  16.4654326  57.9959440  13.4503651  17.3848701  58.3291674  14.6056068
  19.1509843  19.4309807  53.3399725  19.0350401  20.0309157  54.0767670
  19.8533952  18.8431418  53.6179924  99.5012760  79.4834328  57.9508829
  98.6141014  79.2552948  58.2285786  99.8934460  79.8984194  58.7191391
 115.3272533  64.9247503  72.8667212 115.7122707  64.2083168  72.3620272
 115.4655552  64.6753883  73.7804604  26.8595886  10.2089965  38.5457540
  26.2142587  10.1640677  39.2512774  27.0556140   9.2945373  38.3418679
  86.6554546  84.4690228  89.0618706  86.3776493  85.3261566  88.7387753
  87.2177219  84.6661758  89.8110104  40.7587671  30.3420138  14.3156612
  39.9607420  29.9067879  14.6155965  41.4014387  29.6369004  14.2380476
  81.1867332  45.4730749   1.0345175  81.1021137  45.0696468   0.1706232
  81.4808369  46.3659334   0.8541311  35.2927566  10.2775908  56.2106085
  35.4588485   9.3357962  56.2514544  35.9925199  10.6203151  55.6546402
 104.2838383  96.1734676  64.8080826 103.7221241  95.5892944  64.2987108
 103.7645721  96.3899612  65.5825043  62.5902319   1.1184855  78.5531998
  63.4808636   0.9396882  78.2514763  62.6964569   1.3926473  79.4641256
  10.7834220   8.9271271  44.4844818  11.6366434   9.3465114  44.3733025
  10.8320892   8.1382936  43.9444780 102.3558998 108.7628651  40.7752371
 101.4655781 108.7390041  40.4245424 102.4104595 109.6015263  41.2333965
   7.0788532  94.0897274  56.0830164   6.8517202  94.9140167  55.6526947
   6.8897825  94.2428017  57.0087910  33.8187122  93.4023380  50.6555080
  33.2701254  92.6194668  50.7044888  34.1722775  93.5027218  51.5393353
  14.3060827  25.7049012  60.7754135  15.2074134  25.8846927  61.0428286
  14.2715240  24.7537065  60.6740904  51.9695663   7.3706949  34.4176006
  51.5952349   7.5080854  35.2877927  51.6828012   6.4917934  34.1695499
  46.6342402  16.4451921  68.1783056  47.0780849  17.2847521  68.0584145
  47.3363972  15.7956815  68.1416512  53.4897089   1.4860056  47.8292084
  53.4505796   1.8643925  48.7075710  53.0253124   0.6525852  47.9065323
 111.7420959 108.6171341  46.0158157 111.7119694 108.9675140  45.1255608
 112.5090599 108.0444622  46.0219908  17.0320451  20.6814456  65.6827593
  16.3099766  20.0862956  65.8843708  16.7693400  21.5165257  66.0698700
  56.0184860  18.6762345  54.5390463  55.5215454  17.8659284  54.4264174
  56.8432999  18.3979893  54.9371529  48.3781528  92.4028206  28.3974552
  48.4841394  93.1843662  28.9398456  47.8903389  91.7921448  28.9500332
  41.9494534   7.3256248  70.8857679  41.1800718   7.0271993  71.3707685
  41.7017555   7.2367632  69.9654531  51.7577362  39.4755483  79.1079330
  51.7378759  39.8328209  79.9957323  52.3101139  40.0840473  78.6171818
  59.5556021  42.0802689   3.3636957  60.3182888  42.0386219   2.7868003
  58.8393927  42.3608065   2.7939820  27.5527525  27.4421620  91.5511417
  28.3359647  27.9077649  91.2578392  27.2326660  27.9554892  92.2929478
  48.3636618  19.8597920  61.3949633  47.9220867  20.5444360  60.8924675
  49.1529989  19.6636200  60.8902884  29.5982504  35.9728527  40.9253836
  28.8046551  36.1623597  41.4259100  29.7621274  35.0424552  41.0794449
  77.9206276  15.4950976  60.8608532  78.0287313  15.4565287  59.9105597
  78.5153198  16.1906552  61.1415243  30.9175682   3.5177532  46.7690802
  30.5126071   2.6769638  46.9819450  31.5430450   3.6685950  47.4777794
  62.2625780   3.4330258  69.6753454  62.9281569   3.7624705  69.0714407
  62.6250505   2.6111847  70.0061321 107.9302025  95.4796124  91.7113113
 107.8912449  95.9611511  92.5376511 107.8638363  94.5595551  91.9668961
  64.9765873  13.5306311  40.4754353  64.8191023  13.6200321  39.5355225
  64.1095924  13.3742797  40.8497477 105.2566528  51.9247103  10.4964101
 106.1181545  52.2946596  10.6892002 105.4197598  50.9896708  10.3726029
  57.0635605  31.1817265  34.3221664  56.3032293  31.7436886  34.4715810
  57.2068834  31.2191105  33.3764958  42.3140907  17.4814141  58.6002493
  42.6094151  18.2045507  59.1534996  42.6418257  17.6982903  57.7274466
   0.0443993  93.3963299  47.7952242   0.5322514  94.1858768  47.5610018
  -0.3167095  93.0830765  46.9659472  45.2147341  25.2949739  40.1525450
  45.5562687  24.5965433  39.5941663  44.2644930  25.2391171  40.0517750
 105.2249813  69.8862076  54.7120667 104.9686527  70.6350899  55.2503014
 105.7210541  69.3229342  55.3060913  89.0608692  77.1253586   2.5652906
  89.7172070  77.2830915   1.8866336  89.0860081  77.9119062   3.1102195
  85.4128742  27.6385975  59.7585392  84.6075821  27.1278453  59.8414660
  86.0879517  26.9904542  59.5575142  32.5761151  11.4594948  40.2067327
  32.1641588  10.6050026  40.0787973  33.2454658  11.5072954  39.5241523
  96.8469048 107.9386520  75.5810499  96.8174934 108.6418247  76.2298250
  96.1455345 107.3420334  75.8425188   2.8671730 106.7910099  70.3581190
   2.2223586 106.8522072  69.6533489   3.6431208 106.4166737  69.9409723
  53.4874010  18.1310523  61.7229223  52.7665377  17.5017238  61.7459488
  53.4449387  18.5749781  62.5698900  63.6555099  25.1816225  53.9975357
  64.3308020  25.5132675  54.5893335  63.4567356  24.3055201  54.3279314
 115.1815033 102.0255947  71.4072418 115.4496574 101.1170006  71.5442801
 115.0385284 102.0933342  70.4632092  77.3025322   4.2827106  48.9284372
  77.8735924   4.8463160  49.4504261  77.8645325   3.5563308  48.6586905
  20.9536934  15.3698921  30.7228470  20.8491707  14.4397783  30.9233332
  21.6276336  15.3942192  30.0435495  40.9968376  31.7265153  29.8477125
  40.4578876  30.9391117  29.7717929  41.7267227  31.5760159  29.2470050
  82.3771191  97.7699471  42.2029591  81.9947338  98.2322598  42.9488039
  83.2986259  98.0288792  42.2075176  29.8440862  22.8728724  54.4152355
  30.2354860  22.0711017  54.7619343  30.5157518  23.5425234  54.5443201
   6.5245891  89.3722725  80.3050804   5.9491283  89.7365189  80.9776878
   7.3990500  89.6769714  80.5473804   7.8612012  91.0909367  50.6444883
   8.5114974  91.2102032  51.3366747   7.5637251  90.1870918  50.7484865
  42.5502682  12.1066654  74.8847055  42.3258829  11.1859155  74.7501516
  43.3962870  12.0841408  75.3318882   5.4482752 108.0429173  50.0574446
   4.9104071 108.6400986  49.5375347   6.2617385 108.5239792  50.2094030
  31.2029290  42.4644613  64.6438408  31.5918803  42.0270157  63.8864803
  30.7085609  41.7767811  65.0898600  27.1627951 106.8019295  85.6135464
  26.4427662 106.9132805  86.2343407  27.9144502 106.5678692  86.1580276
  27.5555062  27.1424484  76.8561029  27.9720950  27.9676557  77.1045303
  26.6396999  27.2495794  77.1131086  85.2877235  96.1510754  56.1180210
  86.1323261  95.9785366  55.7019615  84.9279976  96.8926430  55.6312895
  87.1882439  31.8271255  38.3129787  86.5876484  32.4587059  38.7087393
  86.7185402  31.4975548  37.5468254  26.2368989   3.0666620  85.6143475
  25.8870912   3.6657482  84.9548244  26.0565591   3.4981212  86.4495373
  28.3409429  17.3966670  48.1645727  28.6247349  18.0585718  47.5340366
  27.3883700  17.4861538  48.1933737 107.6990318  21.0624909  58.3687973
 107.2424984  20.9362745  59.2005873 107.0054531  21.0423207  57.7094269
  36.0894608  15.4177570  90.0424385  36.8215752  14.8131275  90.1635265
  36.0267854  15.8875847  90.8740425  21.0183859 108.6776447  64.4662237
  20.6322145 108.6065578  63.5932684  21.1685801 107.7716637  64.7361851
 112.7021122 105.1195621  51.0867214 113.3126354 105.8274651  50.8808708
 112.4231052 104.7881317  50.2331781  21.2613273  24.7387075  90.7343292
  21.4435053  24.6347833  91.6682720  21.4299631  23.8741350  90.3597546
  54.3523598  22.8755569  88.7842464  54.7357845  23.3059859  88.0200863
  53.9075899  22.1065068  88.4279156  29.6351838  34.0854812  55.3269768
  29.1877413  34.9247265  55.2188444  30.2827168  34.2459798  56.0133982
  66.7385864  15.4837608  82.9194355  66.0887623  14.8188996  82.6915836
  66.2833738  16.3164246  82.7942085 111.6231823 104.8419952  46.0930538
 111.7280960 105.6601715  46.5786552 110.7454395 104.8984718  45.7154179
  24.9574661  11.4082825  68.9466810  24.7671247  12.2779536  68.5950089
  24.6656513  10.8045721  68.2635927  37.4211860   6.6315508  80.5410290
  37.0802450   7.0600849  79.7559500  36.9096231   5.8259499  80.6154728
   5.8663875  88.1871986  75.7211351   6.7645884  88.2307816  75.3931570
   5.9595513  88.1753254  76.6737175  72.6670980   1.7561372  43.2895041
  72.6085377   1.8870120  44.2359018  72.3286867   0.8719112  43.1485939
  82.6712132  27.9384398  62.7096033  82.6912880  28.6101937  62.0280075
  81.8168068  27.5191450  62.6075554  11.5447438   6.2183392  59.9599361
  10.9986687   7.0044607  59.9669075  12.2185433   6.4005613  59.3049431
  64.8898935  17.4520779  33.9514971  64.6249247  18.3592618  33.7997031
  64.7927380  17.3289835  34.8957634  80.9205627  98.8211250  44.3625784
  80.1794243  98.4119606  44.8092604  80.5903912  99.6752548  44.0838766
  24.6472740   0.2853956  55.5913639  24.2071462  -0.5477327  55.7599401
  25.1047325   0.4842142  56.4083290  59.9835730  13.7813389  87.0075703
  59.9618006  14.1163599  87.9039574  59.2508411  14.2162549  86.5714645
  51.8418312   5.6773615  48.8764334  51.6227436   5.5320603  49.7968245
  51.5680742   4.8732305  48.4352303 107.1693802 102.0051861  53.4881496
 107.0342159 102.5541210  54.2605734 106.8994331 102.5555515  52.7529860
   7.0287812  91.9284725  24.7558475   7.7740222  92.4224091  24.4139862
   6.8676907  91.2520695  24.0979981  46.3121557  18.7663412  41.9158268
  45.9299564  18.3035433  42.6614618  45.8206129  19.5861304  41.8652248
  69.2360115  75.2952290  18.9789486  69.0690422  76.0503340  18.4148860
  69.3056870  75.6646061  19.8592532  97.2971821 104.0323353  75.1534653
  97.5369263 104.9125862  74.8637867  97.7827454 103.4480190  74.5711994
  45.6726360  15.1837218  65.9341526  46.5316391  15.1278162  65.5155659
  45.8256817  15.6971705  66.7273617 102.4869537 104.4064617  82.7305889
 102.2368908 103.6508083  83.2622814 102.8550053 104.0266895  81.9327545
  37.8953147   7.3763192  51.2816191  37.0452070   6.9685650  51.4468002
  38.3635592   6.7423213  50.7384539  44.4969893  20.6610847  86.7294598
  45.0012493  19.9927616  87.1934605  44.6338463  21.4604187  87.2379589
   2.1534784  76.2621737  24.5381808   2.6139295  77.0238543  24.1859508
   1.2711501  76.5817928  24.7267938  37.6221776   4.3786651  74.7850180
  37.9549456   3.6728829  74.2306089  38.2787371   4.4707087  75.4754448
 113.9944363   9.6699417  27.8417134 113.8290405   8.7446183  27.6610160
 114.9372482   9.7742343  27.7133989 110.2220345 108.6033630  37.7474618
 110.4987621 109.5193291  37.7217841 111.0338020 108.1112576  37.8703284
  70.8480692  10.2986729  65.5599117  71.3843775   9.5973599  65.1900959
  69.9888897  10.1824331  65.1542902 106.1255932 106.1397743  53.0681896
 106.1289883 106.3985920  52.1466494 106.9739151 106.4315510  53.4020424
  26.7740679 105.4019356  63.1662512  27.4125886 105.9898758  63.5697937
  27.0639229 104.5248985  63.4172916  43.4680080   9.2540681  51.1799574
  43.4954357  10.1964676  51.0145378  42.8512955   9.1560817  51.9054174
  32.5746131   3.4414142  71.9030523  32.5479555   4.1201955  72.5774240
  33.4906888   3.4140500  71.6268444  39.6767974  48.7638807  32.7511048
  39.8509240  48.4119463  31.8781471  39.7941852  48.0170584  33.3382249
  16.9994235  19.9381316  36.2776303  17.7358246  19.7136080  35.7088280
  16.8738592  20.8780432  36.1471152  34.5227385  13.6200774  69.3595791
  33.6116934  13.4809923  69.6181965  35.0310731  13.3781743  70.1337290
   7.0208305  96.7898273  59.9357271   6.4071119  97.3254299  60.4384327
   7.3695570  97.3845768  59.2717361  17.4290383  26.6935682  44.2517900
  17.8078520  26.4015341  45.0809145  16.7729747  26.0291958  44.0410233
  23.3174586  48.0841494  74.8366022  22.7861166  47.7494478  74.1141844
  23.4438324  47.3288918  75.4109240  70.9748602  11.5709078  11.3378322
  70.1312113  11.8882608  11.6599774  71.0754013  11.9855571  10.4809844
 100.7113457  94.5176601  71.6173458 101.0316563  94.8640537  72.4501944
  99.7584438  94.5191669  71.7079258  76.6228580  28.1413484  49.0203047
  75.9338665  27.8995109  49.6392012  77.2025442  27.3799753  48.9976978
  22.6505017   1.3052155  50.4834223  21.8862057   1.7790395  50.8114052
  23.1900263   1.1543913  51.2595654  58.1538582  14.1133463  71.7734432
  58.3845806  13.5378170  72.5026655  58.5461330  13.6967206  71.0061264
  93.9022255  15.7775152  32.4542618  93.8604259  15.1283157  31.7521048
  93.0181313  16.1419773  32.4964190  51.3024378  35.9992266  55.2965069
  50.5725718  35.4072905  55.1144552  51.7917633  35.5677629  55.9969616
  25.6134558  22.8311062  63.7211847  25.8841109  22.3739552  62.9249477
  25.4308391  23.7255931  63.4334803  85.6644249 107.1904087  93.4157753
  85.6821251 107.3792934  92.4775600  86.1840153 106.3919544  93.5091877
  20.7496333  22.4506879  64.9878025  21.1321044  23.3225155  64.8884964
  20.8491230  22.0459247  64.1261196  44.0443563  57.2775745  15.3394723
  43.7268734  56.4766169  15.7564819  43.2497740  57.7400255  15.0729954
  57.6005793  34.7105527  92.8273964  57.4584055  34.4690633  91.9121361
  58.5511780  34.6855426  92.9368114  30.8436942  99.2871761  27.4917674
  31.7177701  99.6390629  27.6602960  30.8718872  99.0032101  26.5780950
  39.9961519  55.9836721  69.1101313  40.0382900  56.8732166  68.7591791
  40.0844240  56.0952139  70.0567055  26.3290095  33.9744973  49.7121239
  27.0576334  34.5951438  49.7003603  26.7426300  33.1175590  49.6081734
  32.5029826  42.0012140  36.9825315  31.8595433  41.7603111  36.3160610
  32.1377969  41.6645479  37.8007793  55.5472183  35.2784634  38.0926371
  55.7086086  36.2089896  37.9367328  56.1727190  35.0381207  38.7761712
  29.9072528  12.3816633  30.2311921  29.1645908  11.9941998  29.7679877
  29.6289778  13.2771611  30.4232287  48.1423283  29.4581032  38.8484240
  47.7658844  29.9782395  38.1385088  48.6871719  28.8074207  38.4057164
  61.0789251  30.0275469  64.9674034  61.3340807  29.5943761  65.7819557
  60.6454611  29.3430376  64.4577122  12.5994039  53.2469702  82.7158737
  13.3106303  52.6472855  82.9411888  12.3246622  52.9744720  81.8403721
  66.0872316  40.9194851  57.6720142  65.3502178  41.0267496  58.2732916
  65.8612013  41.4624357  56.9168043  50.3912258  26.6891384  34.4500065
  51.0900497  26.7583466  33.7995601  50.3615189  25.7584000  34.6715283
  13.5145855  18.4155881  78.9839792  13.9183533  18.0915260  78.1788778
  12.8578174  19.0449655  78.6860275  41.2671757  36.0359168  73.8843489
  41.6967726  36.7742825  74.3162060  40.3566980  36.3137865  73.7840986
  45.4954672  22.7676725  39.1775775  45.2135468  22.0655918  38.5912013
  46.3191938  23.0777097  38.8013101  33.9727497 100.8893299  81.8075371
  34.6093345 100.2112675  81.5812016  33.6004329 100.5998707  82.6404953
  67.5874329  24.6206093  40.7297897  68.0352974  23.9649391  41.2643433
  68.2944155  25.1199365  40.3210402  70.2361727  17.3068523  87.8175354
  70.4069662  16.4234173  88.1440353  69.3694115  17.5253272  88.1599236
  63.6921644  18.2103193  74.8592567  64.1377306  17.5337958  74.3493414
  64.3951368  18.6556983  75.3322268  50.6959200  30.5166936  49.0889645
  50.5223560  29.6408224  48.7440634  51.1226368  30.9781718  48.3670378
  64.5912457   3.6422151  42.3571730  65.2814293   4.1883802  42.7334499
  64.7582388   3.6606333  41.4148331  20.0597644  94.9853134  54.3842888
  20.7116413  94.6433926  54.9961519  20.3804398  94.7230339  53.5213804
  59.9130630  17.0974445  38.4933853  60.4318094  16.5738368  39.1040945
  59.8932600  16.5781260  37.6895523  55.2113581   0.2856292  51.3452148
  55.4630852   1.2089911  51.3615990  55.9514666  -0.1570585  50.9298897
  34.1391182  15.6184399  46.7850018  34.1939330  15.8164465  45.8501101
  33.2373261  15.8337939  47.0229673  40.4035234  44.3208313  57.4435854
  40.0787306  45.1836729  57.1861935  41.3422537  44.4491243  57.5798035
  17.9289436  38.4304738  87.7748585  18.7750518  38.2806468  87.3530960
  17.4182642  37.6466012  87.5724125  20.0941133  52.8151464  26.5230083
  20.0120759  51.9993639  27.0169783  21.0266757  53.0270481  26.5637159
  44.7623158  15.5045474  42.8622627  44.9688244  14.6103287  42.5903034
  44.9779129  15.5271673  43.7945890  66.8740463  18.5243416  50.3937817
  67.3472118  19.2783320  50.0418615  66.4399290  18.1377578  49.6333027
  92.7780056  13.4365690  38.9864445  93.2902718  12.9634643  38.3307076
  92.4557781  14.2111266  38.5255122  44.1442966  59.5908451  64.4297600
  44.0712547  59.5693636  65.3839254  43.2778120  59.3304539  64.1172934
  76.3839483  35.8096313  39.4219398  76.5030622  35.7894564  40.3714848
  75.4889107  36.1260939  39.2994976  47.9733086  11.9278014  33.2265949
  48.0899286  12.1307480  32.2984552  48.6677790  12.4169517  33.6678195
  16.9842947  32.0630693  54.9597025  16.4664614  31.3967013  55.4114056
  16.8139958  32.8694439  55.4465199  50.4829121   9.7994322  15.3037679
  51.4318323   9.9176711  15.2613342  50.2149963   9.6834433  14.3921757
  93.4589672  93.2948017  55.7268095  94.0407944  92.5806332  55.9869385
  92.6306820  93.1008530  56.1656189  42.5685930  20.2736712  36.2526822
  41.6343355  20.2981210  36.0458016  42.9576302  20.9367132  35.6823659
 114.4277096  21.4153028  54.2432308 114.8704052  20.9761310  54.9694347
 113.9307213  20.7209826  53.8106108  53.5094786  30.8293653  27.4527717
  52.7798748  30.3029037  27.7794933  53.5345650  31.5901971  28.0330610
  53.3637142  13.3630407  58.7460899  52.6873589  14.0316141  58.8546419
  53.0924273  12.6515162  59.3260622  45.0823116  21.0050893  48.1611109
  44.8483944  20.5553102  48.9730310  45.7415533  21.6472077  48.4243822
  44.0785360  30.9250474  78.8093138  43.3929873  31.4938259  79.1596651
  44.8962307  31.3261056  79.1038609  72.8602219  24.1808009  82.8479385
  72.0057678  23.8974881  83.1733131  73.1840134  23.4343839  82.3437023
  62.7476263  30.3847098  76.6984606  63.3959389  30.0174451  76.0975981
  62.1495008  29.6592951  76.8780470  57.3756075  17.3722363  60.6203556
  56.9164371  16.9764590  61.3611364  57.8108215  16.6374326  60.1880503
  28.8418937  50.3526640  65.9036446  28.0591273  50.7402086  66.2952042
  29.1223145  49.6898556  66.5347338   7.4443579 107.2556210  61.2859392
   7.3770493 107.1117306  60.3420115   8.1317931 107.9151344  61.3792658
  73.4563398  40.9308863  27.7500725  73.4514761  41.7133570  28.3013868
  74.3559790  40.8697653  27.4289107  89.9153519  29.4159603  50.0559568
  89.3867874  28.7240219  50.4535389  89.7972679  30.1696730  50.6340599
  59.5127678  43.1400347  34.7380161  59.2946863  42.5606012  35.4680347
  60.4687119  43.1197023  34.6934104  60.5316257  36.6949987  41.2643862
  60.6195974  37.5537753  41.6778994  59.6287060  36.4335680  41.4449883
  43.1684828  26.0839796  85.6939030  43.2586527  25.5390453  86.4756584
  43.7312222  25.6643009  85.0431919  59.5108128  38.0178022  61.3540697
  58.9369440  37.5319910  61.9464302  59.9852133  37.3408580  60.8714533
  32.1295500  99.6886349  56.6934109  31.6881108 100.5376339  56.6698313
  33.0335569  99.8952293  56.9307327  56.9415665  24.3638682  37.9179549
  57.3135614  24.4587493  38.7947965  57.6645947  24.5741653  37.3269963
  32.6052308   8.7777376  85.0769901  32.0817256   8.1396884  85.5618286
  32.6319194   8.4360319  84.1832542  71.8297720  18.0218112  83.5960770
  70.9203053  17.7319276  83.5249138  72.2079134  17.8373992  82.7362919
  43.3667850  29.2454839  52.7450562  42.6146030  29.4699025  53.2928610
  43.6976957  30.0886369  52.4354982  36.9581556  47.2643566  46.1762094
  37.1728516  46.3350296  46.0956717  37.7086997  47.7177143  45.7923031
  55.2516699  26.2348318  85.2379990  55.8261156  25.6047153  85.6729603
  55.3460741  27.0381117  85.7499123  80.8406639  39.4153500  41.9416571
  81.5160370  39.4361877  41.2636662  80.5968761  40.3327084  42.0651484
  63.6595631  34.6324277  52.1320534  63.7235165  33.7480044  51.7715836
  63.7666464  34.5146942  53.0759287  65.4930735  10.8855569  43.1674337
  65.2881718  11.4200699  43.9345980  64.6656847  10.8247292  42.6899815
  73.5400343  37.3492432  34.3159008  73.0777359  36.6018844  33.9364719
  72.8447294  37.9500008  34.5839930  12.8604662  28.7459135  48.3435631
  12.3297215  29.5012879  48.5964489  13.0238140  28.8701820  47.4086285
  49.4337845  23.3357835  35.3006387  48.9251518  22.8838730  34.6273661
  49.1283560  22.9580712  36.1254263  45.4185915   7.3865581  44.5053101
  45.8098078   6.5131825  44.5252228  45.6154394   7.7568555  45.3657484
  21.1593723  97.2227669  55.3649664  20.5909729  96.5525246  54.9855709
  22.0471025  96.9022274  55.2055359  22.3392820   5.4127532  44.7628498
  22.4223423   6.1807024  44.1975307  23.2325792   5.2337348  45.0564575
  54.4578886  40.7347870   8.7727129  54.6272135  41.4777088   9.3520474
  55.1720905  40.7599926   8.1359154  47.3025703  51.2192822  29.1473746
  47.0799828  50.3172350  29.3775845  47.8847599  51.5090275  29.8497534
  51.3866043  53.4465408  94.8759365  51.3598967  54.3815613  95.0790501
  51.2877321  53.4051514  93.9247513  51.8739414  38.7463737  72.2816992
  52.3002577  38.0014372  71.8579531  52.5969410  39.2982244  72.5799751
  57.7653170  36.4019513  41.3965321  57.6728010  35.6735587  40.7824373
  57.8845072  35.9829688  42.2488689  65.7124329  19.9349654  72.1143723
  66.0467672  19.4109333  71.3864708  64.7653961  19.7974467  72.0933485
  41.8220139  35.7119155  70.7357311  41.6028214  35.0024247  70.1317358
  41.3334131  35.5072880  71.5329933  56.0244989  40.2060175  35.1523495
  56.4307737  40.7388783  35.8358955  56.7560244  39.7457004  34.7410011
  50.6874609   1.6082767  60.7296371  50.8448172   1.5527529  61.6721821
  51.5569496   1.5318216  60.3367329  84.7613144  89.2338085  79.0118074
  84.1241550  88.5487366  78.8094902  85.1411438  89.4654846  78.1642914
  54.9254608  49.1566801  33.2445765  55.4736757  49.5454550  32.5629997
  54.4605207  49.8990822  33.6304474 103.3979607 102.1255493  41.4389753
 102.6999474 101.6852665  40.9540558 104.2044640 101.7246532  41.1148262
  17.3435354 107.5672054  73.7611532  17.8943455 107.5409985  74.5435524
  16.7114890 108.2643604  73.9364386 113.5646534  89.9467468   6.5238708
 113.4532070  90.4942417   7.3010862 112.7448368  89.4573307   6.4560920
  41.3093615  28.2187390  72.4655294  40.4917622  27.8804731  72.8306866
  41.9956636  27.7458715  72.9362965  63.8743401  10.2156794  63.4544182
  63.4785461  10.6575489  64.2056370  64.6798563   9.8309648  63.7999201
  41.4720201  29.4722223  32.9459834  40.5397272  29.3353510  32.7776814
  41.7306376  28.7240219  33.4840775   4.0934524  26.1209393  65.8040810
   4.0359223  26.9267654  66.3174677   3.6488292  25.4636645  66.3393641
  15.8399618  32.0249438  89.3719864  16.1670160  32.9057193  89.1889477
  15.9336317  31.9267797  90.3195286  24.5377994  18.5848355  23.6067367
  23.5960197  18.5950482  23.7775517  24.8838806  17.9289067  24.2118955
  26.6596317  29.8764729  77.5431824  26.3674521  30.5752230  78.1285143
  26.4096546  30.1760411  76.6691113  25.9439778  95.5041218   7.0415992
  25.7221270  95.3209496   6.1286581  25.3727317  94.9262047   7.5474912
  67.0691824  23.1554580  67.7038288  67.4347591  22.2791481  67.5827265
  67.5785017  23.7110925  67.1138287  33.5444021  41.4696121  89.9399090
  34.2465639  42.0976019  89.7701263  33.0683279  41.8380451  90.6841183
  48.9884281  20.9845424  55.5622101  48.3834314  20.9066939  54.8245430
  48.9103508  20.1503396  56.0250711  70.9966612  43.4472322  40.4793644
  71.5881300  43.9922667  39.9603891  70.6973791  44.0221024  41.1837721
  40.1862955  54.8340178  23.3788180  40.7529068  54.6854448  24.1358566
  40.6851721  54.4942522  22.6359081   5.2854431 104.5378685  42.4821186
   4.5392913 104.0483284  42.8282928   5.4876924 104.1096878  41.6502619
  39.2957306  50.6880331  48.3842802  38.5354543  50.9673738  48.8943577
  39.2010951  51.1403847  47.5460339  43.9046192  62.8877115  81.3442230
  43.5273933  63.7653017  81.4056587  44.5489407  62.9527760  80.6393433
  57.3932219   4.5998397  68.8560915  58.0608511   5.0456423  68.3347797
  57.8143692   3.7892094  69.1420031  42.0588064  59.8636580  36.4862132
  41.6678238  59.0199852  36.7133188  41.8842220  60.4205418  37.2449183
  44.5605516  28.1695414  76.1605072  45.4618263  28.2066751  76.4807463
  44.6327066  28.3412981  75.2216101 114.1486740 101.0036087   5.4842675
 113.9600563 100.0676727   5.5526787 113.3200455 101.4313412   5.7002479
  53.6783791  32.2707510  21.3462353  52.8184128  32.5284910  21.0141897
  53.7003326  31.3195515  21.2414932  77.8114176  16.9836891  54.0843487
  77.0902348  16.3546240  54.1043425  78.3518839  16.7525363  54.8397970
  53.4524775  52.2874403  14.8159683  52.7317953  52.5320387  14.2354321
  53.6042023  51.3604307  14.6319509  76.0622454  76.6484547   6.5987521
  75.4285049  75.9648371   6.8161684  76.8113804  76.1744976   6.2376571
   2.8524634  83.7772846  33.0028725   2.9821110  82.8340054  33.1011057
   2.1893093  83.9973164  33.6571217  50.8608484  25.5715156  47.7923965
  51.4373732  25.1197839  47.1761274  50.1167774  25.8545113  47.2608900
  52.2848749  18.5994720  54.8936796  52.1488380  17.9623961  54.1923523
  51.9942856  19.4318128  54.5208549  29.3819356  26.5063381  57.7542830
  30.2083421  26.0691071  57.9594946  29.6333766  27.4040532  57.5372124
  31.3691568  66.6059208  81.7205715  31.3009334  65.6562090  81.8186951
  31.8536067  66.7281675  80.9041214  12.3706245  28.2727957  68.5338831
  11.5699160  28.4281802  68.0329275  12.0645213  27.9402184  69.3776369
  64.6732426  36.1936212  29.3203092  64.0741158  35.4472065  29.3081307
  64.7339296  36.4369893  30.2440619  40.3697920  19.8589742  62.5339699
  41.2155008  19.7828937  62.9758072  39.8479152  19.1399610  62.8901958
 107.8931713  99.5498085   5.6107002 106.9814110  99.8412323   5.6135261
 108.3359241 100.1424313   6.2181550  46.8950844  45.9517765  88.3073330
  46.6387224  45.7994270  89.2168903  47.5630856  45.2888680  88.1325150
  49.8862028  44.9233484  55.8819008  50.5666304  45.3957939  56.3615322
  50.3657150  44.3966770  55.2424335  68.8042498  42.0248127  58.3477354
  68.7195206  42.1912670  59.2865372  68.0509567  41.4746237  58.1330919
  56.1494350   6.7145413  26.5901780  55.8181047   5.9059125  26.1995745
  56.9381142   6.9178224  26.0872912  53.9217186  17.3640728  68.2671022
  53.5728550  16.4848471  68.4137058  53.2025957  17.9496753  68.5041046
  47.2661209  42.5547695  63.8483906  46.4021540  42.8253698  64.1591406
  47.8683949  42.8426886  64.5343924  53.1784630  18.4400547  26.5898609
  53.5620070  19.2976487  26.4063954  53.5052013  18.2128346  27.4604058
  35.2911639   3.4942746  34.5153809  34.6957755   2.9064935  34.0503454
  35.2172589   3.2329822  35.4332566  40.7496834  12.7848339  52.6134443
  41.3313055  13.5022235  52.3618603  40.6767607  12.2477055  51.8245173
  56.3500023   2.4448289  57.4339390  56.4196301   3.3859736  57.5940371
  57.1267557   2.2317423  56.9167519  56.6174936  41.1436939  58.6565113
  56.2263680  41.9174623  59.0621424  57.5265074  41.1497164  58.9563274
  80.4431725  15.2925074  91.1265087  80.1815033  14.4302654  90.8035564
  81.3830757  15.3387594  90.9513569 102.8087997 108.8905716  72.8865623
 103.6392307 109.2175293  72.5405788 102.7838421 107.9713821  72.6206541
  33.8722587  15.8084548  39.5813823  32.9653740  16.1146426  39.5750785
  34.1267967  15.8325946  40.5038023  72.4379444  32.6952958  47.6428080
  71.6514587  33.2288027  47.7570248  72.6528358  32.7812123  46.7140055
  20.2479219  41.9031620  29.3392229  20.9935284  42.4335957  29.6201921
  19.8617530  42.3969412  28.6158371  49.5377922  16.0171628  32.4731255
  48.8297367  16.2405944  31.8689990  50.0486422  15.3541720  32.0086837
  46.0343075  46.0372972  43.8094950  46.5173769  45.5551529  43.1383657
  45.5699539  46.7205572  43.3260059  15.5864918  30.2407551  48.0902863
  15.1991403  30.7463527  47.3757505  14.9439418  29.5556641  48.2747078
  33.8353324  36.4227676  35.2714753  33.4961534  35.7758951  35.8901381
  33.1229210  37.0540190  35.1703572  27.5963163  10.9572017  53.9232826
  28.1024218  11.0817385  53.1204224  26.8552113  10.4129457  53.6572361
  61.9807100  17.7151251  44.4413376  62.1677160  16.9280589  44.9529934
  61.5257549  17.3925829  43.6633825  54.6265697  16.4605737  41.1164236
  54.4164753  16.9885254  41.8867207  53.8397169  16.5057254  40.5732346
  51.1220121  13.5097265  76.5691710  50.8539724  12.8842854  77.2423792
  52.0132589  13.2469118  76.3393068  40.6036806  25.1807022  67.5026083
  40.3591061  26.0748792  67.7410698  41.4037228  25.0105429  67.9998064
  22.1666455  24.7234583  51.4079618  23.0811357  24.4900489  51.5675306
  22.0394969  25.5389524  51.8927670  51.7775488  21.4697933  54.3494415
  50.8456326  21.2633252  54.4211292  51.9887638  21.9122720  55.1715326
  66.0165596  27.8155756  53.2159615  65.9000778  27.8479195  54.1654968
  66.7003012  27.1594906  53.0807400  42.7382278  18.8275623  63.7098026
  42.8276396  17.8884006  63.8717079  43.6233234  19.1179705  63.4895802
  13.2560349  84.0001774  49.9861670  12.6502633  84.3960476  49.3596220
  14.0816748  84.4640255  49.8468876  50.6402969   1.7601421  34.3426943
  50.3707457   2.0576406  35.2116418  50.2198315   0.9062988  34.2407537
  39.7557855  12.2062850  34.6765184  39.6381569  12.2915637  33.7304091
  39.0758634  11.5895569  34.9477816  35.8154535  26.7095852  66.2200880
  36.2350273  26.0361147  66.7554617  35.1710749  26.2327290  65.6970024
 110.8944416  77.9857016  85.6107044 111.0049534  77.6298714  86.4924145
 109.9859524  77.7867222  85.3842545  31.8383431 107.2255898  93.5894871
  31.5991640 108.0703068  93.2080841  32.7409601 107.3434162  93.8855171
  57.3524427   8.7327605  62.4055195  57.5641680   7.9029173  62.8330278
  56.4339209   8.8880575  62.6256037  52.2289610  35.5113435  68.1964016
  52.4021482  35.8461952  67.3165655  52.7000284  34.6788812  68.2328796
  21.6602349   4.9810332  33.3272362  21.2055063   4.8762089  32.4914932
  22.0563436   5.8509737  33.2769203  51.9105339  11.5252256  59.7439575
  51.0534334  11.9398344  59.6454239  51.7131567  10.6026292  59.9054813
  53.6346436  23.6208963  58.5502529  52.8306913  23.1627059  58.3054066
  54.0915632  23.0103731  59.1288042  63.9533615  29.0019274  62.8761578
  64.3149853  29.1135097  63.7553692  64.5469141  28.3838081  62.4497128
   5.8652556   8.9390236  92.6551247   5.0383335   9.1255724  93.0996799
   6.4105272   9.7055900  92.8320026  57.2911596  14.3716156  80.4708481
  57.0359135  13.4672189  80.6529140  57.6599073  14.3433022  79.5879745
  57.2653437  35.5988026  61.2004423  56.7086172  36.1393189  61.7609167
  56.7477703  34.8101950  61.0378122  57.2008133  19.9927151  58.1796217
  56.8831301  19.1019368  58.0318975  57.7451801  19.9258447  58.9641142
  75.1700354   0.8874111  49.3926573  75.4831362   1.3208398  48.5987186
  74.2337704   0.7578705  49.2414713  60.6340075  18.1485116  48.8424253
  60.8410406  17.3681092  48.3282852  60.4007053  18.8097012  48.1907892
  47.2439766  28.8585472  76.5195084  47.4913406  28.5605502  77.3948574
  48.0761242  29.0560913  76.0896969  30.7399392  10.9988558  47.1359444
  31.5208554  11.4504659  47.4560261  30.0093484  11.5299606  47.4527979
  59.3738508  40.6609344  36.3286066  59.1457653  39.7361827  36.2335253
  59.9359465  40.6906080  37.1028161  39.8295403   6.5786356  74.8674822
  40.5252218   5.9291977  74.9699068  39.4718361   6.6874427  75.7486391
  25.4368114  11.8835139  80.5236816  25.6006503  12.3759949  81.3279533
  25.4933953  12.5372553  79.8267937  33.9037752  12.7860832  42.3355770
  33.5232568  12.3015487  41.6030025  33.5266089  12.3774815  43.1146908
  69.6908092  36.2762713  86.6440105  69.1400099  35.6601214  86.1610889
  70.2771139  36.6429591  85.9821892  74.0605974  94.5211887   9.9578089
  73.6680031  93.7023067  10.2603328  73.8863087  95.1450634  10.6625342
  47.6286077  33.3930254  28.3274031  48.2434988  34.0336609  28.6847925
  46.7655659  33.7271428  28.5718656  34.8831153  32.6737928  50.4607391
  35.1018739  33.6054206  50.4819202  34.5450306  32.4871850  51.3365889
  36.4636683   7.9153198  55.7419062  36.2914586   6.9749874  55.6934118
  37.0052218   8.0995309  54.9744320  60.6589317  39.3914557  42.5076437
  60.4083824  39.9024129  41.7379808  60.0958681  39.7214293  43.2078695
  82.7580452  82.7839470   2.4735127  82.0613289  83.4335518   2.3795006
  82.9328728  82.4891758   1.5797679  52.7319860  34.6360159  43.2076597
  53.0652666  35.1826286  43.9192581  53.4911394  34.4877934  42.6437902
  55.0970697  26.9291258  77.4162436  54.6148777  26.4811611  76.7212296
  54.6431828  27.7651954  77.5221300  21.1060262  35.0668144  46.3515949
  21.6572928  35.1453209  45.5730200  21.1771393  34.1461158  46.6035700
  30.9066653  99.0376186  48.8981295  31.7481351  98.8329601  48.4903574
  30.9018779  98.5261345  49.7071981  53.9194584  15.4978168  52.0439672
  53.4161568  14.6836221  52.0411825  54.0588474  15.6900597  52.9712486
  28.2258010  36.2571049  72.3417854  28.2923126  35.3238034  72.1399069
  28.1490707  36.6820621  71.4875269  10.2158809  59.7131157  65.2750111
  10.2872789  60.6118107  65.5966997   9.9604821  59.2031431  66.0437298
  57.5720930  27.0274830  27.9439187  58.2852411  27.6621199  28.0137825
  57.9166126  26.3421226  27.3713636  44.1021872  36.3806224  40.9860420
  43.3870459  36.1856604  41.5916777  43.9250898  37.2719264  40.6853008
  89.1834831  16.5729904  51.1314392  89.9254513  16.3892233  51.7075872
  89.1277504  15.8064961  50.5608177  72.3713303  34.9902940  52.4224615
  71.6369295  34.3960643  52.5766420  72.1183777  35.8025599  52.8611755
  55.0884628  27.7687240  32.8219008  54.2547989  28.1436563  33.1059241
  55.3756189  27.2346783  33.5625553  48.3122349  13.1767130  43.1102037
  48.7988234  12.3896313  42.8653193  47.4061728  12.9824901  42.8702927
  63.0689716   2.7148756  48.7430334  63.6119843   1.9271125  48.7148237
  63.4050369   3.2108283  49.4895697  68.4106445  28.4428644  89.1670322
  68.5124063  27.6407266  89.6793365  68.7379932  28.2145476  88.2970047
  49.5191288  37.9065418  60.7039976  48.6871386  37.6282716  60.3211164
  49.3893719  37.8190494  61.6483164  33.2950616 105.9355354  52.6750755
  32.3864913 106.0139370  52.9659033  33.7441802 105.5089664  53.4048414
  59.0514088  22.9419422  82.5605392  58.8493538  22.9836607  81.6258335
  59.8997974  23.3776665  82.6418686  42.1996737  15.1753008  39.0711594
  42.5468063  14.9858737  39.9428511  42.9313898  15.0015712  38.4790111
  54.7623968  46.6732025  29.1808510  55.6211710  46.2553644  29.2452717
  54.9526882  47.5710869  28.9091372  80.7001495  20.1592016  51.6842222
  81.3438797  19.5082605  51.9637251  80.5179501  20.6699085  52.4730301
  75.3274775  30.9261727  29.1322064  76.0753155  31.2922931  29.6043611
  75.5409431  31.0556531  28.2081389  52.4997234  30.4915404  57.9615164
  53.3799362  30.4248261  57.5913763  52.5075340  29.8918867  58.7075615
  87.4169159  48.1788349  50.3993702  86.7799759  48.0957747  49.6896935
  88.1477070  47.6215601  50.1317501  62.3459005  47.7481556  34.0219021
  62.5742054  48.5065031  33.4842968  62.8217602  47.8834867  34.8413348
  55.7545948  36.9296384  53.6813688  54.8288965  36.7406368  53.8349771
  56.2214613  36.3235617  54.2566442  57.8352785  25.5301237  31.6017604
  58.3564615  24.7391558  31.7394900  56.9296122  25.2438450  31.7202687
  49.9621820  30.0408983  45.9200430  50.0551319  29.7596121  45.0098372
  50.7625771  30.5335450  46.1014128  38.3548427  16.4139616  49.6799469
  38.9022470  15.6361842  49.5720387  37.4662614  16.0704374  49.7729206
  59.7953844  21.3497734  47.6961088  59.6034431  21.7508006  48.5437918
  59.0003872  20.8645916  47.4751759  28.6293030  52.0636559  40.3382492
  29.4038105  51.7465734  40.8028221  28.1208348  52.5234699  41.0062790
  52.5273514  49.9487352  63.1151724  51.8652725  49.3372345  63.4375906
  52.0683908  50.7861853  63.0499458  65.2987432  37.3168445  60.2414799
  65.2750397  38.0853271  60.8116579  65.2800703  36.5720487  60.8424473
  78.7457561  37.8007936  42.6324511  78.1233263  38.3370352  43.1236315
  79.4368410  38.4110761  42.3751831  95.8965397  39.4526005  39.9446130
  95.4809761  38.6168337  39.7324109  96.1435604  39.3702197  40.8657122
  29.3045306  39.9443865  42.5474501  29.4382882  39.5299125  43.3998299
  29.6754336  40.8212137  42.6466417  33.6351156  29.8575950  65.8778906
  34.0494680  30.1362967  66.6945124  32.7074027  29.7713518  66.0973024
  56.8403149  28.6223221  48.7236738  55.9756136  28.2907677  48.9657354
  57.1164608  28.0633473  47.9973698  52.3236942  13.3763409  71.0958099
  52.2605228  13.5913765  70.1652145  51.7547560  12.6143134  71.2047052
  95.1034641  41.3842010  42.9990149  95.6655693  41.9384289  42.4576235
  95.2919102  41.6566610  43.8970613  58.3599997  11.1086416  39.1191626
  57.9819345  11.9824529  39.0204000  57.6094246  10.5163693  39.0735078
  61.5045071  36.2037015  50.7435274  60.6242418  35.8528376  50.8786583
  62.0783615  35.4398060  50.8016872  65.8388138  24.1516805  48.6360645
  66.2097025  24.9245381  49.0619326  65.3096724  23.7343907  49.3158484
  39.8383164  43.6634064  45.6027746  39.2592454  43.6017847  46.3624525
  40.5575895  44.2234659  45.8946943  54.2007732  25.4252124  75.0231314
  53.4049320  24.9572301  74.7704268  54.0775537  26.3101244  74.6796513
  43.9528322  31.9900870  60.7771158  44.8183489  32.3921609  60.8509350
  43.7407017  31.7128849  61.6684008  34.5759535  44.7711706  63.5446310
  34.6082234  44.4958258  62.6284552  33.7000251  45.1417255  63.6526489
  44.7625828  33.5636973  71.4423466  44.5867252  34.0845942  72.2259140
  44.0685320  33.8093853  70.8306646  64.0288544  56.1836720  61.9523048
  64.2762280  56.8667841  62.5755262  63.8007975  55.4318237  62.4990606
  47.5279951  23.0624318  57.1214008  48.2042170  22.5668693  56.6594791
  46.8325663  23.1794190  56.4741564  53.9587736  49.4535398  61.0828924
  54.7491741  49.0197039  61.4042711  53.3949471  49.5253038  61.8530750
  68.1478786   8.4834963  58.0618763  67.6116276   9.2518234  58.2576847
  68.5887146   8.2824075  58.8873816  59.3482924  40.2149820   9.9299145
  60.2016592  39.8754334   9.6602762  59.3042517  40.0339127  10.8688009
  67.4677324  11.9776881  51.0333681  68.2822704  11.5454602  50.7765818
  67.7484274  12.7152419  51.5750837  85.5062580  30.0031447  32.1022773
  85.0347710  29.9732661  32.9347634  86.1637306  30.6881213  32.2238326
  63.5792542   9.7459245  46.0122490  62.7800846   9.7882724  45.4871178
  64.1281223  10.4517210  45.6704521  75.1161098  48.1399345  52.4297810
  74.4393063  47.4645805  52.3843193  75.9319735  47.6537657  52.5490665
  79.0225840  29.1321588  57.7782822  78.2977533  29.4592881  58.3110476
  78.6866713  29.1466188  56.8820763  75.6584167  17.5161636  52.2311878
  75.3021383  17.7922285  51.3867426  76.6076374  17.5415146  52.1104813
  76.9699717  53.8001823  59.9729204  76.2306070  54.3892288  60.1232433
  77.5751495  54.3084145  59.4328356  34.0614510  54.7649527  80.5272770
  34.4767761  55.1748991  79.7685432  33.1230211  54.8263597  80.3489304
  83.4783268  96.5428829  13.9200068  84.0022278  97.1733475  13.4257829
  83.9921379  95.7355499  13.8986623  72.8845978  90.4450417  50.2253342
  73.6175489  90.0730610  49.7347832  72.1699047  90.4906940  49.5902252
  68.2477379  80.8885002  58.3351564  68.2790518  81.5787506  58.9975834
  68.7606096  80.1727867  58.7105846  89.7926807  82.7005005  56.8726015
  89.2678738  82.1292877  56.3117838  89.7915363  82.2656918  57.7253437
  90.0109863  93.7320232  62.7601433  89.0981197  94.0009117  62.6571131
  90.0245285  92.8173637  62.4782896  73.0299568  71.9330454  71.4338017
  73.2124043  71.0029316  71.5673447  72.2263336  71.9472599  70.9139776
  72.0891857  66.4635992  53.6140013  72.7546644  66.3436413  54.2914820
  72.4425220  67.1518755  53.0503893  73.4649420  59.4090462  47.8964949
  73.6347628  59.0814257  48.7797070  72.7435923  58.8681936  47.5749922
  64.8912811  53.3612204  60.2816629  65.4520798  54.1261578  60.4105186
  65.1707554  52.7428913  60.9567928  56.6424847  33.0575967  46.0693359
  56.6397858  33.5960937  45.2779770  57.3130655  32.3944831  45.9055233
  72.4983597  65.9337282  65.8482456  71.7384911  66.0219479  65.2728748
  72.5503683  66.7724323  66.3066149  80.8097458  51.1347818  38.7238908
  80.6469440  51.3795662  39.6348286  81.5499115  51.6803455  38.4578919
  80.8931351  48.7294531  57.9187965  81.2244415  49.5979357  58.1472778
  81.5459824  48.1239939  58.2701302  65.9000349  65.8727932  57.7117443
  65.2450514  65.3510284  58.1754160  65.9016418  66.7147732  58.1670380
  60.5587101  54.2814398  59.2603588  60.3848457  55.0365448  59.8223400
  59.8318291  54.2739439  58.6376047  73.2752991  62.9787779  44.7918415
  72.9741812  62.1251965  44.4804668  73.8916969  63.2743359  44.1218185
  75.6954241  54.0218687  71.7634201  75.7060671  54.9786806  71.7884159
  74.9266720  53.7773514  72.2786474 101.7039108  79.5954800  45.8682632
 100.9448147  79.2199898  46.3143778 102.2883892  78.8515472  45.7227230
  69.9868298  57.4261236  62.5722122  69.0566063  57.2359085  62.6936102
  70.0057316  58.3188248  62.2273111  73.5026932  48.1315565  61.1125088
  73.4058952  47.8565788  60.2007818  73.3008146  47.3468208  61.6220760
  65.3997231  37.7600718  54.7193050  65.9957123  37.2447395  54.1757393
  65.9717274  38.3548689  55.2043438  82.2945881  90.2299881  55.2555227
  81.7659569  90.4890442  54.5007563  82.6071072  89.3515587  55.0388813
  79.7262096  53.3951378   8.9773148  80.4220581  52.7454615   8.8775581
  79.1614199  53.2599258   8.2164198  98.7971497  67.3066902  35.5958772
  97.8720856  67.3631525  35.3564835  99.2608166  67.2928095  34.7585869
  65.3807402  86.2766361  45.6794024  64.9162102  86.3275242  46.5147781
  65.2652359  87.1424770  45.2879858  86.3760853 105.7981110  51.2146950
  86.3420773 105.1879692  50.4779482  86.8467903 106.5588284  50.8741522
  60.9946299  85.9372997  52.4297142  60.2002430  85.9009743  52.9625082
  61.7026091  86.0551739  53.0630445  90.6511593  66.1921453  67.5025845
  90.3944206  67.1038103  67.3640728  91.2389946  66.2209034  68.2574701
  63.4434319  54.1307449  63.3909178  62.9679775  54.3411922  64.1945887
  64.2299843  53.6747932  63.6903667  73.8151789  47.6533604  67.5693464
  73.1092215  48.2558393  67.3350859  73.5199499  46.8016768  67.2473049
  90.7079887  90.3894520  38.4146070  90.6264687  90.4234028  37.4614906
  89.8135757  90.2522373  38.7267566  72.3127699  48.6476040  64.1200161
  71.9358635  49.4214773  63.7013245  72.2161674  48.8118172  65.0580645
 107.6224327  73.6899042   9.3272579 107.3326015  72.8472233   9.6767080
 108.2719803  74.0001869   9.9581659  68.6048317  58.1392813  57.1837807
  67.8751802  58.5146666  56.6909075  68.4426451  57.1960115  57.1706152
  95.6807709  95.7068157  41.5492105  96.6342068  95.7908154  41.5609837
  95.4804993  95.1457310  42.2984123  77.2085285  71.3134813  55.4537535
  76.6658163  71.8887377  54.9145174  77.0732260  70.4409122  55.0842237
  75.0998163  51.9094038  56.2243462  75.7466698  52.4256945  56.7052364
  74.6047640  51.4523315  56.9042301  76.4019394  62.7630663  46.9264078
  77.3119307  62.7453375  47.2227764  75.9433556  62.1741676  47.5256824
  84.4586849  49.8130131  39.6073127  83.7732601  49.1979218  39.3463683
  85.1859188  49.6273708  39.0132594  86.1009598  75.8817625  45.7368851
  85.9976959  76.3058615  46.5887737  85.2412796  75.5037546  45.5517387
  75.7790565  79.6340942  37.2569323  75.8714104  78.9145327  36.6324830
  76.6499805  80.0291443  37.2976589  70.4647493  48.5314798  25.0448799
  69.5093012  48.4735632  25.0432539  70.6767178  48.9699841  25.8689022
  87.3940182  61.2777185  40.3723860  88.0910492  61.4226103  41.0122108
  87.4520969  60.3457689  40.1618385  73.9518690  62.2754955  57.4577761
  74.1172361  61.6954422  58.2010317  73.2420540  61.8509626  56.9759369
  81.9112968  60.8475828  36.8735218  82.7581501  61.2736130  36.7409706
  81.6711903  60.5173588  36.0077667  93.6010933  60.6750870  50.8446169
  93.7662411  60.1486635  51.6268158  94.1506386  60.2785397  50.1686144
  68.8766861  52.6532602  53.4933949  68.4550285  51.8394613  53.2174206
  69.6413088  52.7322292  52.9230070  69.9814892  66.3973951  64.5964575
  69.6181488  67.2078419  64.9533749  69.4590664  65.7033014  64.9983788
  69.9815989  92.9385853  68.5217905  70.6864595  93.3386803  68.0125427
  70.2736616  92.0390797  68.6695337  75.6340599  82.9623985  52.8103209
  74.9875784  83.1270123  53.4967566  76.1480188  83.7687492  52.7670002
  92.6817894  50.9945774  46.3350105  93.4799194  50.6192493  46.7069578
  92.7191830  51.9209242  46.5731430  73.9625978  83.7559891  54.9751997
  73.2856321  84.4307327  54.9235964  73.6777687  83.1850147  55.6887150
  85.1452160  74.3814516  57.8166437  85.4411697  74.6393824  56.9436502
  85.2200890  73.4272051  57.8227043  53.1197071  98.6642265  52.7133703
  52.8610182  99.5597172  52.9310799  53.9678001  98.5490036  53.1419659
  70.4820871  54.2477703  56.5778160  71.2667894  54.6768618  56.2367010
  70.6424713  53.3136606  56.4438248  58.1219339  59.4129992  58.2582045
  58.4459591  59.5392513  57.3664093  58.7732792  59.8424911  58.8127470
  73.7277985 107.5143242  45.6286526  73.4201145 106.6642380  45.3141594
  73.6501265 108.0928040  44.8699903  75.1769352  57.7740526  58.9046717
  76.0895205  57.9964828  59.0889215  74.7000742  58.5941553  59.0322161
  62.2952318  54.1059399  65.8717537  62.2080135  55.0559521  65.9498119
  61.8072939  53.7584734  66.6183567  72.7852154  76.3078117  61.7928886
  72.0693398  75.7595491  61.4717007  72.3540068  76.9795370  62.3211575
  75.3496647  75.9986973  79.1957283  74.6417046  75.8638000  79.8256636
  75.1064968  76.7987156  78.7298203  73.2115316  52.4935961  64.1585016
  73.7035418  53.1001902  64.7118568  73.7954426  52.3143435  63.4215164
  81.1191845  32.4013877  48.7666607  80.9400272  32.5984693  49.6860552
  81.1720181  33.2585216  48.3438587  64.9471521  53.7660122  65.9752512
  64.0428066  53.9394569  66.2366104  65.2522516  53.1025362  66.5940762
  63.9441872  65.6971359  60.6954336  63.2598972  65.3358078  61.2588310
  63.9275694  66.6378355  60.8716345  69.5258427  51.2714958  66.1684132
  69.1845322  50.4425335  66.5039158  70.0658941  51.6139650  66.8806601
 100.1184750  82.9524994  34.0099955  99.8819733  82.8448486  34.9312496
  99.2942905  83.1711769  33.5751081  68.4751225  93.5310745  71.0053587
  68.9611149  94.3244934  71.2301445  68.6603069  93.3918095  70.0766277
  80.7508755  41.9582224  42.3888731  80.3903675  42.8259468  42.2063303
  81.5196419  42.1279430  42.9333305  92.5179958  58.7336063  44.7742462
  93.2291317  58.5277414  45.3809881  92.9529667  58.8682747  43.9322853
  75.8058500  29.3121147  34.9860883  76.6916943  29.2102742  35.3341365
  75.7248497  28.6191297  34.3307686  95.4496765  55.6778336  34.7443271
  94.8650074  54.9464893  34.9431658  95.0185490  56.4407015  35.1295543
  70.3055143  58.0894089  43.6818314  69.6673584  58.6940861  44.0604496
  70.2902699  58.2812786  42.7441835  67.6947117  67.2393656  52.6736832
  67.4037218  66.9047308  53.5219622  68.1413984  66.4983320  52.2643185
  63.5095692  63.8208103  55.8346224  63.2006979  64.1746330  56.6686726
  62.7873755  63.2747889  55.5239344  61.8858624  36.1847925   3.7982270
  61.6677618  36.8616748   4.4389248  61.7624474  35.3606129   4.2691091
  66.4777374  84.2792416  51.1446619  67.4320889  84.3493271  51.1215496
  66.2676716  84.1745472  52.0726395 107.0264053  69.5441914  49.0826893
 106.1861229  69.0888786  49.1360426 106.7962360  70.4732800  49.0894985
  72.3116064  45.8120108  65.5801249  72.8908539  45.7725143  64.8191118
  71.8883944  44.9537802  65.6037951  72.0627928  53.5496426  70.2393866
  72.3718166  54.4123125  69.9627209  72.7521515  53.2222509  70.8171701
  76.0927582  79.8430586  68.1361389  76.8157482  79.8757696  68.7625933
  76.3360262  80.4717541  67.4565840  69.4341278  59.0599632  48.1731987
  68.8179302  58.5349274  47.6624393  69.1064358  59.9560261  48.0962896
  91.9335175  90.6293488  45.2419996  92.3807144  90.1658916  44.5338631
  92.4042416  90.3686523  46.0336351 100.9077835  57.4305582  74.0175152
 100.2803135  57.6013470  74.7199011 100.6220531  57.9944468  73.2987499
  80.0490379  58.6793852  55.2506781  79.3230438  58.9891768  55.7921553
  79.6870232  58.6380768  54.3655396  84.1216850  62.0953465  74.0584040
  83.3916378  62.6165915  74.3924093  83.7219334  61.5047121  73.4199858
  57.7768898  34.2836261  39.7197342  57.7446890  33.3429670  39.8939514
  58.6578846  34.4336891  39.3768620  78.7219334  73.5817099  61.7547989
  79.2464972  74.3818617  61.7261171  77.8207445  73.8817358  61.6361427
  83.3564472  19.2684543  68.8176823  83.5445309  19.0715683  67.9000282
  84.0716457  19.8429954  69.0908384 105.9984779  36.6778708  52.2344971
 106.2149715  36.6745114  51.3021040 106.7100143  37.1702170  52.6438141
 113.4188843  82.9665947  63.0317783 114.2742252  83.3955288  63.0066872
 113.1854820  82.9518223  63.9599657 104.3546677  61.0323143  82.8317451
 104.3508053  61.4950275  81.9938278 105.2817535  60.9481239  83.0545902
  84.7043991  60.1433849  50.3099108  85.2649593  60.1738644  51.0852051
  85.1521397  59.5427465  49.7140884 115.4397362  25.1921296  43.7449312
 115.6419723  25.9645772  43.2170486 116.2690682  24.9659395  44.1659737
  92.8744411  45.7240534  38.6569738  93.5098267  45.4876471  39.3327236
  93.1790638  46.5693712  38.3270121  73.8877487  59.9700689  66.2152529
  72.9441738  59.8428822  66.3138580  74.2258644  59.9584103  67.1106720
  65.4358006  83.4613609  47.3592806  66.1456871  82.9586506  47.7587461
  64.8173857  83.6121941  48.0741549 107.0513248  27.9079866  32.5152588
 107.9250050  28.1060696  32.8524232 106.4609146  28.4300184  33.0585122
  67.2254467  71.0588217  61.9521284  67.8286982  70.5859566  61.3787842
  66.3834810  71.0195541  61.4984989  60.6022310  66.9283772  57.6629400
  61.0270882  66.5441179  58.4297943  59.7240543  67.1589518  57.9660463
  69.3980980  53.4997559  69.9749422  70.3507805  53.4864235  70.0668764
  69.2185688  54.2832565  69.4552040  99.5727444  67.0968008  54.0091944
  99.2446327  67.8851271  54.4417620  99.5878410  66.4336109  54.6992588
  52.6820993  65.1979828  61.5924454  53.5031462  65.6770134  61.7048788
  52.0011234  65.8378506  61.7999935 100.6312275  56.6845846  61.4655638
 101.4945316  56.4187813  61.7822599 100.2928543  57.2627354  62.1492910
  78.1617546  66.0869312  56.1344910  77.7685308  65.4899502  56.7710590
  77.4513340  66.2900686  55.5259943  76.6432142  61.4631081  44.2098665
  76.3593864  61.8546486  45.0359249  76.6989994  60.5257940  44.3957710
  73.7828493  72.2872543  65.6802416  73.2529879  72.5366592  64.9230909
  74.5354891  71.8296480  65.3055954  85.7882690  71.0597324  27.2650743
  85.4427528  70.6913090  26.4519835  86.4458656  71.6942310  26.9800973
  85.0824356  54.9952269  39.0052509  84.9715424  54.1507816  39.4421148
  85.9922028  55.2370071  39.1787553  70.7409573  59.3478346  66.1336184
  70.8062792  58.4042978  65.9862900  70.0294924  59.4426727  66.7669106
  79.0685225  89.2940426  55.5120897  78.2513666  88.7956333  55.5210114
  78.8006210  90.1963711  55.6860304  77.5554466  57.9615784  42.1131992
  77.5591469  58.2870913  43.0133438  77.1010160  57.1206903  42.1644592
   5.7437873  20.7056952  54.7165394   6.1707014  20.2895522  55.4654074
   4.9203157  20.2284694  54.6146488 106.9067669  50.6062508  49.4164228
 107.8096581  50.7917738  49.1583538 106.7259026  49.7407341  49.0498114
  76.1124516  41.8039656  24.1583657  75.5379009  42.5380421  23.9409685
  76.9973707  42.1574736  24.0679026  70.4173231  42.9372311  25.8787370
  71.3373232  43.1680727  26.0073733  69.9312973  43.6646509  26.2671542
  87.4213600  49.7168875  55.6426144  87.2677326  50.6467438  55.8099318
  86.5512466  49.3578768  55.4686832  74.8869371  60.8477259  62.1244049
  75.1068640  61.5588284  62.7262402  74.6850872  60.1055336  62.6941729
  96.9747734  18.8608527  43.4365368  97.6674843  19.3728340  43.0190945
  96.2730694  18.8321793  42.7861404  70.7929897  70.5165434  64.5057440
  70.2784443  69.8438072  64.9517298  70.6411505  71.3118887  65.0162363
  62.9303598  55.7350874  59.2698240  63.2299662  55.6010532  60.1689911
  62.1165657  55.2345371  59.2113972  84.6488476  55.2547646  45.7620955
  84.9303055  55.7098007  44.9683952  83.6958218  55.2078390  45.6860876
  76.1977673  61.3625336  65.9055185  75.4980421  60.8018684  65.5704451
  76.5313721  61.8172979  65.1321316  98.2345486  48.8184643  52.4812078
  98.7639332  48.1362915  52.8942823  97.9646015  48.4387302  51.6450500
 109.8026085  55.1090193  68.5641813 110.1923847  55.7241583  67.9429674
 109.1875648  54.5963430  68.0396652  76.2781382  62.7195787  52.9262304
  77.1880341  62.5564528  53.1746435  75.8205700  62.8398800  53.7583303
  86.2609768  51.9083834  48.5906363  86.8117237  51.9634056  49.3715858
  86.6001606  51.1525679  48.1111240  98.9197826  52.2377729  70.5315924
  98.4169769  51.8298483  69.8266029  98.7253761  53.1718826  70.4549408
  73.1175804  59.4017601  68.7745142  73.2067585  58.6177921  68.2325983
  73.8581085  59.3601799  69.3795872  91.1335564  61.1485100  64.7094965
  92.0244503  60.9114361  64.9670696  90.8447647  60.4254246  64.1527367
  74.9380112  55.6258345  60.5131626  74.1424274  55.9190702  60.9573412
  75.0578833  56.2514687  59.7987032  97.5331688  85.7490730  29.4634008
  97.8350163  86.6538525  29.3828964  97.2874641  85.6595802  30.3841901
  83.8156223  66.7653513  61.3028669  83.9388657  66.9362068  62.2365999
  83.6387825  65.8259773  61.2525654  85.4871750  79.5038748  32.4039364
  86.1485100  79.2298603  33.0393767  85.1113129  78.6848688  32.0811558
  15.2318585  64.2721558  59.3764353  15.7039487  65.1048040  59.3844318
  15.8270097  63.6635876  58.9386368  74.3025541  83.8245869  44.7354126
  74.4241905  83.8474369  45.6845808  73.6143494  84.4680882  44.5665741
  98.1034660  74.3413639  43.8881540  98.5331059  74.5698929  44.7124195
  98.7142467  73.7432957  43.4574652  73.0884409  78.8385916  56.2916756
  73.4422493  78.5335350  55.4562140  73.7225485  79.4869614  56.5978813
   4.1732261   3.5436881  22.6318550   4.7778293   3.9116728  23.2762718
   3.3989167   4.1041428  22.6825213  77.1667719  72.0879841  50.9479666
  77.7598476  71.4321423  51.3145304  77.7077055  72.8714705  50.8491182
  43.6325788  73.6686182  64.5714474  43.4168148  73.4405613  65.4756927
  43.4050560  74.5954275  64.4973660  26.4158988  12.0727730  27.4492121
  27.2021174  12.3176539  26.9612312  26.7427707  11.7870617  28.3022976
 105.4710102  65.2073479  66.9988012 105.2690411  64.5166349  66.3676453
 106.3785076  65.4462910  66.8101645  65.2436018  81.9849300  73.0360651
  64.2875671  81.9873428  72.9888773  65.4892492  81.0745811  72.8712797
 104.8011780  58.7396383  51.1506462 105.7369518  58.7524748  51.3515949
 104.6739101  57.9312897  50.6540489  82.5298882  94.8402500  60.5568790
  82.6076317  94.6253586  59.6273613  82.6947784  95.7821751  60.5995560
  94.2266655  44.8134899  47.6829290  94.4203377  44.2146397  46.9617510
  93.5771656  44.3497753  48.2114649 103.6083317  77.4014854  52.8910875
 102.7655506  77.0765972  52.5742245 103.4085941  77.7984095  53.7388992
 102.7106476  86.0294437  52.5808287 102.8726292  86.6856766  51.9030666
 103.3550262  86.2239361  53.2614040  72.2238636  81.3930798  81.6362858
  71.2768888  81.5316200  81.6197205  72.5477314  82.0283604  82.2748470
  97.0729637  96.6148186  73.6396265  97.8971672  96.7474365  74.1079664
  96.4091015  96.5798187  74.3283129  74.0014887  44.2633057  50.3036213
  74.6448565  43.6351538  50.6318474  74.0190554  44.9785471  50.9395075
  70.8061028  96.5156841  42.6400995  70.4854202  97.3318958  42.2564363
  70.0139666  96.0477734  42.9043150  88.3625698 108.9050961  68.1713629
  89.3025208 109.0699673  68.0969715  88.0508423 109.5691395  68.7862635
  94.0684891  65.3087902  73.3268023  93.3519268  64.8031616  73.7103415
  94.7063923  65.3955221  74.0351725  95.7950306  93.0628586  37.1482539
  94.9287987  92.6866436  37.3042655  95.8072472  93.8623524  37.6744580
  75.5740929  87.0355701  51.8454981  74.9965715  87.1022320  52.6059294
  75.6209755  87.9275513  51.5014124 105.8893394   3.0585471  51.4054060
 105.6336880   2.4034816  52.0548391 105.3480053   2.8618464  50.6408834
   0.6932312  76.1449766  58.9130878   0.8802795  75.5552530  58.1826973
   1.5470608  76.3083315  59.3137407  99.8435974   0.5711545  21.2591934
 100.1346016  -0.3031763  21.5182209 100.6522942   1.0449544  21.0648704
  74.5515676  70.5089081  94.7122568  74.9837013  70.4370296  95.5633306
  73.8722797  71.1703718  94.8436516 109.7434139  54.8960495  73.5798740
 110.2364445  54.3607616  74.2016602 110.2209282  54.8061895  72.7551699
  67.3243999  88.3824348  64.5680189  66.9402218  88.0683136  65.3865337
  67.1277666  87.6948738  63.9317656  89.8301601  77.1083117  56.0567570
  89.2221260  77.0979118  55.3175545  89.6045399  76.3282061  56.5634680
  87.1753883  96.8083191  45.7043362  86.7387581  95.9589005  45.7681799
  88.0694675  96.5983486  45.4345846  56.5331173 107.9794979  26.4433098
  56.0879707 107.7135944  27.2479010  57.4606657 108.0011845  26.6787100
  80.1646709  74.8176146  58.1747818  81.0494232  74.9034500  57.8196907
  80.1059628  75.5034447  58.8399267  93.4409523  81.4488220  81.5424728
  93.7192249  80.8300114  82.2176647  92.6437855  81.8448830  81.8944550
  48.3993149  39.8581839   6.0103643  48.8469553  39.7999001   5.1662940
  48.6431694  39.0529895   6.4669025  91.0492802  69.7417974  46.3640308
  90.9968948  69.4534969  45.4527807  91.4581108  69.0086842  46.8240595
  90.9187889  79.5722342  55.4910660  90.3321838  80.2096367  55.8983088
  90.4838753  78.7294579  55.6207418   7.4128920   5.0196958  17.8523672
   7.9591733   5.6286049  18.3493972   6.7053360   4.7871721  18.4536397
  93.0370235  86.9867611  43.1736898  93.5935879  86.3551044  42.7181864
  92.1437931  86.7123604  42.9661226  91.6461182   3.1297374  70.3496361
  91.2969685   2.8224778  71.1862469  91.2396145   3.9866823  70.2206802
   5.8564180  98.1194115  89.2212963   6.2708127  97.6883030  88.4738731
   6.5731126  98.2726192  89.8370171 114.9001694   9.0478283  55.2158976
 114.5971394   9.2191458  56.1075544 115.0603771   9.9161768  54.8463917
  67.0992041  99.1405010  51.8055010  66.9507599  98.2011509  51.6967678
  68.0468607  99.2447090  51.7199516 100.2464581  49.8508215  64.3223286
  99.9570370  50.6274652  64.8011684 100.2316666  49.1489410  64.9730062
  93.0381489  97.5169659  52.4486637  92.7713013  96.7943287  51.8804884
  93.9755440  97.6179981  52.2834206  79.7966957  70.4490089  72.2642136
  78.9886045  69.9810362  72.0539331  79.5246315  71.3604164  72.3716879
  79.1081285  70.3064537  51.7568684  78.7891626  69.4267750  51.9585037
  80.0393867  70.1867342  51.5707016  93.9815617  68.5847998  56.0449123
  94.1440773  68.2123041  55.1782703  93.6916637  69.4801712  55.8702469
  86.7854786  80.4317188  75.8907652  86.3420582  80.0713825  75.1228046
  86.1514091  81.0404396  76.2697887  15.0196350  40.2301455  49.3957567
  15.8236039  40.4150820  48.9103031  15.0525570  39.2883825  49.5637655
  12.0480299  10.0934219  60.5838490  11.8010151  11.0009992  60.4063129
  12.5106394   9.8122990  59.7944212 115.0406837 103.1952000  33.0978107
 115.3409958 104.0969944  32.9846907 114.1104698 103.2226467  32.8738046
 104.1735363  95.2970028  38.0624127 104.6495056  95.0245762  37.2778916
 103.3791924  94.7629261  38.0581689  14.1889834   6.5158445  39.0632367
  14.3523395   7.1194953  39.7879100  14.2916501   5.6456715  39.4485807
 106.2377357  66.0779285  50.9105825 105.9692860  66.6633224  50.2024269
 106.0643959  66.5743685  51.7104149  92.4501610  65.6250620  39.3683076
  91.8970871  66.1612892  38.8001609  92.7304935  66.2218523  40.0621986
 103.7306499  90.4104328  52.4173927 104.4878769  90.8946228  52.7466345
 103.8743305  90.3546047  51.4726877  98.3939838  26.9713235  55.4549360
  98.3666992  26.0224223  55.5777073  99.1057205  27.1116686  54.8304653
  74.4196701  52.0160675  37.8587294  74.6083021  51.8322039  38.7789726
  74.8902893  51.3357162  37.3772001  98.7277794  86.6159153  69.9373722
  98.1942368  86.4398384  70.7123327  99.0164280  87.5220490  70.0461388
  73.4246778  63.7339497   4.0417466  74.0095806  63.9535809   3.3165675
  72.6239061  63.4245872   3.6183229  72.4066782  80.4630661  88.3296013
  72.1497679  80.8168602  87.4780941  71.6896677  79.8769426  88.5716438
  90.0696659  60.8735752  32.6519990  89.8804855  60.7962036  33.5871220
  89.6736526  60.0941610  32.2622299  86.0214520  34.0821671  43.9500523
  85.8225536  34.6131706  43.1788778  85.7439804  34.6217060  44.6904135
  75.5212975  70.0858831  37.8373098  75.9450197  69.4775009  38.4427524
  75.2427673  70.8172321  38.3884740 106.2466812  63.4311008  50.9884834
 106.0615063  64.3652534  50.8920527 106.0506248  63.2415295  51.9060135
  69.0755892  64.7571135  58.3872080  68.2338858  64.5327234  57.9904509
  69.2376852  65.6591463  58.1110048  80.0347328  95.0437164  62.2905970
  80.9598541  94.9999523  62.0487881  80.0410557  95.1863861  63.2370806
  65.1743174 106.3264751  47.5964069  65.7982779 106.4373684  46.8790436
  65.5566597 105.6394577  48.1423569  75.7768440  76.9077587  71.8078709
  76.6854191  76.9232512  72.1086693  75.3528166  77.6177359  72.2899199
  81.8636608  83.2875252  92.6419926  82.2275734  83.0825329  93.5032558
  81.3978863  84.1140079  92.7693272  70.2363634  69.2797709  30.6315136
  70.9421206  68.7528706  30.2566528  69.9566174  68.7899733  31.4048672
  93.6827087  61.2726021  85.6667233  93.0932236  61.1341381  84.9254036
  94.4262600  60.6955338  85.4925156  81.7480564  66.2133741  71.1911964
  80.9126186  66.4787722  71.5756989  82.1498489  67.0327520  70.9023666
  76.2220860  54.1160583  23.5028648  75.4345512  54.0121460  22.9688001
  76.1075020  54.9616337  23.9365816  40.7101965   3.6277026  48.8056040
  40.2255917   2.8253898  48.6114836  41.4279461   3.6331478  48.1723309
  61.4077902  98.6839390  37.0831132  61.4002943  99.3833733  36.4296889
  62.2901249  98.7113667  37.4532104  75.4482889  95.2956486  72.4198198
  74.5172882  95.1259232  72.5635767  75.6569242  94.8206425  71.6154099
  82.8808594  84.6471786  46.6108704  83.0426407  84.7421360  45.6722307
  83.6472607  85.0416470  47.0271158   5.9682029  42.4523926  58.1107521
   5.6526649  43.0608797  58.7788916   5.7138640  42.8553057  57.2805691
  63.0427027  74.3635654  68.2235622  62.1114492  74.3717575  68.0023432
  63.1318092  73.6528206  68.8584900  66.0478497  76.1120224  55.1031780
  66.3697386  76.3283587  55.9782887  65.0975609  76.2073612  55.1671743
  85.1916599  88.7280560  70.4875612  84.2397594  88.7370968  70.3874636
  85.4644966  87.8927803  70.1079559 100.1184177  75.5725241  48.3264256
  99.6979046  75.2922487  49.1393471 100.5038643  76.4230013  48.5370111
  68.3585882  75.8362579  40.4128456  69.0608644  75.2126932  40.5978155
  68.8074207  76.6725111  40.2884865  87.5536633  92.7505398  19.7099066
  87.8767300  92.1388340  19.0483344  88.1475925  93.4991360  19.6543133
  97.9826450  76.1473513  58.9926434  98.8363075  76.4099836  59.3369055
  97.3708057  76.3275480  59.7063828 111.9621754   1.9446686  82.6905346
 112.8154659   1.5300587  82.5632000 111.6242886   2.0743759  81.8043900
  68.3557606  94.2774296  74.3463373  67.8293800  93.9573193  73.6137486
  68.1749582  95.2168369  74.3787098 111.4558315  67.2591591  71.0993242
 111.4478779  67.6546335  71.9709730 112.2681999  66.7535877  71.0731030
  83.3522034  87.6644325  61.3027096  82.3968124  87.6118946  61.3290310
  83.6027527  87.9171371  62.1913004   4.0335858  39.3402290  63.4311962
   3.5178667  38.9088631  64.1125107   3.7580073  40.2562380  63.4660625
  68.3264923  54.0265656  65.6243515  67.6412487  54.4833374  66.1122417
  68.2749557  53.1209230  65.9299421  57.1760654  29.6797109   5.5742866
  58.0364370  29.7874904   5.9797168  57.3601055  29.2786193   4.7248828
   6.1142176  44.3384027  68.4826040   6.3582605  43.5803413  67.9515505
   5.1646447  44.4053888  68.3823252  69.1660213  60.2401924  54.3019724
  68.3698511  59.7194672  54.4077492  69.6283770  59.8255730  53.5735846
  75.7476330  87.3560238  59.4561243  76.3533974  87.9842758  59.8493004
  75.0947094  87.1944427  60.1371670  40.3019238  26.5529108  79.5555592
  40.8440161  25.8076596  79.2967796  39.6752048  26.6534543  78.8390779
  50.3745270  81.6337109  56.0115147  51.2508678  81.7821980  56.3667774
  49.7826958  81.8927193  56.7178297 114.6431446   3.9609739  90.4837418
 114.9467754   3.1337243  90.8575058 115.3151321   4.1955966  89.8437309
  90.5647182  79.1030836  49.9715996  89.7588825  79.0431213  49.4585180
  90.2714062  79.3398809  50.8514452  81.9785404  44.1618824  39.3180609
  82.2743893  44.4915581  38.4695196  81.2195778  43.6163425  39.1116786
  99.6958923  54.4733906  74.4700146 100.0379562  55.1536131  75.0501108
  99.8517990  54.8103428  73.5877514  91.2745190  62.0058441  55.0427294
  91.8026161  61.4540195  55.6196547  91.9151592  62.4834490  54.5157528
  97.5530624  62.2127724  77.7762032  97.5447750  63.0261278  77.2716045
  96.6326809  61.9556713  77.8312445  92.9377651  94.0131474  59.6186972
  92.4043369  94.6313858  59.1192245  92.5608635  93.1561375  59.4194365
  62.6175737  73.6031771  56.8977213  62.2657394  72.8878975  57.4276447
  63.0678701  73.1665230  56.1746740  64.1265059 101.8618965  53.1455135
  64.9270391 102.0303822  52.6485348  63.4731531 101.6443634  52.4806547
  84.1363811  71.0051107  81.0164642  83.2954693  71.4253712  80.8362484
  84.5507240  71.5688086  81.6697598  96.8737698  86.0236645  31.9184303
  96.7840672  85.0783348  32.0390177  96.0364056  86.3830280  32.2115350
 106.9944668  66.5970087  77.8248739 107.8706074  66.9690752  77.7239323
 107.0517254  65.7344723  77.4137974  54.1747475  27.6004481  64.7209644
  54.8713636  27.6509714  65.3754902  53.8324785  26.7103696  64.8036814
   4.1675088  78.6049986  76.3435602   4.8139662  79.0846014  75.8255768
   4.6883157  78.0952215  76.9641399  84.7608376  89.8764420  41.9770527
  85.5364513  89.3385696  41.8178129  85.1016998  90.6747723  42.3804379
   5.2894324   2.8872788  87.0093632   4.8913425   3.0809808  87.8580284
   4.9372882   2.0300850  86.7696857 108.5159111  34.9030805  58.8946486
 108.3318329  34.3600416  58.1281900 109.1856861  35.5186343  58.5967875
  97.0984936   8.8644135  67.8482723  97.6539230   8.8456410  68.6276150
  96.2406921   9.1393179  68.1720686  93.1999493  84.0071011   6.2601769
  92.5698471  83.8776588   5.5513346  92.9533482  83.3599758   6.9209772
  94.3630981  65.5906391  82.5549889  95.1685238  65.0975418  82.7111053
  94.1812992  65.4638100  81.6238117  93.7932491  77.0375824  66.1828566
  93.7238312  77.7377510  65.5338764  94.4101620  76.4148664  65.7982969
  80.6780529  81.5636635  14.3788159  80.3025532  82.3993778  14.1016543
  81.4213276  81.8064117  14.9309385  68.0729532  67.5372410  23.1681323
  67.6102591  68.1616163  23.7269711  68.5997629  68.0829954  22.5843024
  70.5172968  74.2412710  40.9208822  71.2480640  74.8318768  40.7381248
  70.8728266  73.3658266  40.7678413  90.2043819  33.2605529  61.8993711
  89.5560455  33.7314606  61.3757944  90.2563190  32.3948407  61.4943027
  70.7636070  62.6990366  51.7691994  71.2993813  62.5089073  52.5392818
  70.5351973  61.8384171  51.4179230  39.6054840  33.8706088  19.6911967
  39.5345116  32.9488254  19.4431818  38.8750625  34.0136218  20.2930784
  75.9336948  47.6543283  42.3089504  75.0095177  47.4301577  42.1999884
  76.0107136  48.5363436  41.9451475  64.7732687  77.3984718  47.7331829
  65.1190186  76.5443707  47.9924202  63.9292860  77.4609852  48.1804180
  36.4483595  91.7286873  59.8718452  36.3963675  92.6837540  59.8347330
  36.2694192  91.4440632  58.9756298  36.3295388  10.4839694  68.3269882
  36.7550802  10.8212924  69.1152525  37.0370984  10.0736606  67.8297567
  80.0880909  59.7911596  58.4624767  81.0033512  59.5986748  58.2588005
  79.9632072  60.6948996  58.1728268  78.4278202  42.7971458  47.0694065
  77.8677845  42.1421289  47.4859905  78.6598206  43.3987284  47.7768707
  94.3189430  89.5491982  81.5981197  93.7719345  88.7798500  81.7565918
  94.0058327  90.1993465  82.2270107  68.3857727  57.5323677  41.4502859
  67.9691887  56.6782808  41.3352680  67.6824903  58.1640625  41.3000107
  45.4594374  30.4051495   3.2280394  45.8585024  29.9897504   3.9925164
  46.1985874  30.7655382   2.7381319  75.8493900  53.6266136  69.0919399
  76.4194489  52.8644371  68.9901733  75.6349754  53.6425018  70.0246811
  98.8376713  60.5398750  49.6809053  98.0084229  60.6866026  50.1359272
  99.2240620  61.4118814  49.6000481  73.6849880  43.4966469  22.7956581
  74.5552492  43.7255383  22.4693418  73.1271505  43.5071278  22.0178795
  65.2807808  92.6143551  87.7999306  65.6763792  93.3568573  87.3434067
  64.4605494  92.9594326  88.1525993  95.2064991  78.3991003  92.9842091
  94.4443035  78.9565420  92.8275299  95.7024670  78.4360933  92.1663570
  67.3191309  59.6251583  51.1003971  67.6330185  58.9639950  51.7173004
  66.5636683  60.0197601  51.5360594  67.3117924  56.4965439  62.9053831
  67.0636320  56.3058281  63.8099718  66.8557358  57.3123741  62.6988316
 112.2326851  88.2666969  76.6106510 112.5314808  88.0033302  75.7402563
 111.4720821  87.7111149  76.7810583  73.2527208  75.2927685  91.3555813
  72.4762344  75.8501863  91.3047791  73.4530401  75.0775146  90.4446602
  64.3733120  96.7571545  46.5497780  64.6095657  97.1287441  47.3996830
  63.4405422  96.9500160  46.4549971 100.8945847  63.6734915  41.4896393
 100.0261402  63.2919931  41.6180754 101.4188194  63.3235979  42.2100449
 108.4426880  62.6375580  71.7926407 108.8182449  61.7577696  71.7585754
 107.8511524  62.6747370  71.0410213  52.1147299 107.3120499  73.2313919
  51.2872648 107.5187683  72.7968788  52.7841759 107.4998665  72.5735188
  10.4737151  74.3777847  60.2357483  11.1033046  74.4936085  60.9473896
  10.5653119  75.1683331  59.7038841  89.6396160  77.6347637  46.1362696
  90.5761528  77.6523256  46.3332796  89.5810509  77.9227400  45.2253008
 107.8598404  15.9766853  13.9692569 107.7795887  15.0228560  13.9692092
 106.9652653  16.2923241  13.8414776  74.8309374  61.4057064  49.3305874
  74.4899273  60.7136679  48.7639952  75.7244778  61.1296654  49.5345926
   5.8792026   0.3126420  65.7856512   6.6801365   0.2687920  65.2633429
   5.2096088   0.6155766  65.1723719 112.0893288  80.4753780  62.9956055
 111.7137718  81.3541889  62.9418898 111.3870430  79.9366617  63.3600378
  67.3145437  90.8035564  79.1867495  67.2504616  91.7549610  79.1033316
  68.2262802  90.6052685  78.9730883  63.7223339  86.4651108  47.7553701
  62.8541327  86.1531925  47.5000954  63.9486694  85.9412098  48.5238314
  79.9559927  87.4771881  57.6352930  79.9554777  87.6703453  56.6977835
  80.2847195  88.2776070  58.0445623  90.4862499  51.7128515  53.9774847
  91.0722351  50.9855175  54.1868687  89.6315193  51.3020229  53.8475609
  95.2530956  63.2389069  34.5514631  95.5677700  62.3382711  34.4735932
  94.8538208  63.2788134  35.4204941  98.2708168  43.0182648  91.1378288
  98.6386108  43.5152912  90.4071236  97.6725006  43.6301374  91.5666199
  79.7011900  62.6742125  57.9731274  80.2022648  63.0580902  58.6927032
  80.3331947  62.5903654  57.2591496  70.1718044  91.3126373  71.8397379
  69.4925451  91.9794750  71.7389488  70.5975628  91.2730885  70.9833527
 101.9196606  56.6953945  90.8008194 101.3635731  57.4429274  90.5812836
 102.5069141  56.6051579  90.0503445 100.8583546  80.2426624  78.0486059
 101.0507965  80.8460331  77.3308754 101.3899803  80.5609798  78.7781763
  70.3834772  93.7742805  76.5790844  71.0531664  94.4125843  76.3334751
  69.7873545  93.7524891  75.8304882  91.0443497  52.2896194  43.3568001
  90.0962543  52.2256231  43.2416582  91.2240124  51.7841053  44.1495228
  74.4740725  89.6011543  63.1936169  74.4004536  89.0774345  62.3957872
  75.0473452  89.0891933  63.7641335  27.8637958   4.0479508  64.2852783
  28.0903077   4.2622155  65.1902723  27.8742695   4.8898774  63.8299942
  85.7492733  89.3913364  73.6412954  86.5682983  89.1033840  73.2381630
  85.1212978  89.4122982  72.9191923  99.0535259  51.9287062  65.5509520
  98.2069397  51.8241835  65.9852314  98.8350964  52.2365570  64.6713257
  98.1087208  81.4901352  45.1297855  97.7802086  80.5972958  45.2353859
  97.3941898  81.9588089  44.6985006  70.4405689  88.8081169  44.9196005
  71.1618662  88.4822941  45.4579306  69.8279572  88.0742836  44.8704004
  95.1812935  70.7173109  92.5754738  94.8001575  70.9462929  93.4231377
  95.0891113  69.7661448  92.5205040  74.7092962  74.5421410  43.1936789
  73.9559126  74.6806192  42.6196861  74.5112896  75.0556087  43.9768648
  96.7135906  78.9688540  50.4442167  95.9383774  79.1247749  50.9836340
  97.3558044  79.6054602  50.7581234  83.2073116  86.6215801  72.2066212
  82.5398254  87.2647476  71.9678020  82.7933407  86.0871410  72.8842926
  74.3307304  80.1724052  58.5740566  74.0902138  79.3217516  58.9411736
  74.8867035  80.5731106  59.2423105  77.9523706 105.6107235  38.7721395
  77.4253893 105.9685993  38.0576849  78.7762308 105.3550434  38.3572745
  61.4571667  28.3893466  19.7985208  62.2306728  27.8726459  20.0242090
  60.9923697  27.8557181  19.1539764 108.3536434  66.8328476   9.1024327
 107.6723480  66.1807537   9.2662674 108.0253315  67.3410845   8.3607197
  65.8575487  68.5088825  58.5086775  64.9782896  68.7692595  58.7831545
  66.4426422  69.0823460  59.0036869  68.1089735  97.4193478  45.4092073
  67.9631710  97.4028873  46.3550949  68.5288572  98.2639599  45.2462530
  18.4881043  55.9644604  86.9698429  18.4871912  55.1767159  87.5136185
  18.1511533  55.6714439  86.1231804  71.2511110  61.4305735  58.5421181
  71.4761782  60.5259800  58.7595844  71.3635445  61.4838266  57.5930405
  86.5870190  58.0654383  72.0574760  86.4448357  58.0960226  71.1113882
  86.8270969  58.9616919  72.2926903  75.4897213  62.9674530  63.7691879
  75.0821209  63.0395889  64.6322584  76.3973522  63.2370949  63.9096642
  13.6190283  29.9900413   4.1276899  13.6639833  29.1799569   3.6197770
  12.7306533  30.0003839   4.4839412  54.1419601  77.7091980  60.8060503
  54.3744516  77.9306889  59.9043179  54.8785400  78.0269766  61.3282633
  83.4356213  45.5266428  64.0692854  84.0522099  45.9919310  64.6345711
  83.6730003  44.6042013  64.1640568 100.2440357  88.8631821  94.7820759
  99.9361801  89.1905403  95.6272316 100.7679558  89.5798302  94.4240761
  73.4604597  60.2342510  34.4405484  73.1986570  60.1848412  35.3599238
  72.7447605  59.8128271  33.9647293  74.6711922  72.6537657  75.2736664
  74.7568655  72.7961302  74.3310022  75.5723953  72.5791073  75.5875015
  87.7608204  58.9969635  39.0584326  87.9262638  58.1708908  38.6040497
  87.5030613  59.6043205  38.3649564  65.8221483  79.1807365  49.7124577
  65.3723192  78.5776329  49.1207266  65.1166916  79.6376657  50.1704693
  16.9514346  42.9994297  89.7377110  16.9852543  42.6734400  90.6370544
  16.0782385  43.3826256  89.6545219  46.4564323  91.1567020  73.1443310
  46.6849470  90.5169296  72.4700165  45.5262756  91.3324547  73.0023575
  68.3851624  70.4410601  54.1012335  67.6677990  69.9726725  54.5281172
  69.1777515  70.0701237  54.4890976  81.6951180  82.0866013  42.0181322
  80.8084297  81.8517208  42.2916842  81.7161274  81.8921089  41.0811329
  68.9318848  95.0558662  35.3054285  68.3015680  94.7817421  34.6392560
  69.3388128  95.8419323  34.9410892 116.4211750  79.5823956  76.3930321
 115.4785156  79.5751381  76.5590334 116.6443634  78.6643839  76.2391710
  46.8524027  11.0276580  47.5479794  46.3466644  11.6761374  48.0378103
  46.6520071  11.2111199  46.6301489 104.9618530  89.3293190  24.8176098
 105.3536892  88.4971619  24.5526218 105.4826927  89.9937248  24.3664789
  88.0640125 105.7188606  40.6030464  87.7004337 104.8563099  40.4029560
  88.9446163 105.5373001  40.9313965  89.2345619  85.1661015  59.2786646
  89.6066093  84.2884350  59.3653584  88.8276863  85.1692581  58.4122515
  39.2190719  14.5850539   8.7342477  38.7505960  13.8409650   8.3559710
  39.3774438  14.3312180   9.6434879  12.6904261   4.1627765  90.0797558
  11.7732775   4.0908614  90.3441429  12.7666044   3.5856867  89.3198967
   2.7854791  60.9877110  71.0332537   3.4358114  60.6038523  71.6214275
   1.9429982  60.7184553  71.3992596   5.5297047  53.6957979  89.6734715
   4.8075694  53.8500404  89.0643978   5.6534988  52.7466965  89.6627522
 106.8306828  90.8384514  71.1476421 106.0399342  90.7056713  71.6704416
 106.9116211  91.7893028  71.0730267  94.5461273  69.8027325  61.2116432
  94.3665695  70.5233955  60.6077909  93.7785244  69.2351151  61.1421347
  57.7725363   9.3976319   8.0175924  58.3353710   8.6485428   7.8218478
  57.6163292   9.3400037   8.9602005   5.8831114  31.6374516  42.2962093
   4.9708456  31.9045186  42.4088097   5.9140337  31.2542129  41.4196253
 109.7048378  73.6449242  58.6172390 109.6835041  74.4824600  59.0801764
 109.2152596  73.0466986  59.1817474  16.8092275  80.6311798  14.7746897
  17.1334875  80.4300690  15.6525528  16.4967930  81.5338898  14.8357356
  74.1429043  78.6489487  44.1040230  73.5771370  79.1534567  44.6884966
  73.6284828  78.5450220  43.3035183  94.6761417  77.0903778  87.2659206
  93.9578915  77.7229357  87.2807026  95.3749275  77.5326538  86.7839336
  81.0592747  92.2804832  46.2874985  81.1476135  91.5124226  45.7231426
  81.9524193  92.4709892  46.5742683 101.0705757 109.8907089  60.4667711
 100.6108570 109.3033123  61.0666466 100.7822800 109.6172905  59.5959282
  92.0630264  72.0656443  64.8853064  92.2365665  71.1683464  65.1698589
  92.0135117  72.5692368  65.6978226  64.0864754  83.7679768  82.4104309
  63.5870218  84.4023991  81.8963432  65.0000668  84.0252018  82.2862434
  57.5414133  97.5103951  46.2877941  56.7984867  97.1965218  46.8033266
  57.8861475  96.7254829  45.8619928  11.9044280  75.3264236  47.2202921
  11.5347779  75.3509855  48.1028938  11.4915276  76.0615492  46.7671490
  65.2489662  98.0070019  18.3526540  65.3364563  97.4313927  17.5928831
  64.4976807  98.5631657  18.1465352 106.8857861  86.0854244  65.7815409
 106.1113453  86.6202259  65.9560537 107.6240826  86.6573238  65.9915066
  94.3160057  79.7268438  60.9365177  94.4669914  80.4584789  60.3380680
  93.4252548  79.4366550  60.7401085 104.6509933  96.3072872  54.3114185
 104.3812752  96.7795467  55.0991106 105.3825665  96.8179798  53.9646864
 100.4148865  89.8824883  64.9620819  99.7737503  90.3924847  64.4670248
 101.2631989  90.1823044  64.6354198   9.3608731  82.9063320  61.4640427
   9.7981298  82.9559326  62.3140907   9.9435055  83.3760071  60.8672380
  51.6672659  51.5854883   4.0854448  51.8219995  52.4240589   3.6506021
  52.3890591  51.0281086   3.7946332  82.9155636  83.2871437  69.1688299
  81.9772530  83.4069538  69.3152714  83.2466412  84.1697216  69.0024948
  79.7467470  76.0268688  62.1636963  79.9707794  76.5504074  62.9330826
  79.6151495  76.6695929  61.4666891  81.0253429  95.6454086  68.8876629
  81.2789536  94.9912071  68.2365656  80.8519936  96.4364910  68.3773994
  96.8993282 102.8792572  62.6325226  97.2686195 102.0175171  62.4395037
  97.0554352 103.3901119  61.8382359  16.3673866  89.1037750  65.9961939
  15.8532572  88.8805008  65.2202749  16.7767322  89.9414253  65.7793808
   5.1190257   8.0388385  41.2872458   5.8975315   7.5165874  41.4806700
   5.4512835   8.7924761  40.7995319  95.9755039  82.7774239  76.9871616
  96.5322495  83.5333252  77.1739435  95.1695251  82.9472637  77.4747801
  89.4942665  95.8906841  56.8986607  90.4346657  96.0221481  57.0195150
  89.2950344  95.1045513  57.4071169 100.0085926  54.8949289  91.2603760
 100.7793236  55.4510260  91.1465645  99.7341251  54.6805716  90.3687763
  29.0137911  88.6088371  59.1927576  29.3580508  88.4659863  60.0744104
  28.2426810  89.1607380  59.3232393 111.6435242  72.1753645  69.1936016
 112.3498535  72.1772099  69.8396063 112.0692253  71.9239283  68.3739710
  14.9938476  88.3600807  63.5344791  15.2651143  88.6541462  62.6648951
  14.0434110  88.4735298  63.5400009  96.4782333  66.7255831  85.6422901
  97.0055580  66.6834450  84.8445606  96.2749100  65.8121300  85.8435249
  95.2470589  47.1285772   2.8342706  95.7261276  47.9456425   2.9725632
  95.8631897  46.5661669   2.3649031  75.5885029 105.6255150  61.4581394
  74.9216843 106.1794662  61.8639946  75.6105900 104.8389339  62.0031500
  23.1249404  96.8279076  51.4437437  23.3411241  96.2682629  50.6978941
  22.5901008  97.5284863  51.0704231 100.1844597  82.0262146  87.7314186
 100.8291340  82.6042747  87.3234177 100.6504440  81.1998558  87.8588200
  63.8370848  33.5059643  10.1063657  63.6423779  32.6276803   9.7793508
  64.4476604  33.3624148  10.8294320  79.8751259  82.0295238  85.9591007
  79.3418980  82.7570343  85.6387329  79.3319225  81.2541199  85.8179951
 105.2415466 105.4603863  94.2981052 105.0780296 106.3842678  94.4876766
 106.1287880 105.4428864  93.9393234  60.6646729  80.5191898  63.1939840
  60.2792454  81.2875175  63.6151123  61.5709782  80.7719040  63.0179977
   8.9357108 104.7134686  65.6515121   9.1674829 104.8040104  64.7272205
   8.0318177 104.3986320  65.6420565 111.2428284  75.0440788  42.9848242
 111.6412830  75.7161093  42.4317932 110.4982853  74.7248125  42.4749756
  25.6682801  94.1409779  57.6539993  26.4812183  93.9203739  57.1993589
  25.9016013  94.8787117  58.2175016  38.1934834   8.3097237  70.2868509
  38.6005688   7.6341617  70.8291864  38.9219570   8.7009895  69.8047018
 108.0269909  90.7590389  16.8297601 108.8371277  90.5200863  16.3794088
 107.6180172  89.9214649  17.0475376 112.8523064  99.6124077  72.9916954
 112.9974651  99.3469524  72.0835686 112.4582958  98.8445282  73.4056330
  79.3518829  62.4201918  67.1254826  78.7418556  61.9171143  67.6649380
  79.3784571  63.2843018  67.5363827   0.5959117 101.8215466  63.5799026
   0.3265366 100.9071350  63.6665821   0.3588473 102.0570755  62.6829338
 112.5816154  87.0984268  74.1902971 111.9146919  87.0766926  73.5040236
 113.2129669  86.4268970  73.9320850  20.8573985  11.0068583  60.6010818
  20.7192492  10.2019823  60.1017618  20.0556254  11.1115074  61.1133718
  71.7089987 105.7976246  64.8665619  72.2336912 105.0026321  64.9609995
  71.2095594 105.8531570  65.6812429  91.3745022  91.7344189  56.8074465
  91.6080666  91.2994957  57.6275253  91.2372494  91.0183716  56.1872292
  98.8934994  85.0136852  50.9250641  98.9926624  85.3767109  51.8051863
  99.2812061  84.1403198  50.9811401  95.7939339  86.3208199  36.5256095
  96.4475727  86.5837765  35.8776498  95.4329872  85.5029869  36.1834311
 100.2546120  94.7727013  60.4498148 100.1250458  94.4356155  61.3362789
  99.9135208  95.6665134  60.4812145  58.8270092  84.9612904  54.1282606
  58.2547951  85.4276085  54.7376442  58.4146261  84.1042042  54.0206861
  97.7238655  59.5699978  61.6947842  96.9819260  59.3347263  62.2519255
  97.6873302  60.5248022  61.6378307  86.0657597  76.8584156  58.7689257
  85.4715061  76.2291050  58.3601856  85.5639839  77.2230291  59.4979715
 114.0231800  72.6407957  55.4090309 113.2990456  72.5013733  56.0192919
 113.6274910  73.1012821  54.6690226 100.0781441  62.8260994  17.0706868
  99.3977833  62.5611973  17.6896834 100.3039932  62.0213795  16.6041625
   8.6541426  57.1476126  72.2453022   8.1291682  57.5871277  71.5763807
   8.0362689  56.9655991  72.9533529  18.4162748 103.7233353  47.8498936
  18.1143236 104.5535851  47.4814606  19.3683732 103.7514877  47.7552938
  13.1639171  99.4245529  65.5878925  13.3796334  98.7108803  66.1882019
  14.0012133  99.6654320  65.1914787   9.7198755   4.7913033  58.4195805
  10.0634336   5.0481302  59.2752886   8.8229156   5.1254129  58.4115028
   8.5530609  60.3882790  42.5982904   8.5320979  61.2711954  42.9674101
   9.0365410  60.4831839  41.7776394  97.8364086  79.1119719  40.9670591
  97.2482204  79.8671246  40.9710312  98.6573410  79.4458961  41.3287020
 109.4123077  88.5961437  63.9260674 110.1150894  88.0029011  64.1913795
 109.0206432  88.8869381  64.7496414  92.6793957  95.3098488  50.3814411
  92.6836109  94.4644356  50.8303118  93.5373592  95.3616428  49.9601841
 103.9536095  92.8212833  18.7383151 104.4699860  92.0160580  18.7730694
 103.5303020  92.7974987  17.8801346 104.1630936 106.1721802  56.4632273
 103.9727783 106.8773270  55.8445311 103.9837265 105.3693008  55.9738874
  42.8980923  24.9548602   7.2818738  42.5430727  24.8356867   6.4009696
  42.5574207  25.8035278   7.5646126  80.0931931 102.2449684  65.5232191
  80.7312965 102.4908924  66.1929798  80.5248356 102.4508953  64.6940565
   0.5823289  96.3477993  55.3237295  -0.2623596  96.3124847  55.7726002
   1.1302148  95.7198429  55.7946110 104.8743820  76.4454365  48.2121897
 105.2840328  76.1133575  49.0110254 105.6055260  76.5971375  47.6133156
  99.9609661  72.7102852  40.6184149 100.5727863  72.0428514  40.3078508
 100.2767277  73.5250473  40.2276564  83.2352734  80.1376057  86.8602943
  83.5427189  79.3344784  87.2806454  82.6208401  80.5167770  87.4887276
 109.0890121  97.3719406  44.1495657 108.4621620  98.0879974  44.0468550
 108.5967350  96.5865517  43.9106703  85.2905655  44.4312620  24.8221898
  85.4348469  43.5283899  25.1054525  84.9001884  44.8614740  25.5829477
 104.4439983  81.9904995  60.7618093 103.5708046  81.8816090  61.1385155
 105.0420761  81.7665863  61.4748240  63.6589003 104.5687294  95.0653076
  63.9154911 104.2511749  94.1995335  62.7509451 104.2828369  95.1658821
 115.2790544   0.5126752  36.8179846 114.6988580   0.9330357  37.4527240
 114.7567317   0.4543484  36.0179782  98.5911274   6.4876980  51.4229298
  98.9632607   5.6420165  51.1727762  97.9622746   6.2778407  52.1133900
  61.6852045  87.6448154  62.4609566  62.4731874  88.1866646  62.5023460
  61.0959911  88.0289841  63.1101656  82.0460701  63.4169149  59.5137548
  82.4106884  63.1025887  60.3410912  82.4077988  62.8264523  58.8528919
  96.1051846  89.5228481  37.1080899  95.2436066  89.7247601  37.4729896
  95.9400177  88.8215733  36.4778805  90.7127190  71.1717033  86.4844513
  91.5955257  70.9538651  86.1853790  90.7200718  70.9694815  87.4200153
 113.4947014   4.8792189  82.8155422 113.8888741   4.0155420  82.9377079
 113.0344582   5.0508225  83.6370945  93.0149651  97.2724056  64.2757082
  92.0900440  97.0520020  64.3860340  93.0240440  97.9231167  63.5737610
   3.2109094  77.3979330  27.4455523   3.3057186  77.6297331  28.3694100
   2.3613730  76.9598532  27.3944950  81.3240433  62.9791975  55.5928946
  81.1528587  63.8755131  55.3038502  82.1367645  63.0404997  56.0948467
  20.1851773  90.3710556  14.5419812  19.7197366  90.7510757  15.2870893
  19.7314608  90.7180691  13.7738943   2.1333458  67.3736334  78.8695860
   2.7201816  67.4098969  79.6249294   2.7170482  67.3987913  78.1113720
 101.6057014  77.9987669  71.9895172 102.4291801  77.8777885  72.4622488
 101.5632534  78.9397573  71.8193102   4.8675317  60.3132010  60.3150558
   3.9547527  60.1661777  60.5629444   5.2491766  59.4362736  60.2753782
  74.4541168  24.8555708   7.2599697  74.1694689  25.2931023   6.4576149
  74.6389103  23.9561176   6.9896656  58.7574291 100.4493332  45.7438326
  59.6876717 100.6743813  45.7592201  58.7422609  99.4923592  45.7576704
  54.7221088  13.0954182  30.0900126  55.6014919  12.7709305  29.8960519
  54.6328068  13.8817728  29.5515847  22.1494794   9.1606164  47.6929998
  22.7288127   9.8727053  47.4218225  21.7816353   8.8263965  46.8749380
   2.9607093  75.9859467  60.3149796   3.1684706  75.8886337  61.2442780
   3.5609835  75.3867197  59.8713255  60.4404688  67.8268957  91.4946461
  60.8730030  68.6147642  91.8238926  60.3303337  67.2733068  92.2677231
  67.3387527  73.6085415  43.6878300  67.7594042  73.3018160  44.4910812
  67.8771591  74.3466616  43.4023094  70.3897476  86.4964962  55.8018684
  70.7140589  87.2058296  55.2469730  70.9010649  85.7320213  55.5366325
 101.5371418  95.5144501  16.1965930 101.2719917  96.3718224  16.5295255
 102.4393368  95.6402302  15.9025669  69.1002989  85.6262779  63.3387089
  69.0628767  86.0770130  62.4950981  69.8524475  86.0153198  63.7849665
  51.3741922   4.9471632  13.2021320  52.0561314   5.4042107  13.6943746
  51.5633631   4.0185213  13.3365607  87.6876736  71.1102486  34.4061184
  87.7770424  70.1680851  34.5495367  88.4626007  71.4901161  34.8201442
 116.0968725  95.0079536  52.8690052 116.3015869  95.2587318  53.7698030
 116.7312812  95.4879570  52.3366928  87.7719975  88.1716347  36.6667676
  87.9636192  88.9029980  36.0797262  86.8623829  87.9430199  36.4755750
  99.8844814  66.4798117  68.9043522 100.5996799  66.1472178  69.4466591
  99.2825603  66.8887281  69.5262146  22.4941182  34.2881179  61.4863777
  22.8086352  35.1563740  61.2345076  22.3665833  33.8293815  60.6559992
  35.3329015  35.3369188  51.0204983  36.0198712  36.0021710  51.0622978
  34.6065140  35.7705379  50.5726528  97.0845890  89.2962551  57.0050669
  97.8628635  89.8460960  57.0956278  97.3941231  88.5172653  56.5429068
 104.7500610  64.5089293  62.4927998 104.6434689  65.4582405  62.5534439
 104.2640781  64.2631483  61.7056274  91.8171024 101.2388039  69.4742775
  92.5725269 100.6659222  69.3424559  91.5300560 101.0546780  70.3686666
  95.9279919  84.8144054  25.8958459  95.0439262  84.9842834  26.2211251
  95.8113194  84.6491146  24.9602699  10.8567345  81.3783932  70.7067537
  10.6529605  80.8281803  71.4630461  11.2017858  80.7695770  70.0536728
 110.2616405  70.3312826  27.0261359 110.9874344  70.9528732  26.9706273
 110.6087685  69.5233583  26.6479969  12.7280688  22.2235560  55.3215981
  11.8312252  21.9002724  55.2356243  12.9583263  22.5274444  54.4436121
 106.5606308 100.6787777  21.9877696 107.4155998 100.6877422  22.4180913
 106.6603279 100.0534534  21.2699509 103.7861443  77.0643663  61.3562250
 103.5409927  77.8372145  61.8649864 104.6608067  76.8373489  61.6719151
  97.0707417  53.9521027  48.9260101  97.1922684  54.8325109  48.5705662
  96.8291855  53.4191942  48.1684542  41.2290764  21.6719246  31.2513280
  41.6380930  20.8880305  31.6180015  40.3134584  21.6143727  31.5244007
  89.5232010  88.8439178  57.7420092  88.7589550  89.1442394  57.2501135
  90.2243328  88.7998486  57.0918512  95.2310276  74.9341202  85.3174019
  94.3280029  74.6170855  85.3011417  95.2666569  75.5168438  86.0759544
  94.7311401  99.5512867  81.4346123  95.0755596  98.7006187  81.7065716
  95.5069447 100.0585461  81.1957741 109.7405052  61.8592072  41.4503813
 110.0877953  62.4202538  40.7569456 110.5131626  61.4386320  41.8276787
  90.7700157  92.4559879  72.5050735  91.6138268  92.0107841  72.5826836
  90.3330803  92.0157146  71.7760468   1.8662010  91.5510273  90.9866142
   2.4574980  91.4772415  91.7357159   1.0606381  91.9163895  91.3524151
  70.4772902  75.5472851  60.6307077  70.5472898  75.2930641  59.7105455
  69.9220276  74.8738670  61.0236740   5.8651733  52.3350954  70.7081366
   6.8190295  52.4144983  70.7173634   5.6647557  51.7687988  71.4533710
 115.4306126  78.3143950  58.0309868 115.6834030  79.1537571  57.6465416
 116.1638832  77.7309561  57.8356552  66.2980461  84.6920490  31.5047646
  65.5103159  84.7385979  30.9629679  66.9718122  85.1316357  30.9860706
  92.2171974 104.4826603  77.6715899  92.7857876 105.1968765  77.9593945
  92.8194141 103.7757301  77.4395990   3.6539811  93.3119297  68.8072729
   2.8634319  92.9446030  69.2026615   4.3356109  92.6650333  68.9893150
  81.5259552  68.5496283  64.8690701  82.1168804  68.7837887  64.1533852
  80.6708717  68.8775969  64.5906830  84.2963791  92.0722961  36.8387151
  83.4622955  92.0156670  36.3725400  84.0833855  91.8328762  37.7406812
  70.7184172  99.0991592  63.9749336  70.4246092  99.9614143  64.2689228
  70.6282663  99.1273212  63.0224037  93.2508278  79.5158482  45.2638340
  92.7813244  78.8290024  45.7371616  93.1778240  79.2649508  44.3429899
 112.5388908  71.0269117  71.7084885 113.3217430  70.4764032  71.6905451
 112.5892448  71.4876652  72.5459862  97.9818439  65.1474380  87.9293346
  98.6595249  64.6369123  88.3724499  97.2252464  65.0993872  88.5136986
 103.2273102  98.9988613  68.0862427 103.2773304  99.9539471  68.1254911
 103.7356472  98.7011909  68.8407135 102.1221161  67.1492386  34.5354748
 101.8251133  67.2602129  33.6323118 102.5799370  67.9648447  34.7389793
  77.6924133  98.8317013  27.0239806  78.6143970  98.6066723  26.8993235
  77.3444271  98.9164734  26.1363149  67.7012253 104.6623707  76.2543058
  66.9412422 105.1627827  76.5513849  67.8578043 104.9717045  75.3621006
  93.9479256  99.5670509  72.2134018  94.7090626  99.7422409  71.6600418
  94.3191242  99.2712212  73.0446291  85.3909016  83.2493496  83.7145138
  85.2269363  83.0072308  82.8030682  85.1226330  82.4810123  84.2184162
  12.6381803  78.1152821  61.6059732  11.9079971  78.7318230  61.6602468
  13.4091961  78.6678553  61.4777756 111.2200069  27.5093603  71.5876865
 111.3355732  28.3632755  71.1709070 112.1038437  27.1451092  71.6365433
  66.9050074  80.8717823  52.1579218  66.9928885  80.3068447  51.3902283
  66.1962843  80.4769993  52.6659441  53.0320787  81.5813065  61.2225628
  53.0367899  81.7438316  62.1658516  52.7037764  80.6864071  61.1353445
  34.3807514   0.2582158  43.4865713  33.7416370   0.0700558  42.7992916
  35.1669223  -0.2180396  43.2194614  96.4552975  72.7120972  75.6778431
  96.0440922  73.0221605  76.4846897  96.8956566  73.4837246  75.3215933
  83.4893513 105.0813103  35.6687546  83.0387402 104.2497063  35.5217481
  83.1207275 105.6727314  35.0125766  79.0206861  94.9598217  48.9307642
  79.2866993  95.0349236  48.0143404  78.9573288  95.8646011  49.2366886
  95.7245064  69.1028595  41.0447645  96.5643024  69.3055105  40.6325626
  95.9571075  68.7732267  41.9127893  19.6513951  12.0509863  65.6022120
  18.7124348  11.9263017  65.4642344  20.0661588  11.5088248  64.9311924
 111.9625664  85.5499840  57.8916550 112.2979069  85.8296204  58.7434673
 112.5430775  85.9691143  57.2563839 107.2773552 101.2482929  35.9355736
 107.9669476 101.4205170  36.5766978 106.4641285 101.4494038  36.3986588
  90.7980347  90.7695675  90.0371265  90.7435036  91.1840153  90.8982277
  91.2575340  89.9451828  90.1967621  80.5607033  48.5266590  38.1125808
  80.4853249  49.4777250  38.1901717  81.4862442  48.3745337  37.9216385
  80.3063965  73.8104248  76.1027050  81.1354446  73.3358335  76.0421228
  79.8547268  73.4096766  76.8454170  95.0638866  91.6237831  69.7720671
  94.1587067  91.8535233  69.5620728  95.0857162  91.5858650  70.7282639
  97.9842377  98.1766605  42.2986460  98.7183571  97.5639439  42.2553110
  98.1198883  98.7658501  41.5565634 106.1261749 106.9941044  50.3375292
 105.5848885 106.2962151  49.9684906 105.6522465 107.7995968  50.1306391
  87.2306347  76.0415268  33.9312482  87.5093937  76.0373688  34.8469496
  87.5763130  75.2244377  33.5719419 102.7260685  74.7030878  47.7619791
 101.8417168  75.0693226  47.7589321 103.2995415  75.4627037  47.8636980
  94.9912453 105.1632023  56.4933014  94.7874546 106.0974979  56.4510393
  95.2050114 105.0060463  57.4129963  69.2488432  77.8953123  35.2099156
  68.4409904  77.9394770  34.6983910  69.5677519  77.0025873  35.0773740
  80.7475853  94.7078514  78.3722782  80.6359005  94.3929863  79.2692852
  80.5317688  93.9529037  77.8248262 104.0239239  73.8781214  33.9064550
 103.9374828  73.5494852  33.0116034 104.5828247  73.2361984  34.3444109
 106.4322281  69.0447521  82.2815704 105.7853985  69.3871641  81.6646481
 106.0209274  68.2631779  82.6506329  59.4913054  84.6613216  50.0859213
  59.2498541  83.7661457  50.3238249  59.9838829  84.9850082  50.8401251
  70.9991026  77.2784805  43.2410002  70.5569220  76.4578390  43.4583712
  70.5811167  77.5682878  42.4301195  13.5421491  10.5500519  24.4072556
  13.1463671  10.0375104  25.1121593  12.8369105  11.1198699  24.1003680
   1.5284167  89.0550327  29.8710442   2.1374473  88.9928436  30.6068754
   1.5860228  89.9678993  29.5889425  15.7487023  79.1932678  48.9221716
  15.5082285  79.0629196  48.0048895  16.6996515  79.0852356  48.9381599
 100.3617382  71.7714119  71.5760803 100.0827980  72.6860523  71.6192579
 100.8033085  71.6160059  72.4110079  89.9201298  96.2519646  52.7795076
  90.1093864  97.1886063  52.8352213  89.1760063  96.1931896  52.1802998
   1.8559060  41.2792778  77.2065783   1.4963329  42.1316004  76.9606352
   1.2284381  40.9278584  77.8382587  14.8275781  95.0567341  49.0091324
  15.5565619  95.1418400  49.6235991  14.0666842  95.3755188  49.4945717
  89.3916988  97.1751881  59.3176651  89.5254135  96.8036556  58.4457064
  88.5686588  97.6589489  59.2482519  84.2762661  57.7270031  48.8293457
  83.8699722  57.1299601  49.4575977  85.0548840  57.2608232  48.5249424
 102.3816681  81.8204975  76.0360479 102.7861404  82.6771259  76.1732340
 102.8759480  81.4353657  75.3124523  86.7446136  89.5440102  58.1217861
  86.4913177  89.3473625  57.2198963  85.9267235  89.7953224  58.5508871
   9.9447834  31.7587161  92.8690243   9.8698968  31.1236906  92.1567345
   9.1503304  32.2884369  92.8021526  61.1718893  71.5251446  57.9486752
  61.8989563  71.0599470  57.5349140  60.8824730  70.9417152  58.6501598
  67.4367714  82.4925137  48.9985085  67.0969248  83.0437565  49.7033978
  68.3236885  82.8185749  48.8458872  89.3604469  97.6809883  42.3573303
  88.8056183  97.0084572  42.7524281  89.4343853  98.3567619  43.0312014
  72.7840614  88.4145546  23.7725759  72.3153591  87.7167320  23.3147645
  73.5674477  87.9886150  24.1205788 105.0016308  92.1927071  60.6299734
 105.1482868  91.3571930  61.0734224 105.3031063  92.8518486  61.2551737
 110.1653862  65.9729052  77.9650164 110.5208206  65.5743742  77.1706152
 110.6754875  65.5853796  78.6762524 105.3602123  55.9744883  27.5176096
 105.6988335  56.8625450  27.6313043 104.4522190  56.0242891  27.8164530
 104.9274445  79.0284157  79.1797447 104.5668221  79.6711397  79.7905588
 104.4280529  78.2297468  79.3499660  87.7975368  94.1083241  37.7075076
  87.7085876  94.9480343  38.1583047  88.0712223  93.4971237  38.3914375
  46.9357300  94.9804592  84.4545364  46.5693188  95.6857109  83.9210510
  46.5720606  95.1269817  85.3277588  99.8530769 101.9487953  62.3810244
 100.7669163 101.6701698  62.4401474  99.3638134 101.1376953  62.2432804
  39.8135376  -0.3798041  59.3837833  40.4664469   0.3194261  59.3518925
  38.9903879   0.0696697  59.5751715  16.5626442 103.4810543  66.8604851
  15.7332087 103.9128590  66.6560078  16.5761554 102.7085209  66.2954664
 113.4240913  88.0415726  57.7747297 114.3298054  88.0775642  58.0823278
 113.4933853  87.7835846  56.8555593  88.7681198 106.4831352  53.3259487
  89.5877266 106.4102173  53.8149786  88.5669327 107.4189186  53.3338737
   4.5636955  74.1922379  84.3901920   5.3740644  74.3543005  83.9072132
   4.6449444  73.2896471  84.6983433  63.2094002  25.2368283   8.2285815
  63.4916639  25.1192307   7.3215371  63.9213181  24.8671222   8.7508118
 110.2020741  90.1889515  59.4875097 109.6228027  89.7565842  58.8600302
 110.7315254  90.7825851  58.9550495 106.2695503  94.3008614  42.4502039
 105.9046459  94.0985680  41.5887213 106.2186146  95.2545834  42.5139475
  76.6086006  90.9833336  59.6435547  77.2524738  90.3994179  60.0444365
  76.9384193  91.8635941  59.8240948 109.5006561  75.9988451  75.3893137
 109.8694611  75.2236509  74.9658918 108.6002064  76.0419798  75.0674820
  98.3325195  52.0836306  27.9213476  98.6857796  52.6159906  27.2085857
  97.6510620  52.6297998  28.3131886  89.9379158 109.2478943  58.0910921
  89.0568733 109.6060371  57.9827595  90.0472450 108.6524487  57.3496628
  38.0553865  90.9742165  30.0840163  37.4753952  91.7169762  29.9162388
  38.8697243  91.3712215  30.3929925  21.3340473  96.8433475  66.9519758
  20.9846258  95.9782410  67.1657991  21.1562514  97.3723793  67.7296352
  46.1824083  68.0001354  83.1479931  46.7971277  68.7106514  82.9649067
  46.0882378  68.0043936  84.1005421   7.0666510  84.6196842  55.5563736
   6.2996197  85.0347424  55.9508657   7.7751124  85.2492714  55.6903172
  11.6485858  55.8611345  38.2153320  11.0538590  56.5731382  38.4510875
  11.9889569  55.5461836  39.0527010  97.6432133  78.6452723  55.4314947
  96.7200756  78.7018299  55.6781721  98.0994320  79.1704559  56.0889721
  97.6844311  89.9291039  71.8421030  97.2810841  90.1051712  72.6921272
  98.6146355  89.8157024  72.0372772  15.9065115  82.3756981  55.1940393
  15.9472585  82.2638416  54.2442703  15.1098526  82.8855133  55.3412008
  72.5726509  82.0526218  42.6834154  73.4322500  82.0846462  43.1032944
  72.4634933  82.9204845  42.2946692  43.9593410  27.0277095  73.3938694
  44.3350077  26.1670208  73.5791349  44.6534634  27.4975419  72.9316092
 104.8044300  86.4509106  22.5455308 104.2402649  85.7084179  22.7615237
 105.5239296  86.3959408  23.1744432 106.5081882  84.4222450  28.0750370
 106.3915634  83.5162163  28.3609486 107.1031284  84.8026276  28.7212491
  71.5175867   1.1232501  10.3134465  72.2087479   1.7138514  10.6129813
  71.9760466   0.4605591   9.7968352  19.0454113 105.2317429  36.3201165
  18.4649980 105.3654575  35.5708027  19.4784927 106.0766983  36.4414024
 102.9566574  13.2580578  32.1200657 102.0543194  13.2914543  31.8024111
 102.8744030  13.2402825  33.0735612  72.5447559  80.4355145  75.3518724
  71.7808437  80.9618378  75.5877876  72.3975372  79.5933199  75.7823038
  28.1615472   5.5434781  66.5469646  29.0782285   5.8143878  66.4966154
  27.7970862   6.0635561  67.2631502  99.6015358  86.6315365  65.4368639
  99.1781139  87.1418381  66.1271811 100.5260658  86.8729401  65.4933882
  88.8126278 108.0835342  39.1228819  88.3323193 107.4901867  39.7003579
  88.5958672 107.7855682  38.2394409 104.4630623 105.2834797  48.8109541
 103.8080883 105.5753231  48.1768560 105.0889206 104.7772121  48.2930470
  89.2412758 104.2511272  27.2566867  90.0640488 104.0935326  26.7936134
  88.7059021 103.4818172  27.0623469  76.7786694  97.5988674  65.4473925
  76.7921925  97.0033264  64.6981382  77.6971292  97.8298759  65.5863333
  65.8383894  10.2699018  78.5901690  65.4694653  10.1229548  79.4611073
  66.7658663  10.0522196  78.6830807  19.9179828  64.7535706  49.8461628
  19.4792354  65.5883741  49.6823359  20.0576067  64.7381353  50.7929993
  98.7820435 100.9595966  14.6445262  98.7177658 100.4254341  15.4362154
  99.6170998 100.7057667  14.2514837 106.3926601 109.0106297  93.2774544
 106.6310501 109.9376011  93.2664585 107.1731663 108.5665131  93.6088181
  83.4945679  77.1283340  67.3348856  83.0957890  77.0943117  66.4653778
  84.0428257  76.3448715  67.3777628  52.4798822  78.2912350  84.7059536
  51.8643427  78.3601236  83.9761639  52.6375961  77.3516512  84.7983837
  40.9301567  12.8930914  59.1229773  41.1856413  13.8037741  59.2700100
  41.5534973  12.5716507  58.4715509  14.0775239  66.5854549  92.5651073
  14.0601349  65.6407452  92.4119568  15.0018024  66.7875767  92.7103233
  97.8484917  91.6321182  44.0374994  98.0301666  92.3073578  44.6911621
  96.8962860  91.5354729  44.0512705 113.7625599  72.9137325  64.6494150
 114.4770432  72.4330854  65.0674200 113.3306694  73.3743620  65.3688049
 116.4665508  98.9446831  62.9480982 115.7798290  98.3494854  62.6474571
 116.3713264  98.9586830  63.9004517  35.1919150  11.6628408  46.7889214
  35.0773382  12.3272955  47.4683380  35.3093529  12.1635365  45.9816170
   9.7046578  15.7047522  34.0644860   9.1657162  16.4863527  34.1864491
  10.3839910  15.7752037  34.7351384   3.6500797  93.6287689  89.9912548
   4.5146269  93.2195854  90.0280571   3.0704445  93.0035114  90.4263496
  25.4793286  36.4094687  51.8977499  25.1905227  37.3096442  51.7477322
  24.8649025  35.8739996  51.3957691 102.3312664 106.8480682   3.8494024
 101.8508911 107.4472523   3.2780468 101.6817474 106.1963749   4.1133165
  27.3829031  16.4148200  77.4883223  28.0229831  17.1097469  77.3346853
  26.5351057  16.8318880  77.3349380  90.1196480  88.5642529  69.1331625
  90.9459782  88.9752293  68.8791466  90.3342724  87.6368237  69.2333746
  86.8874741  96.6896820  65.7834435  87.4701023  95.9456444  65.9357262
  87.4457264  97.4586010  65.8989716  80.4213810 105.2124023  74.0685511
  81.2852383 105.0686741  73.6821222  79.9705267 105.7795525  73.4430122
  97.9281902 106.1717224  77.6386642  97.5655270 106.5807343  76.8529034
  98.8607121 106.0710239  77.4476194  66.0152245  99.7216129  54.3093157
  66.4711761  99.6500587  53.4707355  65.1518917 100.0680351  54.0837383
 116.2560645  92.8511238  40.6633997 116.3294250  92.4792290  39.7844553
 115.6414735  93.5783672  40.5652332  77.7051067  46.2030029   3.2944593
  77.1040869  46.7265224   3.8244900  77.1967506  45.9671068   2.5184697
  46.4813471  27.2889352   1.0313250  46.2508965  26.4068747   1.3230307
  47.2531414  27.5183868   1.5489355  44.5838118  88.8629723   5.1130909
  43.7711811  89.3653011   5.1725280  44.6744823  88.4515572   5.9725952
  33.1028509  85.2942848  65.4410458  32.7387619  85.8688354  64.7675705
  34.0493727  85.4228783  65.3794622 100.3926373  89.9938965  54.0663338
 101.2296581  90.4582119  54.0601397 100.2331448  89.7753906  53.1481552
   5.3036797  86.5310097  62.5100899   5.7988948  86.2382698  63.2751369
   4.4571832  86.0913849  62.5901413   2.5812331  94.3586159  41.3421345
   2.6913851  94.9507141  40.5981445   1.9349959  93.7181091  41.0448694
 111.5943813  85.5824471  48.9164972 110.7131767  85.7969666  48.6104202
 111.6736412  86.0363674  49.7554874  99.0663719  65.5729055  64.1779232
  99.0261364  66.3079786  64.7897053  99.3601799  64.8338223  64.7105265
  29.9304938   8.2285476  81.6762543  29.7192049   7.5356913  82.3019886
  29.2791343   8.9095873  81.8440247 110.5564785 108.4514332  50.2487993
 109.9309635 109.1292763  50.5047083 110.0424576 107.6440716  50.2350140
  98.0419254  92.5246811  25.4054976  98.8221550  91.9752502  25.4804039
  98.2915497  93.3524418  25.8162665  89.4992447  62.9478836  85.7984352
  89.3601131  62.9861355  84.8521709  90.1195812  62.2291899  85.9204578
  29.6933222  27.4158311  52.1860027  29.5044971  28.1231570  51.5693474
  29.0934014  27.5681210  52.9161644  86.8702316  78.0278635  73.7305260
  87.7481461  77.8252077  73.4073734  86.2911129  77.8193235  72.9974699
  47.7960300  18.2620823  76.6844702  48.0861807  17.4101293  77.0103836
  48.6015940  18.7010431  76.4113188  80.2601624  83.6014366  47.5095320
  79.9723387  82.8998756  46.9254017  81.2120819  83.6198330  47.4108696
  65.8989954  93.1138992  27.3809505  66.1803102  94.0216446  27.2665620
  64.9486351  93.1685066  27.4812675 107.2393990  96.7037106  48.5744238
 106.7197227  97.1977806  49.2084980 106.7951965  95.8584690  48.5074043
 107.1975899  96.3009262  51.5430975 106.7476177  97.1079540  51.2931585
 106.6629028  95.6020546  51.1663818  98.5827351  88.6226273  67.0673609
  99.0436935  88.9823341  67.8252268  98.9581871  89.0840816  66.3174725
  27.7070904   9.4555891  21.9327068  28.3121800  10.0748754  21.5245628
  27.3007727   9.9510449  22.6438069  90.5194664 105.4941750  46.5176153
  90.9451580 105.2680588  47.3445892  89.6008396 105.2595043  46.6490889
 110.9536171  75.0663948  56.3349771 110.4533005  75.7489014  55.8876514
 110.2904606  74.5248795  56.7630053   2.4389404  96.0515213  90.9844494
   2.8245106  95.3109455  90.5163479   1.5387961  96.0962486  90.6620026
   9.4509840  90.9265804  52.9137421  10.1666510  91.0898685  53.5280609
   8.6835182  91.3184643  53.3304548   1.2768276  70.7419729  23.8636804
   1.3184378  71.6933537  23.7668729   1.4503033  70.4040051  22.9850912
  17.3568928  89.7630310  42.7939939  16.8435824  89.3968964  42.0737982
  18.2218695  89.9207783  42.4156284  21.9106340   2.2926833  54.1037035
  21.1839199   1.6719168  54.0510845  21.5116954   3.1441930  53.9247847
  20.0055504  80.3007793  53.6817884  20.4355669  81.0750961  54.0447712
  19.3332541  80.6518173  53.0978155  95.2962208 103.8480759  44.3215036
  94.9886513 103.4313869  43.5165119  94.5805454 103.7226582  44.9446583
 102.2996426  59.5169020  52.4408436 103.0807400  59.2654133  51.9480133
 102.2941685  60.4735613  52.4091816  12.8510129 100.5504131  73.9441586
  13.0362749 101.4077187  73.5608339  12.6540470 100.7360744  74.8622894
  43.9565516  14.3823802  85.0698280  44.6097755  14.9005985  85.5399132
  43.1236887  14.8109972  85.2669525  99.1743851  97.8453255  50.8606339
  99.4505310  96.9288921  50.8721018  98.3345985  97.8366852  50.4013729
 115.0324821 108.1253624  77.5598192 114.3019199 107.8567600  77.0027161
 114.7008991 108.0290890  78.4525776  75.4761028  83.2139397  82.8723812
  75.7374811  82.2941399  82.9157829  75.3717089  83.4766769  83.7868786
  94.8417187 102.4241257  70.0312185  93.9726353 102.8118801  69.9284220
  94.7334290 101.5155983  69.7500086  15.6112778 102.2597599  20.6500292
  16.1400175 101.4763355  20.4986906  15.0033116 102.2848129  19.9111223
  82.9197502  77.1643305  42.9514694  82.7303505  76.7019892  42.1350145
  83.0669785  76.4685488  43.5921240   5.9774989  67.2023487  70.2193117
   5.4467279  66.4727354  69.8996592   6.3513887  66.8845224  71.0411549
 109.1120434  92.8726196  84.8540020 109.9732780  92.5215912  85.0804520
 108.4923553  92.2424412  85.2215481  40.9374714  25.0209832  56.3184118
  41.1883545  24.3285012  56.9297647  40.6228161  24.5544505  55.5440903
  92.9114246  96.8124008  71.8750048  92.1534920  97.1746540  72.3338556
  93.5783482  97.4961948  71.9371510   3.0667847  74.8745203  63.4849262
   2.5958344  75.7048988  63.4148502   3.9183843  75.1123571  63.8515902
  79.1141796  48.7415648   2.7351177  78.9860487  47.7931499   2.7530882
  78.5516119  49.0458059   2.0229462   5.3641462  80.2526474  54.3978882
   5.7548970  81.0748005  54.1019011   5.7158637  80.1237488  55.2787447
  32.4321175  19.9902678  41.0688019  32.7699280  20.3399730  40.2442884
  33.0491948  20.3007960  41.7313862  97.3777103  78.3705187  44.5776653
  96.5953445  77.8808784  44.8314095  97.6490498  77.9757404  43.7489557
 111.2695122  86.2990475  51.7262888 110.6281757  85.5889606  51.7526388
 111.9908047  85.9908199  52.2748947  88.3619308  75.4305553  73.6308718
  89.0415955  75.8408308  73.0961132  88.8168335  75.1558924  74.4270229
 113.3919048 102.2882462  63.0546761 112.8501701 102.7157784  63.7179756
 113.1426430 101.3652039  63.1004047  18.7059915  77.4379063  27.5039935
  19.6471167  77.5173569  27.6595640  18.5388029  76.4956093  27.5229502
 114.9952030  80.5892563  48.6700630 114.5909309  80.9837627  49.4428253
 114.3498039  79.9539518  48.3600855  68.7126827  80.6913471  69.9550581
  68.9761925  80.4141426  69.0775919  69.3353891  81.3808060  70.1855278
  92.3820877 109.3915749  27.3148870  92.1582127 108.8149643  26.5843868
  91.6284370 109.3373203  27.9025149 102.9672813  84.6289730  75.7115984
 102.5059032  85.4021358  76.0365391 103.4290409  84.9359226  74.9313450
  98.1326008  87.2028923  55.7659483  98.6903667  86.9800758  55.0206375
  98.6013412  86.8600368  56.5268421  27.7512550   6.2152356  40.6633377
  28.4544778   6.3292342  41.3026476  27.7443671   5.2758181  40.4798222
  21.5364051   5.3409582  70.4180098  21.5044880   4.8824883  69.5783567
  22.4700212   5.4702729  70.5849552  43.0201244   1.7948659  29.6645641
  43.8164091   1.3730590  29.3416929  42.9487419   2.5982237  29.1490507
 107.8060722  14.4766045  90.8040810 108.3156300  14.5745254  89.9997234
 106.9549751  14.8625565  90.5969143  92.3514301  35.6059575   0.6512321
  92.3433203  36.5626740   0.6804622  93.2546324  35.3675961   0.8601344
  67.7951002  21.1470461  26.8245053  66.9373274  21.0618949  26.4083290
  68.2908869  20.3918791  26.5080357  29.5781565   7.0338064  42.5803804
  29.9432707   6.9459474  43.4608364  30.1771641   7.6300979  42.1310902
   4.3201551  66.2662792  73.3409309   3.5722557  65.8535147  72.9090691
   4.0949333  67.1960449  73.3731890  71.9449902  70.9010458   1.9413264
  71.1907434  71.2011099   1.4340724  72.5799179  71.6138840   1.8708816
  80.9393120  55.2780533   6.1834693  80.1040173  55.6631613   6.4484537
  81.3925457  55.0989294   7.0073152   6.9258440   2.1356966  48.0387211
   7.6009446   2.7330321  47.7167559   6.1946285   2.2512345  47.4319220
  80.8751965  38.2905984   9.6793789  80.2444267  38.3877873  10.3927612
  81.1844540  37.3878455   9.7544360   2.0294064  85.8419132  28.3171248
   2.1362354  85.5373764  29.2182803   1.1099347  85.6703377  28.1137371
   4.5213675  73.9550257  71.7482901   4.6620178  74.1978073  70.8331347
   3.5694873  73.9264441  71.8449306  80.9963226  96.8862534  73.5209513
  80.7995033  95.9506989  73.4737539  80.5557442  97.1838379  74.3169212
  52.5497532  39.9380398  92.3130131  53.2486010  40.4195309  91.8702888
  52.9573154  39.1131926  92.5771236  33.1169057   9.3131065  45.9269428
  33.7759614   9.8511070  46.3656139  33.0096221   9.7195739  45.0669956
 102.9090977  13.7212694  49.4612551 103.4718990  13.8847601  48.7044525
 103.3431339  13.0107415  49.9334717  99.7798824  83.7379551  80.2068138
  99.1092682  83.0756474  80.3737259 100.0271797  84.0528202  81.0762596
  28.9431882  24.0209413  62.9174852  29.1411304  24.7905135  62.3838091
  28.0169249  23.8459635  62.7511930  24.6189165   7.2219312  65.0939131
  23.7874484   7.6960760  65.1028109  24.4761205   6.4770401  65.6778479
 100.7368469  84.5255852  48.3869314 100.2632523  83.7841320  48.7640047
 101.3996506  84.7445297  49.0419006  25.2996635   1.9224188  20.3537011
  24.7359562   1.2581623  20.7502222  25.5709457   2.4749301  21.0867548
  66.5026903  81.6248035  84.9221897  65.9544134  81.0845375  84.3532085
  66.9101620  81.0018635  85.5239773   3.1978145  61.1763477  47.2593260
   3.3625156  61.9958639  46.7929602   3.1022391  60.5219889  46.5672970
  17.8743446  88.9027882  48.7272406  17.8254044  88.1260872  48.1699514
  18.1659424  89.6005917  48.1404877  31.5171766  12.9942417  56.5649652
  32.3397040  12.6700199  56.1981344  30.8553600  12.3784781  56.2502146
  66.6080046  97.5902748  88.0858040  67.0287466  97.1363258  87.3556328
  66.5789366  96.9398117  88.7874317 103.6655426  79.1806221  48.8516474
 103.9475822  78.3308840  48.5130644 102.7115154  79.1640949  48.7755489
  59.3199348   2.1645181  69.3135500  60.2619886   2.1084705  69.1534662
  58.9810896   1.3085677  69.0513229  62.9143763  22.4320006  69.3441582
  63.0410862  22.7964258  70.2201557  62.2177076  22.9652572  68.9613771
  49.7280073  13.4232116  35.1529288  49.2449474  14.0927804  34.6686172
  50.4915619  13.8835776  35.5011821 114.4340229  67.6081228  52.4659014
 113.8167000  66.9423389  52.1627951 114.0220547  68.4402752  52.2334433
  23.6075926  71.2569046  50.0668573  23.8155031  70.3227854  50.0873280
  23.4495902  71.4469004  49.1421032 113.9030266  56.0500336  39.8794508
 113.8993740  57.0031786  39.9673963 114.4523525  55.8822632  39.1137314
  66.5685892  14.4306374  34.7083521  66.2108469  15.0327241  34.0558600
  65.7997894  14.0083039  35.0915146   5.5916941  92.6895809  50.8744383
   6.0082412  93.4524918  51.2752962   6.2928987  92.0414734  50.8073330
  15.2721941  16.1106384  27.1367168  14.6842360  15.7289624  26.4849043
  14.7155106  16.2656999  27.8997970  10.6198466 103.5069084  56.9880533
   9.6855438 103.6260509  57.1586895  10.6521416 102.9638004  56.2005138
  15.7559252  13.7602353  52.2181654  14.9721158  13.3522570  51.8501568
  16.1975384  14.1529584  51.4651871 109.6330738 108.7911034  32.3372149
 108.9029789 109.4059467  32.4089527 109.2257023 107.9271793  32.3998857
  65.4597616  24.5836520   9.6669775  65.9604836  23.9234257   9.1878003
  66.0108566  24.8037505  10.4180336  12.3656905  87.2789860  66.4896822
  12.0090640  86.7848778  67.2278595  12.9728365  87.9018021  66.8893194
  58.6114216  29.7907734  36.8427682  59.2355204  29.1172743  36.5723443
  58.0451536  29.9124336  36.0806847  71.8492699  12.1818185  60.2496004
  72.3534203  12.8673184  59.8112440  72.1643496  12.1935904  61.1533833
  25.3099561  44.7851419  67.5970411  24.9302816  45.5709314  67.9902506
  26.1602306  45.0712395  67.2632551  38.4811759   4.6980685  45.9025049
  38.5390878   5.5565006  45.4830122  39.3916535   4.4383764  46.0432959
  95.7397652 106.1739922  22.4709463  96.6345119 105.8625603  22.3342848
  95.5718613 106.7537594  21.7280364  83.7729740  28.0962348  49.1034174
  83.2835293  28.1318212  49.9252462  83.7158394  28.9847374  48.7519503
  30.2120852  22.3140836  67.5934505  29.9092960  23.0833173  67.1109247
  30.1675010  21.5997815  66.9578266  89.3221569  83.6908531  24.0926623
  89.4663525  83.9762688  24.9948692  90.2015018  83.6131477  23.7225914
 114.5952797  82.3503590  25.3101254 114.2969513  83.0253506  24.7005153
 113.9501476  81.6484070  25.2246737  51.5686417  41.7722797  57.5681448
  51.5230083  41.1025095  58.2504606  50.7743979  41.6411114  57.0502615
 116.2327407  86.8985939  30.3175688 117.0255961  87.3763847  30.5611539
 115.5158982  87.4849892  30.5594730  14.4772053 103.0828190  61.0096502
  14.1641891 102.8869152  61.8927574  13.6817026 103.2579994  60.5069399
  12.4153435 104.1553402  82.5686932  12.7381372 103.3874989  83.0403423
  13.1902301 104.5138836  82.1359921  34.4471264  53.6558723  66.1762238
  35.1535511  54.0797472  65.6888533  34.7362852  53.6818361  67.0883322
  56.3997746   9.2142946  38.9300609  56.6310883   8.5197127  38.3133912
  55.5155230   9.4768894  38.6743784 107.6178455 106.7079163  18.5209429
 107.3076057 106.6521168  19.4247496 106.8593311 107.0176888  18.0260384
  70.8739090  91.2707901  48.2658339  70.3707695  92.0293427  48.5619307
  70.3780890  90.9303570  47.5211859  24.2408824  14.4710374  26.4701605
  23.6150432  13.8295591  26.1339116  25.0983977  14.0823722  26.2974167
  20.3136921 105.1313305  51.0587215  20.5708027 104.2521286  51.3364410
  20.5332804 105.1621819  50.1275635  33.3842134 105.1893806  79.9713612
  34.0166306 105.8789539  80.1732731  33.3398557 104.6637154  80.7700729
 106.2947559 100.5672264  26.9187403 105.4855061 100.5397034  26.4082575
 106.6758156 101.4219856  26.7177010  10.1520967  88.5964489  68.8127470
  10.6383908  87.7743912  68.8757563  10.5144727  89.0305042  68.0404091
  35.9724569   3.2874629  63.6461306  36.5630054   3.4955794  64.3701315
  36.3291216   2.4828312  63.2698488  11.5268588  63.9285278  38.1558228
  11.6356432  63.8829613  39.1057301  10.6230950  64.2184973  38.0318809
  18.8128018  11.9566691  35.0921011  18.7083769  12.6762795  35.7145858
  18.8176191  12.3809791  34.2340970   9.5191222  16.8608451  44.9521255
   9.2829782  17.7324140  44.6345806   8.7609595  16.5788352  45.4638815
   3.8311851  97.4571609  69.1419411   4.3546745  97.5067997  68.3421135
   3.1363097  98.1029034  69.0138578  19.5849037  28.1287336  60.5329227
  19.5316219  27.1748590  60.5922270  18.7618589  28.4385514  60.9108639
  11.2640917  20.7059693  13.4522033  11.6961563  21.1657929  12.7324033
  11.4456177  19.7805119  13.2884693 115.6784725 100.1468182  46.9737196
 115.2801418  99.2986870  47.1692324 114.9791527 100.6492043  46.5556431
  72.9318571  71.7323065  53.7432337  73.7125874  71.9739628  54.2415237
  72.8819990  72.3849010  53.0447626  48.6446905   7.1618420  49.8071241
  48.3689213   8.0603415  49.6257877  49.5405006   7.2474647  50.1333475
  19.6772408  30.6492281  55.5599880  19.6786785  29.9874091  56.2515259
  18.8061464  31.0431695  55.6072903  48.9257145  13.3657134  24.3259811
  48.6065626  12.5178289  24.0170050  49.4005108  13.1636035  25.1321769
  56.0715389  32.8077960  75.5103636  56.4535713  33.4757757  76.0796452
  56.7667580  32.5986123  74.8865461  32.1456075  94.2315292  56.8872452
  31.8113303  95.1208305  56.7704821  32.1724129  94.1083908  57.8361130
  55.4258442   5.0468594  82.1764660  56.3460970   4.7935137  82.1044827
  54.9642801   4.2262155  82.3489094   0.3414774 100.1747799  40.2200317
   0.5819674  99.2761803  40.4456854   1.1463182 100.6771564  40.3468418
  11.0080516  81.8723679  76.1092377  11.9170213  82.1655560  76.0456514
  10.9830165  81.3405609  76.9047213  38.4727907  17.9440427  63.2267857
  37.7778244  18.4377897  62.7915049  38.0156851  17.2349238  63.6789322
  59.7613859   7.8499669  48.5501909  59.8909569   8.7980884  48.5727215
  60.3536415   7.5112683  49.2215681  31.0316658  15.4871154  26.0502553
  30.3409123  16.1216164  26.2413096  31.6722322  15.9781063  25.5356359
  93.7382030  75.5980539  74.7195864  94.1286850  75.0675821  75.4140997
  92.8454208  75.7671118  75.0205708 102.8780174  49.9512959  71.6323328
 102.4333954  50.5481100  71.0303688 103.7800121  50.2701950  71.6631365
  47.7837324   6.2450093  62.5322437  47.6340485   6.0868841  63.4643507
  48.0666494   5.3978443  62.1880007  45.5380821   6.3412952  56.7785120
  46.3727665   5.9316909  56.5509987  45.6254387   6.5642601  57.7052736
  33.3226371  13.2510781  34.6112847  33.6931086  13.4897292  33.7615633
  32.3769307  13.3412993  34.4941092  18.3190203  92.5898838  11.3057971
  17.8002357  92.7758884  10.5231774  18.6131477  91.6865063  11.1890554
 106.8607085 109.2452046  62.7402401 106.8721549 110.1723546  62.5025558
 106.0259645 108.9214465  62.4016905  26.3199139  95.3529263  41.2130404
  27.1761560  94.9378681  41.3170242  26.3881898  96.1699200  41.7070961
  43.1863737  22.0244908  56.5021944  42.3554516  22.0898557  56.9728613
  43.8537407  22.0712042  57.1867895   3.1088266  93.0130768  53.3244419
   3.8897887  92.5586319  53.0085135   2.9585382  92.6519489  54.1980743
 115.3820896  78.1274271  29.5363569 115.1084328  77.4071169  30.1042461
 116.1340427  78.5138845  29.9851799  22.8512096  38.2942247  54.6649504
  22.8947353  37.5194645  54.1045189  21.9150805  38.4727669  54.7545052
   1.3383658 105.5845737  53.8466835   0.5693576 105.8078384  53.3222723
   2.0246148 105.4091549  53.2028532  17.5321448  69.3510485  54.1641426
  16.9145608  68.6279726  54.2735910  17.5275195  69.5297194  53.2237768
   8.2688171  75.6867504  55.2057457   7.5560451  75.8651972  54.5922756
   7.8436798  75.6493616  56.0625362 115.9653187 103.0148220  58.1194925
 115.1875305 102.5331020  58.4009695 116.0311413 103.7444496  58.7355661
  25.8794451   6.1191791  42.3889303  26.5871739   6.0706741  41.7462778
  25.6988430   7.0551324  42.4761391 106.3782406  80.5232525  33.5164642
 106.8273163  80.3957844  34.3521214 106.3096046  79.6438026  33.1448531
  21.4278579  24.3746114  16.2458670  21.8798089  24.3705630  17.0896411
  21.7102385  23.5657239  15.8190262  57.1868563  13.5084403  31.9723248
  57.0356846  12.6465654  32.3603344  57.7623463  13.3378327  31.2267137
  29.1009498 106.2237835  36.9043660  28.4592247 106.3887691  36.2135673
  29.2358232 105.2763462  36.8846726  51.9212627  12.8258133   5.6172282
  51.2633801  13.2891417   6.1356425  52.0756197  12.0124984   6.0977727
   5.9772247  82.7373314  44.1975260   5.3156841  83.2107449  44.7019768
   5.6220490  82.7031803  43.3093166  33.1324434  13.5374653  66.5928888
  33.9084172  13.0817103  66.2667179  33.3692694  13.8090885  67.4796629
  20.4394007  98.3990192  69.1762781  20.8833480  99.1866016  69.4906807
  19.9206924  98.6983871  68.4295845  57.3334441   0.1740731  47.9703665
  58.1415042   0.2724351  48.4739494  56.8475506   0.9817685  48.1370163
  66.2449646  18.8068759  46.8047857  65.6394386  18.6638916  46.0773754
  66.5226221  17.9275846  47.0616627 106.1334324  91.3430977  27.1856785
 106.1844158  90.4487514  27.5229764 106.1366749  91.2407017  26.2339783
  34.2154384  96.5762520  64.3934584  34.7329187  97.1236229  64.9840832
  34.5663595  96.7647934  63.5230923  35.0577664  89.8367500  15.1813579
  35.9521484  90.1107216  14.9782491  35.1419854  88.9204216  15.4449403
  23.4852743  86.3672829  63.2145405  22.5880003  86.5358162  62.9269171
  23.6153388  86.9611835  63.9538670 103.9766884  96.1160564  59.8444414
 104.5761776  96.7271233  59.4161367 104.0162373  95.3251648  59.3066978
  10.7873154  53.7271309  66.6949654  10.7705402  53.1190109  65.9559536
  10.3151071  54.4983864  66.3812542  77.0852184   7.3028708  88.6212254
  77.7091265   7.6329154  89.2677879  76.2639570   7.2135329  89.1047382
  23.9376831  84.9917316  78.7705517  23.3708763  85.7041550  79.0662098
  24.8181939  85.3670502  78.7787771  20.9056282  12.6126838  70.9922409
  20.3863883  13.3429503  71.3288879  21.7089558  12.6301289  71.5124273
  19.8191619  98.7611294   6.8590987  20.2044272  98.0033588   6.4191264
  20.5632877  99.2072201   7.2634619   5.7400298  67.3081017   9.9722397
   6.5133470  67.7616167   9.6367753   5.7161915  66.4837742   9.4862902
 113.3216190 102.7464867  39.2187858 112.9222202 102.4774265  40.0460243
 112.5795078 102.9156685  38.6383748   7.6736075  99.7899818  48.3919859
   6.8318421 100.0180149  48.7865257   7.7292275  98.8384247  48.4795475
   3.4737909  83.3065414  84.1886425   3.1638837  82.4021912  84.1403675
   3.2367384  83.5942268  85.0702763  30.3380203   1.7922051  19.4401479
  29.3837976   1.7270394  19.4781590  30.5841088   1.2639356  18.6808026
  17.0710909  29.7794867  28.9424610  17.5422096  29.7809696  28.1092286
  17.3824978  30.5633235  29.3950725  68.9117527   5.4306978  58.2054090
  69.6470308   5.9957749  57.9681635  69.2188692   4.5446959  58.0132914
  19.9267006  22.2111654  60.2592850  19.0463698  22.4428582  59.9633694
  19.9174833  21.2555313  60.3132248  21.1087298  25.2936983  77.7844620
  21.6089916  24.7486544  77.1770906  21.7241001  25.9737277  78.0585289
  42.8101873   3.7704948  69.3544722  42.4723196   4.6660590  69.3609142
  43.0797529   3.6096904  70.2587414  81.6712093  29.5570660  57.7594709
  80.7192993  29.6544266  57.7343702  81.9640732  30.2254438  58.3789349
 101.3281631  95.4766655  20.9402347 101.6407299  96.0301208  21.6559291
 100.4837704  95.8554268  20.6957722  20.0847581 109.2036911  68.5652685
  20.8344605 108.6134975  68.4887838  19.7822669 109.3245402  67.6652002
 116.4658577 101.5501308  49.1140509 115.9634229 101.3551617  49.9051094
 116.2214935 100.8588791  48.4986639  62.2722816  15.5485594  79.5829296
  61.5501642  15.8767021  79.0471125  63.0398321  16.0268021  79.2692614
   2.0555599 109.1542435  40.8657598   2.8999311 109.2107391  41.3130617
   1.9969715 108.2429123  40.5789185   1.4301187  73.5426998  33.9460039
   1.7537782  74.3841171  34.2677045   2.1822016  73.1505537  33.5023522
  66.7723894  14.5330465  46.4007854  66.4840126  13.9413106  45.7058620
  66.7223549  14.0073192  47.1991205 115.0355911  84.0544796  79.0275574
 115.9852409  84.0915775  78.9134455 114.7341824  83.4646797  78.3365345
  24.1113091 106.2094116  45.3898096  24.7195220 105.8771133  46.0500288
  24.2668152 107.1537781  45.3746176  50.1165771  11.0099137  63.7011862
  50.9216261  11.5254343  63.6525393  49.4243097  11.6229069  63.4537268
  40.3125191  70.9418106  74.6755266  40.2734089  70.0712252  74.2795706
  41.1250782  70.9385395  75.1814604  37.8023791 100.2986431  27.6140165
  37.8153300 101.1837101  27.2497153  37.3540306  99.7733593  26.9512224
  53.1054688  25.4979229  41.7166471  53.7482309  25.8227110  41.0860920
  52.3220491  26.0226607  41.5519285  42.6100159   5.8218294  75.5181408
  42.3355913   5.3191727  74.7511625  43.5621023   5.7253808  75.5396080
  32.5871778  89.6634769  52.3164129  32.8698683  89.3779182  51.4476395
  32.3178887  90.5737591  52.1934748  54.8680067  36.7127442  56.5602160
  54.1360235  37.2242689  56.2155724  55.5762148  37.3482084  56.6644382
 109.0744305  99.3694496  27.5106597 109.0489197  98.7725925  28.2585573
 108.1862164  99.7218990  27.4550915  53.8571215  26.3173699  58.8257313
  54.5502615  26.1139965  59.4537640  53.4881449  25.4656076  58.5920906
  33.0498099  28.0119991   5.9735137  33.9416528  27.6647305   5.9576476
  33.1262684  28.8474846   6.4343286  83.6180592   6.4378762  35.6580782
  83.9785099   6.2555414  36.5258694  82.8057480   5.9326106  35.6251335
 109.6938801 104.7932816  44.4691563 109.4820881 105.5766964  43.9615679
 110.0683212 104.1874886  43.8295984  17.8786159  73.4737349  51.8454456
  17.6751816  74.3021059  52.2797775  17.3887348  73.5074759  51.0237932
  39.5984840   6.5391707  72.1685505  39.4227028   5.6294346  71.9283152
  39.5490456   6.5483111  73.1244278  35.9692550 105.7669449  43.1401730
  36.1868787 105.3015041  43.9477825  35.0255871 105.9169102  43.1970119
 112.5148010 104.0758991  55.4251862 112.2245693 104.7459888  56.0440350
 113.4266853 104.3000984  55.2396202 116.0384178  62.9726887  88.1138420
 115.0951481  62.9906321  88.2755661 116.1653137  63.5627556  87.3709106
  13.7282908 107.1323776  81.1269474  12.8362691 107.4091911  81.3364792
  14.0623307 107.8182316  80.5487919  66.7072916 103.7852859  80.7927132
  67.0512915 104.3902683  81.4498997  66.5547562 104.3310452  80.0212860
 103.1324673  70.4445267  60.2395868 102.4713802  70.3546190  60.9259653
 102.6450729  70.7560587  59.4769430  11.2796581  57.1051216  69.3084669
  11.8298912  57.7233124  69.7894144  10.7821524  57.6508713  68.6994696
  44.7011757  16.7279541  71.9627428  44.6820354  16.8125463  72.9160070
  44.0634632  17.3707855  71.6523933  47.8644991  19.0980387  25.2476764
  46.9879532  19.0139472  25.6229496  48.1426382  18.1967974  25.0844765
  30.8948159   6.6954404  71.6046906  31.7211556   6.7737943  72.0814037
  30.2802181   7.2367549  72.1001482  43.6111450   0.7984042  72.9542685
  42.8178167   0.8595227  72.4221706  44.1178083   0.0947029  72.5488901
  57.2323465  30.6819463  79.0413189  56.7180681  30.1789117  79.6727562
  58.0931902  30.2634263  79.0459442  26.6396403  14.8892403  65.4739189
  25.8303404  15.4003489  65.4681206  27.1528339  15.2614200  66.1911011
  76.3881254  18.7391174  42.6049614  76.4356852  18.2275510  41.7973328
  75.9706926  19.5600939  42.3442268  32.7150941  53.9786768  33.1367254
  32.3825669  53.4747124  32.3939776  33.4522629  53.4637070  33.4647775
 105.7056808  94.7549438  26.2963057 106.6568470  94.6529961  26.2626863
 105.5410290  95.6032562  25.8846116  47.3508167 107.2855186  40.8487368
  47.1822071 107.8739929  40.1128769  47.0225000 107.7582455  41.6135693
  33.6369395  51.3022375  63.8694048  33.3558583  51.1643124  62.9648590
  32.9063272  51.7653084  64.2792845  41.6612768  48.5543060  24.4487238
  41.2576580  48.3320713  23.6097121  42.5816298  48.3134604  24.3430209
   6.3615191  95.0470924  52.0917845   7.0620406  95.6050396  51.7538595
   5.5569768  95.5264091  51.8938112 112.5613499  75.2361441  69.1884470
 112.4122143  75.5805206  70.0690126 113.1397724  75.8772278  68.7753344
  36.6926146  13.9504147  74.2395401  36.2158465  14.6560693  74.6765471
  37.5936055  14.0424013  74.5493555 105.0949574 101.6969490  37.5930333
 105.1784420 101.4312363  38.5088181 104.7469711 102.5877666  37.6328778
  76.1246634  18.2613444  82.6517391  75.3987312  18.8659358  82.8057766
  76.4625025  18.5072029  81.7905521 105.4359531  77.5259876  44.6672106
 106.3721371  77.6172829  44.4898462 105.3033733  76.5841866  44.7752094
  66.9878674  11.3287580  67.8328514  66.6610050  11.9305968  68.5015678
  67.9406738  11.3947356  67.8963566  39.4603133  12.3910415  26.2305045
  38.9375687  11.7471099  26.7083359  40.2401304  11.9093406  25.9546781
  69.8176861  37.3425055  36.5952229  69.8843431  36.5692163  37.1554160
  70.3716564  37.1405029  35.8412075   2.5921425 107.6034737  48.0868769
   3.4745651 107.3016071  47.8713942   2.7165574 108.4957504  48.4103012
  73.2938099  31.6067600  13.4786105  73.5412455  30.9457779  12.8319979
  73.0343580  31.1022687  14.2495871  34.1057038   7.0742732  16.0023153
  34.6563768   7.6426065  16.5408194  34.6170163   6.9298691  15.2061129
  86.2250900  79.2093420  27.6892495  85.9396362  79.0319490  28.5855079
  87.0282841  79.7201109  27.7903652   6.5628439  82.1171761  92.2805977
   6.5075445  82.6874924  91.5138435   7.3805279  81.6340637  92.1612930
  55.6479883  37.7061963  70.0523138  55.2719688  38.5023355  70.4278135
  56.5863228  37.7791166  70.2267933  59.6168232  35.8032632  36.9534564
  59.8819065  35.5493689  37.8374815  59.2783022  34.9970293  36.5640736
  84.8873425 106.7338753  39.5582223  84.9059868 107.5344753  39.0338802
  85.8078575 106.4906979  39.6568823  44.6886349   3.8118267  59.8925257
  45.1009178   4.4830608  60.4363108  43.7608719   4.0472159  59.8837709
  59.3609476  22.7267170  42.6743507  59.7648191  21.9546199  42.2781420
  58.7836313  22.3741388  43.3515739  18.3426774  29.6817875  14.7096944
  18.8752162  30.4328513  14.4479012  17.4651599  30.0427198  14.8358750
  16.8777192  94.3738461  15.6103694  17.4688840  93.6498737  15.4038930
  16.2538946  94.3881416  14.8845100  83.0714607 103.9206219  20.6503272
  82.4660873 104.4896889  20.1750231  83.1126308 103.1220722  20.1241612
  28.8724089 101.2989330  70.8800507  28.3998775 100.8005142  70.2133274
  29.3120599 101.9950867  70.3918934  90.1702881  83.6898708  74.8569345
  89.9370861  82.8458595  75.2435732  90.7761383  84.0821266  75.4856730
  43.6499596   7.7563238  54.2719078  43.9193583   6.9814026  54.7650099
  44.4410849   8.2923770  54.2171669  45.1374674   0.5060261  42.3556376
  44.8220062   0.8534411  41.5213585  45.9780502   0.9423982  42.4943113
  82.6698494   3.2098687  23.0392456  82.2936153   3.0359024  22.1764493
  81.9125366   3.2884032  23.6193657  11.6390896 108.6117649  45.0323486
  10.8228183 108.3897400  45.4802752  11.6611242 108.0301952  44.2724037
  45.6764030  31.7246294  38.8404942  45.0307751  32.4311471  38.8556743
  45.9843063  31.6620779  39.7446585  35.7621789   1.1526265  57.3849773
  35.4330254   1.3832892  56.5162516  35.0909352   1.4720187  57.9880142
  18.5582209 101.7065430  52.3340416  18.3551323 100.7716179  52.3042393
  18.1229818 102.0708752  51.5632868 110.4229069  98.1000137  25.5879807
 110.2863693  97.1716595  25.7770610 110.1359367  98.5509109  26.3820648
  54.6673727   4.2398798  68.6525297  55.5694532   4.2939001  68.9680767
  54.4229031   3.3234915  68.7817478  44.7982311  30.6530833  57.1448898
  44.3902302  29.9208331  56.6827488  44.6525431  31.4075685  56.5741396
  65.8061361  35.9854269  42.2792578  66.3291121  35.2678061  41.9218302
  65.8706284  35.8791828  43.2283545  97.1053600  97.2150517  44.6917057
  97.5689507  97.6006317  43.9483023  96.2485123  96.9730854  44.3402767
  29.3378544  97.4685287  41.2955523  29.2764354  97.7280521  40.3762579
  30.1766276  97.8240776  41.5892792  61.0762310  28.6821866  50.6266308
  61.6636801  28.1255221  51.1377621  60.2137470  28.2806301  50.7320356
  43.5035801  17.8203666  39.3303609  43.3200502  17.7684712  40.2683640
  43.0785513  17.0467973  38.9599895  70.9194613  33.4242511   7.2214729
  71.2544966  33.9873648   6.5237015  71.6608953  32.8658891   7.4554282
 115.2861500  91.0717964  56.9105864 115.8435535  90.3123665  56.7408991
 115.6068516  91.4235115  57.7410555  39.8396210   1.5568341  65.4688072
  40.6299137   1.1059655  65.1715088  39.9949341   1.7246712  66.3982916
  52.7196026  36.3743544  29.1091681  52.7016497  36.8654156  29.9306107
  53.3331060  36.8568468  28.5550475  47.1821642  27.2838783  78.8866997
  46.9903994  26.8885183  79.7370815  46.6182089  26.8147278  78.2718134
  15.0851321  93.0590343  37.7117634  14.6139467  93.8911343  37.7545452
  16.0094440  93.3075142  37.7000999  29.1198754   8.4259206  72.8295088
  29.6552825   9.1821223  73.0697775  28.6525893   8.1982166  73.6332703
  34.3546104   9.2883486  42.3797560  33.6609340   9.4902784  41.7518473
  34.8546743   8.5847169  41.9661522  32.6341343  39.5878243  14.7960579
  32.8127289  39.5256281  13.8577259  33.2146525  40.2834749  15.1047671
  10.5651963  40.0400591  21.3098454  10.8811522  40.2633142  20.4343104
   9.7233063  40.4896927  21.3825369  14.2115688  37.3834991  52.0577669
  14.6085536  36.5126681  52.0407963  14.6407223  37.8562999  51.3446617
  37.3818016  34.2519021  28.4012961  36.7356539  33.6696029  28.0017304
  38.2268858  33.8655972  28.1714416  58.5477135   0.2631749  58.4433270
  59.1769597   0.2052487  57.7243519  58.7900361  -0.4517471  59.0318775
  71.2119293   9.4831705  78.8564062  71.1677456  10.1490700  78.1702137
  71.9765472   9.7271162  79.3780136 109.6513176  98.7437057  51.3626051
 109.2664909  98.1551933  50.7131386 108.9175129  99.2781639  51.6661072
  36.5927243  22.7768302  46.1543655  35.8205295  22.8787136  46.7107534
  37.0624828  23.6061716  46.2424088  91.4394474  82.5402927  40.7449007
  91.1781883  81.6565704  40.4860592  90.6156731  82.9843712  40.9459543
 103.8085747 104.9769402  77.3201895 104.1991138 104.1454411  77.0512819
 104.3183517 105.6418037  76.8572521  54.7781563  10.7329619  55.3071928
  53.8682365  10.6876612  55.0135565  55.2740145  10.2877021  54.6200991
  74.3328333  99.9751472  41.9379902  74.9941444  99.8698711  41.2540150
  73.9553642  99.1017628  42.0426464  39.1412401  12.1878397  31.8310785
  38.7651372  13.0437028  31.6254687  38.6954641  11.5818810  31.2391949
  55.2872753  19.8472476  52.1699715  54.3712330  19.5846701  52.0797205
  55.6051064  19.3520689  52.9249668   4.5589480  83.1224060  20.5483246
   4.1127473  82.8223801  21.3402343   5.4190224  83.4116554  20.8530164
  61.6373110  10.8865726  35.7821441  61.0469341  11.6354752  35.6994820
  62.0017004  10.7708383  34.9046135  86.5064526  32.0993638  55.1386547
  85.6800461  32.3661613  55.5412769  87.0351410  32.8972030  55.1257133
  56.8087387   4.2288715  30.4886508  57.6916361   4.5400798  30.2889657
  56.2305784   4.9015489  30.1288319  12.1524179 106.6911411  43.0541372
  11.6655445 105.8673286  43.0315351  12.0945585 107.0281601  42.1601009
  63.8466072  14.7090459  29.2951727  62.9356241  14.4162536  29.2702961
  64.0325928  14.9895251  28.3990860  79.1274500  95.9045601  40.8537245
  78.3261490  95.7279873  40.3607988  78.9304876  95.6123257  41.7436886
  53.4627867  10.3883910  27.0194793  54.1084909  11.0578310  26.7933226
  53.0003548  10.2149570  26.1995339  44.1309166  39.9083352  37.1492815
  44.8690891  39.7106528  37.7256966  43.7232590  39.0585589  36.9821739
  38.2930207 100.7147121  50.6830311  38.9502978 100.5319118  51.3544464
  38.3563018 101.6585255  50.5365896  39.1739964  28.1700945  11.8842566
  39.9239087  28.6138773  11.4881277  38.4138966  28.5296392  11.4268625
 109.0104389  74.7646284  62.5754690 109.7549248  74.7747421  63.1770182
 109.3468952  75.1599932  61.7712879   5.3991961 103.4287167  77.8521729
   5.0901753 102.5267506  77.7674103   5.2929312 103.6319733  78.7814856
  65.1714849  22.9401326  32.8498101  65.7018757  23.7036443  33.0777764
  65.1065683  22.9699588  31.8952799  46.7994070   4.8481929  31.7424273
  47.1892214   5.1618558  32.5584507  45.9823990   4.4291416  32.0128417
  11.6691923  85.8272934  31.1023426  11.7616928  86.6650867  31.5559673
  11.3902068  86.0634422  30.2176809  40.8964872  28.9394021  39.2216182
  41.3576794  29.5901775  38.6924434  41.4974499  28.7463450  39.9412036
  24.7998524  98.6722183  74.5835686  24.5285010  97.9774094  75.1834297
  25.6154370  99.0061665  74.9571133  28.2448554  88.5561943  42.3536968
  28.7390804  88.0208969  41.7328644  27.4886394  88.0171776  42.5857258
  63.2762766   8.3732677  49.5622683  63.7805557   9.1360670  49.8452330
  63.9368343   7.7092272  49.3649292   8.5393405 100.3721046  29.7041392
   8.6676478  99.6214771  30.2840734   7.5889409 100.4536247  29.6245933
  60.1502562  32.1890235  53.2864523  60.2865458  31.5142345  53.9515209
  59.2687178  32.0220208  52.9529381  66.3144350  19.1076863  21.5287304
  66.1927509  18.4024656  20.8930516  66.5382195  18.6591291  22.3441744
  86.7982292   6.6047454  31.1040258  86.8228722   6.6451246  32.0600557
  87.5721073   7.0933372  30.8236361  38.4299588  12.7702332  56.5250778
  37.9256082  12.2316492  55.9153318  37.7688265  13.2483709  57.0255947
  15.7171822 100.8709908  23.2330489  15.8754063 101.7997456  23.0638838
  16.2779748 100.4143810  22.6059484  23.5177875 107.9222488  91.3771820
  24.4184184 107.6117325  91.4703083  23.2535768 107.6324081  90.5040264
   6.1434656  88.1109333  38.3728933   5.2122521  88.3256054  38.3182096
   6.5543675  88.6540794  37.7002978  91.1297512   0.5540373  16.8091905
  91.3164997  -0.2072591  16.2598419  90.7041073   0.1904812  17.5856471
   9.2228276  99.9617958  68.9555359   9.4377303  99.1612148  69.4341993
  10.0666058 100.2870083  68.6416769  72.4022007  14.8212171  82.9397488
  72.6603985  14.5634866  83.8247013  71.5809727  15.2982390  83.0592155
  57.5854874  29.3669152  56.7653275  58.4505844  29.0394354  56.5191698
  57.5309944  30.2305651  56.3562155  51.0788012  14.6627712  59.2771482
  50.6675816  15.0694489  58.5144281  50.9267521  15.2828419  59.9903250
  74.2354631  15.1489377  44.5543480  74.3691730  14.6883333  43.7259769
  74.9583340  15.7747364  44.5998240  28.9049268 102.2500610  73.6861134
  29.1166711 101.9757175  72.7938557  28.0012822 102.5612354  73.6329365
  13.8103127  99.5656776  37.1121168  14.7258663  99.7996235  37.2646475
  13.7123859  99.5895576  36.1602402  84.5903492  17.3838651  49.8777533
  85.2992153  17.5633883  50.4954147  84.8169994  16.5374482  49.4924736
  86.9306087  10.8874476  46.0500956  86.6206360  10.7796705  45.1509094
  86.1909294  10.6143069  46.5927792  28.0756402   6.9587225  28.1379437
  28.4009838   7.2281092  28.9969063  27.3511910   6.3639444  28.3319688
  29.7504997   2.5124228  63.0238533  29.1751170   3.1563362  63.4368181
  30.6341219   2.7938989  63.2609510  51.1350489   5.0723076  51.4766884
  51.8673372   5.4081547  51.9935942  50.3847361   5.1130271  52.0696497
  13.4758532  75.3497458  74.9244070  13.0872715  75.6069803  75.7605076
  14.1904032  75.9724569  74.7907066  48.3467865   5.7394207  56.8796110
  48.5109138   4.8692855  56.5160751  49.2119455   6.1461926  56.9272375
 109.0013409 103.4171867  63.2713985 108.7843418 102.8854561  64.0371752
 108.3022213 104.0694618  63.2268238  24.7947168  99.4614887  50.6756639
  25.6754661  99.2765236  51.0017014  24.4202924  98.5993195  50.4948282
  10.8491492   5.3507191  55.6869650  10.7991910   4.4318238  55.4235888
  10.7772446   5.3306055  56.6412497  93.2564735  71.6751385   9.0629244
  92.4042416  71.2918186   8.8555682  93.4630775  72.2233725   8.3059651
  28.7550521  34.1072440  46.4368773  27.8826594  33.7161636  46.4839697
  29.3137169  33.4066963  46.1001825  53.4329605   0.6771080  55.0979328
  52.5144053   0.9074641  54.9585485  53.9118528   1.4881110  54.9271393
  44.3520403 101.8167782  70.8996534  45.0999308 102.0059872  70.3330040
  44.6644354 101.1282444  71.4866543  56.7353487  34.4663072  56.7638016
  56.1353350  35.2118444  56.7439651  56.2160206  33.7505889  57.1302414
  56.4208126  11.7969108  82.0348549  56.9009924  11.0014904  82.2650051
  56.0918522  11.6309357  81.1514187   5.3354543 105.3697300  10.2827787
   5.8081591 104.5410442  10.3606963   5.9766787 105.9775352   9.9144864
  52.2431946  86.8145561  66.4214802  52.3977470  85.9330845  66.0818291
  52.8013992  87.3787117  65.8863592  52.4999714  28.9411545  41.2483215
  52.9504681  29.7074676  41.6033554  52.6157093  29.0128994  40.3008556
  46.7675638   2.0348638  60.3518200  46.0988045   2.6775312  60.1152325
  47.5979424   2.4807565  60.1848507  56.4033318  23.3793020  52.5346375
  55.9854269  22.9450822  51.7909670  56.2702417  22.7789927  53.2682228
  83.8891697  26.5811563  39.2457628  84.1202164  27.3296499  38.6956692
  83.3022308  26.9437051  39.9093127  81.6355419  93.6007690  42.7288532
  81.2715340  92.9410648  42.1384954  81.9001484  94.3178844  42.1526861
  44.2911196   1.2592888  40.0466251  43.5719490   1.8578042  40.2486324
  43.9588404   0.7189059  39.3298244  19.1599739  13.0827844  37.9404306
  18.9600718  13.8445520  37.3963904  20.0227714  13.2717252  38.3093667
  10.2011740  82.0098400  30.8725858  10.7352495  81.9188881  30.0834584
   9.3734789  81.5825558  30.6521797  59.3655205   7.6653969  82.1416759
  58.8443422   7.4065697  81.3816738  59.3184185   6.9132131  82.7317905
  76.2242270   4.9373370  32.8108954  76.1944818   4.6239308  31.9069457
  76.4624882   4.1654116  33.3243084  19.8687079 109.3683112  28.9609504
  20.6066564 109.9729222  28.8827968  19.1662696 109.8956512  29.3413758
  31.7460799   3.7498030  24.0290165  31.9998312   3.4126341  23.1698561
  30.9383488   3.2819310  24.2409086  52.3359251  15.6897163  35.5245304
  51.7714691  16.1850893  34.9310470  53.2177258  16.0153878  35.3439879
 112.0552635 104.2172050  65.5013704 112.3841667 104.6806240  64.7311163
 112.1343517 104.8511314  66.2141895  63.7820530  30.6418324  15.5185521
  63.4872913  30.2329731  16.3322973  64.5292425  31.1807990  15.7782698
  17.9212499  21.0733223  75.1694536  18.8776708  21.1074281  75.1513720
  17.6445627  21.8759298  74.7273016  86.0894680  21.6338086  28.5371351
  86.1408043  22.0021081  29.4191504  85.1582050  21.6656375  28.3181167
  21.8892622 101.6819191  57.0496559  22.0166278 101.5131950  56.1160946
  21.5067673 100.8728504  57.3892736   8.0044299  91.7984676  45.0651693
   8.8629866  92.2170448  45.0026226   8.1325811  91.0805321  45.6851435
  31.7611885 108.4541130  56.0241938  31.2396669 108.4130192  56.8257904
  31.3682032 109.1658497  55.5189991  35.9807420  18.9457512  26.4208460
  35.1540160  18.4642661  26.4513183  35.9971356  19.4454169  27.2371149
  46.6635609  29.1933393  34.5735526  46.9318867  29.8658180  35.1996565
  45.9109116  28.7691092  34.9855947  18.4616077  83.5666466  54.0689945
  18.1883192  84.4024658  53.6908960  17.6772237  83.2328224  54.5043468
  15.6303501  89.0095711  50.3819847  15.0498903  89.2652798  49.6651077
  16.4966416  88.9502335  49.9791813  28.3097148   6.1296946  25.5045509
  28.2798648   6.3929689  26.4243484  28.8817620   6.7750162  25.0891542
  25.2656293 101.0342026  69.5908165  24.4686508 100.5182648  69.7127676
  25.3420043 101.5502739  70.3933525 101.9692421   5.5420798  24.1720843
 102.7386570   6.1113644  24.1840196 101.2648487   6.0983574  23.8394928
  52.7154303  11.2772453  29.5069790  53.1849337  11.8802679  30.0833154
  53.3231783  11.1130166  28.7859344  75.6806707  31.9749236  42.6332664
  75.1462841  31.1814189  42.6651049  76.1022091  32.0144033  43.4917402
  54.4621086  22.1567583  62.1368885  54.3242216  23.1039572  62.1428728
  54.6446371  21.9470739  61.2209511  39.1454482  22.4391913  75.7406473
  39.3458629  23.1024003  76.4011145  38.4747767  21.8907976  76.1477089
  28.8876939 107.0533466  78.7061930  28.6676359 107.9502392  78.9579725
  29.1349602 107.1173668  77.7836990   8.4091592  91.0210037  42.0649242
   9.0801853  91.7034435  42.0498610   8.0970681  91.0118961  42.9697704
   1.4807680 100.0343037   5.3685117   0.9506111 100.4878712   4.7131959
   1.7859450 100.7288551   5.9521991  54.5236397  18.3372784  29.1203237
  54.1606712  18.5002267  29.9909163  55.2973032  18.8990319  29.0743971
  30.9471250   8.5969597  17.8825569  29.9967289   8.6943114  17.8233564
  31.2319255   9.3431640  18.4100974  17.3776186  89.8630142  26.3334012
  17.6595473  89.0006924  26.6386199  16.9029737  90.2365303  27.0759821
 104.1082859  10.5346525   1.4398001 103.4984112  10.8871698   2.0878854
 103.6352062   9.8065746   1.0368934  82.2714329   0.4503436  43.5805225
  82.9148483   0.7311901  44.2311954  81.4256382   0.5730107  44.0115976
  28.0590200  97.9485416  27.8959394  28.9165807  98.1913280  28.2450414
  27.8598380  97.1097565  28.3118677  62.7497864   5.5931562  53.4112692
  62.2014952   5.0512892  52.8438282  62.2371006   5.6953359  54.2131042
   5.5635744  54.6777010  61.0262823   5.6705230  54.1052008  60.2666521
   4.6161386  54.7766447  61.1201286  25.8316326 107.3454762  38.0922747
  26.1734009 107.7291584  38.8998699  25.0638413 106.8461800  38.3705354
  37.4708033  12.6555645  52.1689367  38.3191371  12.2145319  52.2142220
  37.6818109  13.5873413  52.2280884  45.8280420  98.4512424  47.0398235
  45.5105543  97.7130032  46.5197945  46.7251730  98.5898399  46.7362118
  51.4416170   8.9215016  81.6793823  51.3831568   9.8675215  81.8130302
  50.5820656   8.5894388  81.9384861 102.9802036  97.4485970  22.9049921
 103.8126564  96.9942951  23.0348730 102.3933983  97.0641804  23.5562348
  17.6976502  42.2078991  76.1951637  18.5875034  42.1313381  76.5394497
  17.8125012  42.5492954  75.3083229  64.1714239  17.1910095  48.2697153
  64.1368532  17.9653692  48.8313246  63.3110666  17.1599877  47.8513098
  50.6924391  10.2322745  54.6128368  51.2549210  10.2010334  53.8389730
  51.2023973  10.7193363  55.2600956  47.3353195  43.3156300  32.1909356
  48.1197309  43.4515572  31.6594720  47.6699066  43.1214905  33.0664897
  52.5318670  46.7004156  27.2772503  51.7735529  46.3692331  27.7584052
  53.1708002  46.9164610  27.9564524  64.7481775   6.0209703  48.8412619
  64.9006701   5.5755627  48.0078411  65.0735760   5.4100257  49.5023966
  59.3389177  24.4519615  28.4583306  59.2698908  25.3922915  28.6234069
  58.5753918  24.0753055  28.8958192  55.4399157   8.8875920  75.8171797
  54.6512175   9.0895456  75.3137875  56.1356401   8.8358074  75.1618052
  83.0829430  11.4731157  27.6959848  83.9201355  11.2278426  28.0899048
  82.4528980  10.8566618  28.0691719  66.7062473  21.7072988  50.4218483
  66.8392324  21.3259149  49.5540380  67.5381947  22.1345091  50.6257725
  30.4382205  19.6815467  10.3995430  31.1055779  19.6095729  11.0819542
  29.8098898  18.9893055  10.6050456  65.0119209  17.5905073  68.6521626
  65.6953526  18.0532491  68.1673717  64.4634771  18.2857716  69.0155458
  62.8065586  28.3437085  55.1491308  63.6485863  27.9968286  55.4439211
  62.7582169  28.1013989  54.2243719  40.5552340  45.7594490  51.7028189
  40.1833057  46.6150570  51.9169044  40.8939266  45.4303980  52.5354338
  66.3321066  27.0247912  42.2551584  66.8219042  26.3568521  41.7753792
  66.1579895  26.6274595  43.1084108  58.6823416  84.1157341  25.5939651
  59.0768194  84.8653126  26.0397863  59.3749475  83.7858677  25.0214958
  73.7394619  16.7627513  56.3086557  74.1837454  17.4897766  55.8724451
  74.2738914  16.5852237  57.0826674  66.1317682   9.6225625  53.3864117
  65.6819677   8.9230484  53.8603210  66.6689682   9.1661590  52.7388477
  79.5786858  14.9850869  82.1809673  79.1300440  14.6258950  81.4155006
  79.3467712  15.9137678  82.1806145  52.9122448  36.5708494  52.5269890
  52.1315718  36.4112258  53.0573606  53.0840874  35.7337618  52.0957232
  49.9803448  27.2809935  76.4012384  49.9462080  28.1935620  76.1143827
  50.6993246  27.2551250  77.0326042  57.6455593   1.5985973  35.2370906
  57.2789574   2.4410993  35.5054641  57.6970148   1.6528450  34.2828155
  62.8545284  24.6164632  39.5882463  63.7985373  24.4826078  39.6728516
  62.5096941  23.7531495  39.3601871   8.2859629  80.8862114   4.3484756
   8.4167850  79.9385834   4.3150455   7.4772859  81.0338020   3.8580778
  41.4249849 107.4980545  36.5567160  42.2198486 107.2286415  36.0964608
  41.1255980 106.7053032  37.0018435  84.6738720  50.2757025  32.3685002
  85.2451801  49.9165916  33.0473757  84.1747952  49.5225573  32.0523953
  58.5297346  22.0553255  79.6416903  58.8234997  22.8607321  79.2159462
  57.5810957  22.1573114  79.7185564  19.8708665  19.7164643   6.3834018
  19.4185781  19.3932748   5.6041610  19.6427906  19.0896761   7.0699513
  66.6898298   6.4957976   8.8257891  67.5755882   6.1635643   8.9716625
  66.2511396   5.8008236   8.3350790  68.6495018   1.2632629  59.5291376
  68.6573172   0.3245774  59.7163248  67.7770662   1.4289987  59.1719055
  36.2863612  42.5313663  48.2409239  37.0798373  43.0273628  48.4424496
  36.5766764  41.6200352  48.2032061  46.2597752   8.8003701  50.1032829
  45.3236914   8.8480651  49.9091053  46.3696241   7.9598737  50.5479527
  19.2233193 109.2838573  62.2090578  18.9864695 108.3650494  62.3352051
  18.4141159 109.7014713  61.9140625  55.8204603 108.3169460  38.2177758
  56.2994528 107.7534962  38.8254976  56.4138174 108.4268570  37.4747562
  15.9223390 106.9062424  31.9988561  15.8246374 107.8091240  31.6963840
  15.0464439 106.5294266  31.9149184  90.0403690   2.5713596  65.9448051
  90.4776669   3.3351988  66.3210440  89.3637848   2.3443490  66.5827179
  92.0532894  92.9167843  24.2828202  91.2716961  92.6227570  23.8149714
  92.5995922  93.3188915  23.6074734  68.6039305  16.2122464  51.6293764
  68.4473467  16.7952585  52.3722124  68.0203915  16.5363884  50.9433413
  76.0248280   6.7789221  51.1640167  76.5256596   5.9818381  51.3373804
  76.6888523   7.4454731  50.9879160  41.9312096 102.2158146  59.0392017
  42.3714638 101.9498730  58.2319355  42.3340034 101.6772079  59.7203016
  51.8933392  43.3324671  30.2975392  52.3681879  43.7941885  30.9886003
  52.4981976  43.3241796  29.5557094  95.7663631  63.3445740  55.0905609
  95.8136749  62.4129581  54.8758793  95.6648254  63.7804890  54.2444563
  31.8296218  33.7785459  53.1211901  31.7284584  34.2607450  53.9418459
  31.0025978  33.9158201  52.6592159  56.2013435  27.3996139  66.6793585
  56.5747833  27.1532083  65.8331585  56.8303108  28.0204320  67.0470810
  81.7760468  12.5514209  93.2437897  82.2745800  11.9049227  93.7435246
  81.9124031  12.3042178  92.3291779  95.6617737  59.7148323  87.9285240
  94.9824047  60.3662157  88.1028748  95.1845932  58.9535761  87.5983429
 106.4477062  69.9687147   4.3624184 105.9722805  70.0217104   5.1915050
 107.3249245  69.6745157   4.6077335  39.4385123  17.2292078   1.7468606
  40.3157663  17.2537172   2.1290281  39.4538474  16.4729691   1.1602607
  32.2821498  23.4385228  42.9054976  32.7790213  22.6395226  42.7295780
  31.3846803  23.1365371  43.0454445  67.8605032  40.5773783  53.3046293
  66.9611979  40.6909132  53.6121798  68.2267284  41.4617491  53.3035946
  23.8688755 105.5832672  66.5649891  24.3076754 105.9910107  65.8183765
  23.2722664 104.9455070  66.1731195  48.8813257  33.5929990  33.9962864
  49.4489002  34.1974711  33.5180545  48.3313942  34.1588187  34.5381856
  76.5795517  57.7100134  38.9971614  75.8984089  57.6410913  38.3281851
  77.3271704  57.2406721  38.6270046  96.6136456  26.6744447  32.2134447
  95.9691715  26.2284350  31.6639447  97.4477482  26.2637544  31.9857383
  47.7769184   2.9349917  20.9574986  48.2086611   2.0814100  20.9224439
  46.9711113   2.7758169  21.4489961  81.7711830  39.3511605  54.7390032
  82.5361633  39.6672821  54.2582703  81.0946274  39.2459273  54.0701056
  72.1408033  23.6221433  19.6858501  72.8399801  24.2157865  19.4120383
  71.3432121  24.0085268  19.3242121  64.3135548  31.1954355  30.5166101
  63.8911581  31.5695882  31.2897992  63.5967398  30.8023739  30.0187039
  48.7666559  21.3980579  37.2498298  47.8158140  21.3257217  37.3328471
  49.0238428  20.6196547  36.7556858  97.2982311  93.2315445  89.0065670
  97.6910591  93.9411449  88.4982586  96.7799950  93.6759663  89.6775055
  52.0216227  17.7682126  31.1996174  52.4965096  17.2850919  31.8758607
  51.7295837  17.0951629  30.5848408  87.5522709  33.3144164  82.7551556
  87.7183247  32.3917246  82.9482937  88.1406784  33.7912941  83.3404732
  54.8381615  13.9649582  45.9396505  54.1421509  13.3121991  45.8640909
  55.2909946  13.9308739  45.0970268  42.6709700  87.9010296  49.2966700
  42.9878283  87.1750355  48.7593031  42.2890186  88.5146236  48.6690998
  69.9027491  10.2376211  49.8649740  70.3647375  10.9880853  50.2386141
  70.2462149   9.4827408  50.3429079  63.5364199  15.2747095  56.2608624
  64.2224264  15.3249323  55.5951977  64.0063906  15.1013422  57.0765209
  95.7248783   9.3057287  33.5894847  95.3639793  10.1618958  33.3593512
  96.5943527   9.2968881  33.1892729  73.0786705  67.4433708  47.3763752
  72.3186684  67.0291662  47.7851105  73.3547878  68.1104374  48.0048752
  92.9421425  65.6051159  42.7265024  92.0540333  65.4137993  42.4250221
  93.1163597  66.4918756  42.4110079  79.1416550  58.5150909  52.3620749
  79.7301435  58.2224941  51.6661549  78.5659170  59.1509628  51.9372988
  65.5145311 106.8358517  63.1483078  66.2720442 106.7753124  63.7303257
  64.9234247 106.1469746  63.4520817 106.9471073  12.7478731  38.8866162
 106.4904594  13.5719979  39.0555048 106.2694645  12.0770395  38.9703751
  24.8099399 105.1997375  39.7396326  23.9736056 105.6526375  39.8476005
  24.6680856 104.6076584  39.0010190  97.7551460 105.4507923  64.0887403
  97.0639515 106.1078167  64.1712093  97.8532028 105.0941944  64.9716091
  72.3042679  40.5353355  49.2095137  72.6324511  40.4229307  50.1016378
  72.6752710  41.3692522  48.9211178  24.9260807  22.3357749  40.1018143
  24.7234011  21.7643094  40.8424807  25.1325011  23.1809735  40.5008888
  62.3642683   9.7928017  41.7796469  61.8262529   9.5798725  41.0171318
  62.5435638   8.9468318  42.1900368  62.6608372  11.8197799  58.4977198
  62.7439547  12.2424626  59.3525124  62.1516752  12.4378812  57.9733801
  39.0537834   5.6289124  32.1638751  39.5811272   4.8430029  32.0207405
  38.5142732   5.7020032  31.3765907  32.8472996  57.7701283  94.2354488
  32.1013713  58.1801701  93.7976265  33.5057998  58.4629822  94.2860794
  52.6406431  33.3878732  10.8492649  51.8733406  33.2349777  11.4007175
  53.3784294  33.0769610  11.3738942  66.1271620  12.1591055  84.2817783
  65.7918262  12.7655900  84.9420452  65.8368969  12.5285220  83.4478092
  62.4654579  17.4591959  51.7072964  62.6003551  17.9345381  52.5271034
  63.1105661  16.7524469  51.7312813   3.6876714  95.1488686  48.1504774
   3.4690595  94.3029499  48.5414457   2.8731123  95.4414558  47.7416754
  84.2320251  26.8744802  45.5179739  83.5293770  26.9629645  44.8740101
  84.8749828  27.5363111  45.2633858  65.7188702  19.7470033  29.1018009
  66.2808657  20.2046990  29.7270298  64.8449135  20.1043224  29.2591143
  75.6001663  10.7657325  39.8163843  75.1141310  10.8438635  38.9954734
  74.9462843  10.9221911  40.4976988  75.4847956  41.0949993  44.3030834
  75.3126955  40.5627298  45.0798082  76.3686752  41.4367533  44.4379568
  56.3281918  37.2540832  46.2578964  56.4968157  37.5591874  47.1493626
  57.0133495  36.6063690  46.0928059  36.1739254  17.3991704  52.4735928
  36.3103199  18.1619942  51.9116926  36.1533165  17.7563000  53.3614349
  73.1958818 102.8070068  30.5407691  74.0840816 102.9516220  30.8669949
  73.2417917 101.9661140  30.0857759  58.5267305  44.1789722  24.0080452
  58.2924891  43.5976458  23.2845640  58.2571888  43.7037706  24.7940254
  11.2983060 104.6185207  29.1036391  10.8932149 103.7513351  29.0930247
  11.3826811 104.8547840  28.1799006  53.9475965  20.5933237  41.5166140
  54.5644283  20.4592490  42.2361803  53.1631088  20.1127601  41.7809486
   5.8670771  96.4786816  16.7550540   5.3261304  96.2976837  15.9863877
   6.7637664  96.3215446  16.4592695   3.8405892  95.9912014  59.3854523
   3.6849532  96.1085129  60.3225994   3.3734235  95.1856136  59.1640663
  90.1812744  27.3538446  65.5312443  89.6600533  26.7627096  66.0744858
  91.0883427  27.1563506  65.7646275  59.4656086  34.2465687  50.9252977
  58.6892080  34.7410512  51.1878252  59.7725296  33.8357282  51.7335320
  56.4258814  16.3874328  50.9218073  55.5872440  16.0246086  51.2069082
  57.0823622  15.8533287  51.3690186  30.5324411  16.8821621  37.2366619
  30.2676034  17.7491641  37.5439072  31.0265827  16.5098500  37.9670334
  55.2312899  32.1886325  63.4716749  55.0330400  33.1196237  63.5725832
  56.1139965  32.0916200  63.8289499  56.1882114  40.1360273  19.6515262
  56.1863756  39.7584343  18.7719512  57.1148586  40.2002048  19.8826885
  60.5021477  35.4293203  64.8960447  59.8609352  36.1033273  65.1214170
  60.2050018  35.0886011  64.0523338  34.4237971  47.9617739  22.5321436
  34.0486073  47.1059132  22.7394414  34.4318748  48.4285116  23.3677983
  56.1572123  45.4448986  32.5970745  56.3966942  44.6659708  33.0992246
  56.3005638  46.1730433  33.2016301  66.7834473  11.1698139  37.3648930
  67.1458197  12.0407319  37.2023535  65.9081125  11.3360739  37.7147198
  16.2672222  18.6640894  19.9638939  15.3354847  18.8695621  19.8872352
  16.6972363  19.5176768  20.0159454  70.0050354  27.8394485   2.1157219
  70.3618383  28.7224746   2.2115730  70.3032875  27.5530100   1.2524542
  90.8797455  44.4725180  15.4302812  90.7458305  43.9120626  14.6659601
  91.8152332  44.3999100  15.6195641  27.6561618  85.3622246  21.4982271
  27.6080704  84.6136761  22.0928574  28.5629129  85.6618977  21.5632534
  73.2911825  29.6437931  37.7100492  73.5534096  28.8045382  38.0883622
  72.3494673  29.5562601  37.5626040  66.5454054   5.8017999  76.0563469
  66.6911125   6.0713077  76.9631910  67.3287535   5.3021920  75.8261538
  96.2150383  14.7995567  46.0166693  96.0867500  15.7349348  45.8590555
  96.3706398  14.4293869  45.1477671  41.1283588  27.5577664  61.3339520
  40.9094238  26.6590619  61.0877275  40.3805256  28.0763483  61.0372162
  67.8884506  10.9185672  63.8577461  67.7019739  10.4468822  63.0459738
  67.1660089  10.6862307  64.4411230  58.2756472  16.4860058  64.7024918
  58.0615377  16.6339099  65.6236410  59.1528797  16.8545735  64.5983315
  15.5970299 108.0112743  61.8631983  15.3222132 107.4994659  61.1024380
  16.4643121 107.6697826  62.0809984  60.5852270  14.8346233   3.2740021
  61.0516787  15.1017666   4.0660185  59.7483063  15.2967191   3.3215722
  46.4761496  33.5701752  60.6928205  47.2406435  33.0462670  60.4534340
  46.7079258  33.9610362  61.5352821  48.4145737  19.0032542  57.2184563
  47.4720144  19.1026175  57.3523903  48.7435150  18.6837673  58.0586672
  78.9395571  32.3180437  43.4452200  78.7352419  32.5843048  42.5487852
  79.5760202  32.9655933  43.7482405  79.3099642  50.7856083  21.7140937
  79.4069576  49.8972273  22.0570183  79.8618317  50.8020973  20.9321713
  23.2922530 101.7787457  75.8199692  22.5577068 101.3560867  75.3749609
  23.5727787 101.1417770  76.4770889  43.4844017  23.9972019  19.4257927
  42.8922892  23.5477209  20.0287819  43.5910749  24.8710155  19.8016918
  59.6325779  37.9757857  46.7622185  59.5272255  38.8974524  46.5262938
  59.6970129  37.9788709  47.7172422  35.7639956  27.1140289  50.0708294
  36.2932396  26.5866995  50.6692076  35.0788379  26.5179443  49.7683811
 115.8503914  92.3435402  53.9278984 116.0457802  93.1900692  53.5260963
 115.3128147  92.5585842  54.6901274  56.2267542  25.2322459  60.1140547
  56.8592215  25.3163743  59.4005108  56.7637825  25.1686311  60.9038591
  45.9047747  22.0073080  43.9564562  46.0494757  22.9260588  43.7302113
  45.8865166  21.5531969  43.1140327  61.3591194  26.6768122  45.7155895
  60.9684277  25.8443832  45.9814072  61.1984062  27.2636199  46.4545488
  52.9244089  38.1021810  50.2637053  53.6741066  37.5598192  50.0187016
  52.7274466  37.8456593  51.1646128  57.7203608  47.8281164  33.5334229
  57.4777412  48.4744120  32.8703427  56.9777298  47.8140545  34.1371894
  71.8661880   5.1189286  44.5413113  71.9334269   5.6039578  45.3637838
  71.5386581   4.2568365  44.7977400  37.5655866 108.7967968  81.4412689
  38.4793305 108.8169384  81.1568451  37.6078868 108.9078236  82.3910618
  53.4669304  39.9925089  35.3290057  54.3972731  40.1446390  35.1630330
  53.4500313  39.4459367  36.1146283  78.1602144   9.2222500  36.1287284
  78.7448788   9.5402467  35.4407787  78.2741117   9.8450261  36.8466496
  55.3613901  35.4053760  33.9601207  55.2007723  35.0633383  34.8395777
  54.8068571  36.1833215  33.9007211  53.4315634  45.2237463  31.4846134
  53.5931683  45.5513859  30.5998731  54.2158270  45.4663706  31.9768453
  85.5205441  18.7020576  30.4308200  86.0741425  17.9636157  30.1769209
  85.3132153  19.1407800  29.6057320  54.8520994  26.3856077  45.6448555
  55.2524614  25.5601597  45.3717661  53.9512539  26.1522460  45.8690405
 107.7540684  89.3317032  37.0616436 108.4538651  89.5074940  36.4326668
 107.5772095  88.3956814  36.9677687  40.7881212  47.7960873  65.7695770
  40.7369184  48.3225107  64.9717760  41.0125017  46.9175625  65.4628563
  56.7746401  43.8611221  39.6387053  56.2078524  44.5982695  39.4115543
  56.5097380  43.6199570  40.5263424  70.7709837  43.9002228  60.8022451
  70.3515577  44.7411871  60.9841490  70.0623941  43.2600307  60.8677530
  84.2739868  62.7299261  40.5801916  84.9561596  62.6197815  39.9178243
  84.2114353  61.8740511  41.0042143  80.2188110  17.1470129  67.0682192
  80.0695610  17.6612365  67.8616524  79.5359659  16.4764535  67.0854139
  49.2301083   0.2062662   4.4804269  49.6082067  -0.5052365   3.9636686
  49.9556971   0.8157071   4.6158531  39.9912214  31.8778634  45.0786495
  39.3490243  32.0750022  44.3967772  39.5777798  32.1735382  45.8897400
  30.4519510   1.7098597  28.6421347  29.9523950   0.8956006  28.7026119
  30.0061369   2.2143930  27.9617453  80.4228973  53.8479757  52.7697945
  80.0509739  54.3855953  53.4689856  79.6634150  53.4524393  52.3420477
  73.5325098  24.7581625  29.8288774  73.2402754  24.6946907  28.9195895
  72.8733063  25.3062820  30.2546096  38.7716126  41.3909006  62.5536442
  37.8511333  41.6114712  62.6961136  39.2533350  42.1508265  62.8802729
  60.6621456  18.8302231  62.6658249  60.9373236  18.3717942  63.4597731
  61.3709450  19.4485891  62.4884462  16.2078691   8.8810730  63.1341553
  16.1761165   8.0097198  63.5290861  16.5635598   8.7340039  62.2577524
 102.2262192  30.7770848  69.9402094 102.0225143  30.4081273  69.0807867
 102.8392124  31.4888263  69.7561169  49.9626684  38.5124612  39.0684724
  49.8755503  38.9204025  39.9299979  50.8993196  38.3357573  38.9807510
  45.5410767  13.0797863  42.0078325  44.9949169  12.3615110  41.6884232
  45.8856821  13.4897351  41.2144756  43.6058474 101.6115284  56.6409683
  43.3000040 101.9094658  55.7842731  44.1534424 100.8504200  56.4483976
 107.0675850  14.7754240  35.8307195 106.7594719  15.2311683  36.6140437
 107.9047203  15.1915860  35.6251907  76.3389826  12.3377931  31.8369889
  75.9121037  12.3489928  30.9803224  75.6917000  12.7160788  32.4320984
   9.1591668 100.6454945  39.3722558   9.2112386 101.5821075  39.5627379
   8.2213795 100.4672718  39.3013883  50.1123047  36.3142562  82.1015453
  51.0053635  36.6209292  82.2584820  49.8756599  36.6898060  81.2534904
  20.0492954  43.2038450  21.0475636  20.0517702  43.7101889  20.2352595
  20.7505703  43.5897303  21.5724778  52.0494986  95.1819897  26.1033177
  52.3800611  95.2385807  25.2067924  52.4472618  95.9276485  26.5527678
  27.2871232  31.6358757  47.7010918  26.8657470  31.9388127  46.8967867
  27.6127005  30.7617450  47.4863243  51.8480158  39.9892497  63.1314945
  52.1788311  39.8125529  62.2508240  52.2899055  39.3468285  63.6867046
  56.4999628  92.4374962  44.7603369  56.4687777  91.5874195  45.1992321
  55.6549358  92.5090122  44.3164396  45.4788065  43.4470367  35.2958751
  45.2267790  44.0819502  35.9663963  46.4317274  43.5202169  35.2428389
  96.7160416   2.7615955  64.4088078  95.8739948   2.5654659  63.9980412
  97.1619320   1.9159457  64.4566679  91.6422558  31.2174845  78.7136030
  91.4680386  32.1455264  78.8705111  91.1996841  31.0272121  77.8864670
  86.2328243  11.7047095  36.0311151  85.9798145  10.8434498  36.3634539
  87.1803379  11.7428577  36.1614919  80.8831787  22.7667546  56.5646124
  80.6458378  23.3458710  55.8403683  81.3574886  22.0462966  56.1496401
  26.4811137 110.0134535  87.5166607  26.6410640 109.8816192  88.4511566
  26.3053372 109.1357485  87.1775913  44.2015028 106.9269753  83.3257580
  44.7151756 106.1202717  83.3658028  44.1548395 107.2265244  84.2336750
  20.9518075 103.8682461  46.6434097  20.4680109 104.1251469  45.8584452
  21.7428255 104.4069004  46.6242456   5.7243431   1.2407032  21.9467521
   6.5568280   1.3483372  22.4067688   5.1997972   1.9926964  22.2216868
  96.5522861  94.8024464  52.1307802  96.7434025  94.1500854  51.4568806
  96.3042355  94.2878246  52.8988075  74.8202181  29.4494438  44.8919630
  75.2189779  29.9440861  45.6078911  73.8802862  29.4876385  45.0688696
  93.3592129  25.7081366  26.1806560  93.6197186  26.5996361  26.4121723
  92.4568748  25.6339645  26.4913297  41.6038656 108.7894630  40.1498747
  41.3028574 109.0845966  39.2904997  40.8579922 108.9416504  40.7301712
   8.4601474  56.6310740   4.5995438   8.3495867  57.0216417   5.4664147
   8.9807904  55.8433199   4.7564000  52.7525043  21.2494421  34.6007180
  51.9222689  21.1219573  34.1417098  52.5628853  21.9200253  35.2569151
  15.7152045  54.5713043  41.0581493  15.3808486  54.1366720  40.2735901
  16.2628162  53.9109802  41.4827967  52.5440025  22.5924635  46.7651463
  52.2887897  23.4358644  46.3912773  52.1021366  21.9439578  46.2170362
 103.6666775   3.9125386   6.5790635 103.3300495   3.3145157   7.2463572
 104.0312290   4.6450269   7.0758492   2.0981292  99.0275764  45.5431890
   2.5006706  99.0208721  44.6747732   1.2769452  98.5489082  45.4302406
  48.7260056  47.9082489  56.5809059  48.6676216  48.1604290  55.6593704
  49.6654558  47.8423023  56.7521191  30.3466821  51.0233641  42.5006104
  29.8762703  50.3537941  42.9972267  30.3902888  51.7742395  43.0926514
  53.3580875  41.6332579  45.0520945  53.8720942  41.3054609  44.3141365
  53.5197973  41.0039139  45.7549477  78.2497311  18.2557678  38.3761096
  78.0262518  18.3993602  37.4565077  78.5524225  19.1096330  38.6851811
  94.9130154  38.5034966  13.5032022  93.9602566  38.5464048  13.4217727
  95.1387310  37.6200032  13.2121229  84.9047184  33.2058907  33.1340265
  84.0555573  33.0159378  32.7351737  84.9173450  34.1583490  33.2283330
  25.0738716 104.1790295  29.0931606  24.6664548 103.4659863  29.5848989
  24.9023438 103.9659691  28.1758738  85.6726742  48.4424257  29.8550677
  86.5007496  48.0791044  29.5411849  85.2241230  48.7361574  29.0621257
  39.4312930 108.1652451  32.1955109  39.8427725 107.3014069  32.2220469
  39.3601871 108.4249878  33.1140447  59.0958452 107.5758648  43.2400036
  59.0474939 106.6743660  43.5581207  58.1902838 107.8049755  43.0309677
  74.9073553  20.3481483  57.5161409  75.3336000  21.1750627  57.2908401
  74.0243816  20.4277086  57.1552324  32.8681898  93.9455032  59.8666763
  32.5476623  94.3147469  60.6895685  32.4437404  93.0896473  59.8067760
  34.4760156 105.1180840  11.9324398  35.3566194 104.8973274  11.6290677
  34.3897009 104.6619511  12.7695286  78.9616108  12.5131762  45.6706762
  79.8970127  12.5723648  45.8649731  78.7880611  11.5736425  45.6124496
  57.4836779   6.7170715  50.8253765  56.8906879   6.2480599  50.2383280
  58.2882118   6.8238938  50.3178883  54.5396471 101.4087868  44.6574116
  54.7508478 102.3395443  44.5844555  55.1682568 101.0697842  45.2947187
  25.0357175 100.5989838  57.4939537  25.5498791 100.2059174  58.1991959
  24.3181849  99.9824047  57.3483467  56.9204044   3.9609200  35.9131622
  57.0899487   4.0999058  36.8449187  56.0369825   4.3032631  35.7767940
  93.7855148  27.8918028  22.4448419  93.2727051  27.4954128  23.1492090
  94.3651676  27.1907759  22.1468592  63.0109024   2.1412957  84.2370796
  63.0332899   1.8565662  85.1506710  63.3576345   3.0332947  84.2556381
 110.7365036  39.5006537  52.0584297 110.6427479  38.5915065  52.3428440
 109.8853493  39.8981118  52.2422695  53.0622628 109.0706967  19.8198593
  52.4261907 109.7839777  19.7661877  53.8429597 109.4126884  19.3842220
  76.1118889  60.8437443  34.7259212  75.1563025  60.8189440  34.7756696
  76.4025736  60.6911850  35.6250644  48.0812550  10.6581318  16.3662231
  49.0287685  10.5823350  16.2535191  47.7878094   9.7628808  16.5354860
  70.8468533  22.7026606  23.1198525  71.6966581  22.4877095  22.7353311
  70.2077007  22.3559785  22.4973345  61.2460947  43.7831926  26.1751699
  61.8332624  43.0281353  26.2120271  60.8233404  43.7162781  25.3189969
  45.2136660  55.3514099  47.5231075  45.9653044  55.6347799  48.0436611
  45.5802298  55.1529455  46.6614389  72.6531649  42.8045416  59.2245770
  72.3070812  43.5094643  59.7718811  73.1175566  42.2327423  59.8358154
  80.7855606  41.7870903  56.2197399  80.6370258  41.3117838  57.0372057
  81.0680389  41.1147785  55.5997086 101.2166977  20.2841496  65.7733154
 101.6488457  20.6519556  65.0024796 101.7484570  20.5824661  66.5111971
  60.9984636  24.1232491  36.9781566  61.6815424  24.3244910  37.6177979
  60.6108475  23.3058119  37.2908545  69.0525913  39.2460012  33.5195088
  69.7444248  39.7232580  33.9775753  68.4897375  38.9114189  34.2177081
  76.4255953  32.1467042  35.5263615  77.2792101  31.7419147  35.3723359
  75.7935333  31.4981484  35.2163577  81.6045189   9.1121125  52.9924154
  81.2395763   9.9969786  53.0000448  81.9763279   8.9988214  53.8671446
  66.7708969   7.8516287  48.8251400  66.0689259   7.2024584  48.7799120
  66.6413832   8.2860982  49.6681690 105.2417278  24.9189663  55.2640915
 105.1397514  24.6310830  56.1712599 105.2228642  24.1101265  54.7525692
  77.6514482  33.9235163  37.4478149  77.2955322  34.1809464  38.2982755
  77.0455170  33.2556462  37.1268249 104.4037437  25.4410768  35.3441834
 105.0601673  24.8328424  35.0044942 103.6538792  24.8873019  35.5616140
  76.6726494  42.8071308  60.1863766  76.8049479  42.0270538  60.7250834
  76.4765549  43.5018635  60.8149672  27.6578307  90.6941223  48.1053877
  27.3355436  90.0391197  47.4862480  27.5529003  91.5282917  47.6478052
  84.6835709  31.4871621  59.3441725  84.9162292  30.8256054  58.6926746
  84.8840427  32.3216462  58.9202881  53.0314732  27.1496320  48.7015915
  53.0198717  27.5103164  47.8150225  52.3472786  26.4802408  48.6968088
  89.2966461  55.6425953  44.1938210  88.5590172  55.2113342  43.7623692
  89.2258358  55.3777933  45.1109362  76.0175800  31.2263608  54.5962048
  75.8565331  32.1694946  54.5679951  75.3679562  30.8545041  53.9995909
  98.7203884  39.9741077  18.9540732  98.0168724  39.8606920  19.5931590
  99.5061684  39.6661401  19.4056797  80.5382824  13.4598494  40.4601049
  80.5108833  13.2197189  41.3862896  79.9176645  14.1844010  40.3820705
  23.3988047  15.9128380  29.3495226  23.8786983  16.5504110  29.8781395
  23.5508037  16.1883581  28.4455228  76.4823341  22.4503446  47.6458120
  77.1881199  22.8940344  48.1161737  76.9036722  21.6917801  47.2417259
  86.0414124  36.5397716  12.4029684  85.4237652  37.1548438  12.0074606
  86.8373871  37.0537567  12.5389016  71.8118191  29.2159128  45.0447941
  71.8603897  28.2688332  45.1748466  71.7743301  29.5776439  45.9302187
  82.5956440  36.5094399  49.2597675  82.8815365  35.6237984  49.4836855
  83.2043362  37.0826197  49.7258091  67.7002716  79.5630741  45.9650230
  67.8280163  80.3493309  45.4342461  66.7857409  79.3213034  45.8187008
  31.5966773  35.2807498  56.6070700  32.3798180  35.2377105  57.1557665
  31.7834210  35.9770083  55.9773207  69.9821234   6.3189381  48.1944752
  70.8128977   6.1484486  47.7506447  70.2114487   6.9062686  48.9146709
  58.7642002  32.0228887  90.2641106  59.7043848  32.0976639  90.4274654
  58.5719585  32.7269864  89.6448135  91.1345673  35.7148480  49.3447828
  91.5956879  34.8766947  49.3779469  90.3202057  35.5219603  48.8802004
   7.2755820 102.1254063  44.3375111   6.3465935 102.2554302  44.1469622
   7.4166065 101.1869144  44.2127562  72.1039057  15.8054626  59.6577501
  73.0546474  15.9135807  59.6325922  71.8924665  15.7612753  60.5902576
  59.7718477  26.6661763  30.0993538  60.5678463  26.3728881  30.5427504
  59.0659666  26.4567423  30.7109904  77.5449181  18.7118149  33.2135153
  77.2046947  19.2621434  32.5080943  76.9999790  17.9252982  33.1877446
  95.4141235  47.6181221  30.3146005  94.8187542  48.3620882  30.4056001
  94.8457813  46.8493652  30.3617811  45.4497766   4.8460624  12.9640460
  46.0650158   5.2696258  13.5626328  45.1695824   5.5457151  12.3739552
 107.8223801  51.4887476  66.3617992 106.8717575  51.4848900  66.4737797
 107.9634094  51.9355631  65.5271149  59.3870640  43.5327530  39.1713667
  59.6360302  44.2963600  38.6506438  58.4996843  43.7274313  39.4728470
  10.6152141  94.8091030  92.6476574   9.8073703  95.3222179  92.6292324
  10.4068923  94.0165615  92.1529770  60.5644798  10.5253029  48.7748957
  61.3327217  11.0624766  48.9685011  60.1418114  10.9681952  48.0390787
  82.8479862   9.0523708  69.2359304  81.9563770   8.7516761  69.4116068
  82.9819775   9.7754592  69.8486471 113.5505199  46.1891270  27.8086782
 113.7339401  45.4513550  27.2270560 113.8493443  45.8956385  28.6693740
  84.5804596  52.5108719  46.5391493  85.0973225  52.4200392  47.3396683
  84.9368191  53.2892847  46.1109972  60.1624680  34.9757981  48.4744310
  60.1447058  34.6560287  49.3764639  60.2651644  35.9237671  48.5583496
  50.9398174  49.3345594  10.3798258  50.5551767  50.2072334  10.2978492
  50.5098104  48.8182783   9.6980774   0.5686055  62.1197987   5.8496898
   0.3828107  61.4920759   6.5480298   0.9922848  61.5998602   5.1667571
   6.0424834   4.3661323  84.8281670   5.6924915   5.1539832  85.2441311
   5.5078995   3.6531550  85.1776123  82.0656776  18.3181763  32.5762844
  81.2470245  18.7968433  32.7063537  82.6090717  18.5652494  33.3245540
  71.9165516  44.9063158  32.3457456  72.6784134  44.7755003  31.7812252
  72.0011854  45.8074427  32.6572609  75.4207706  77.8494692  31.6370130
  75.6706476  76.9715357  31.9251490  74.4707489  77.8047228  31.5288877
  84.1845608   1.6768804  64.9856281  84.7252464   1.4835159  65.7514668
  84.8139000   1.8693171  64.2905474  92.2312546  75.9676743  20.9141254
  91.5039635  75.8684540  21.5284872  93.0107307  75.9991121  21.4687920
  56.0984898  31.3292623  60.7125759  56.1852980  31.3134503  61.6657019
  56.3176870  30.4390860  60.4373074  78.5363388  47.2847366   9.5494568
  79.4907331  47.2928524   9.4766867  78.2405233  47.9125834   8.8902670
  58.0039740 103.7242889  81.3074303  57.4204206 104.1157150  81.9574165
  58.2408237 104.4502068  80.7302094  98.4390068  30.2833486  53.1820488
  97.7685452  29.7074938  53.5495996  98.9758778  30.5358529  53.9332151
  43.6894131  21.2723494  45.4599810  44.2120171  21.1916566  46.2578535
  44.3230391  21.5043998  44.7810841  78.1782770  36.5848422  46.3652039
  77.9625702  36.2648225  45.4892540  77.3329115  36.6590047  46.8080187
  79.5761967  62.0405102  47.0859194  79.3288898  61.1203575  47.1775150
  79.7989035  62.1376419  46.1600685  82.0803261   8.1012720  43.8070440
  81.7776585   8.9797807  43.5771656  81.2801743   7.5786889  43.8607836
  75.6063604  47.5784636  57.0574331  76.5028429  47.8596067  57.2404861
  75.6757784  47.0661592  56.2518549  78.5181236  15.4710186  20.5625057
  79.1336346  15.8756495  19.9512362  78.8234854  14.5677912  20.6471515
  44.3187857  50.8117437  42.8487015  43.6663961  51.2726450  43.3761406
  44.4654894  51.3839293  42.0954943  78.9269400   7.4200088  15.0547707
  79.2405605   7.7410537  15.9002316  79.3124056   8.0173379  14.4137967
  87.9673767  52.8653955  37.7898765  88.6717129  53.2197762  38.3326077
  88.0880737  51.9166946  37.8302884  60.8258963  13.5774243  34.5823574
  60.3668356  13.8873172  33.8016772  61.7177629  13.4023488  34.2820859
  78.5520744   3.2672915  44.2392254  78.9363384   3.8943470  44.8518991
  79.0049171   3.4322295  43.4122038  63.6561012  48.2958746  31.2316418
  63.9228868  47.3793030  31.3020301  64.3418074  48.7808466  31.6908169
   8.6394519  29.7655201  60.2367783   7.9679799  29.3526196  60.7798004
   9.3903852  29.1746998  60.2939034  18.6884654  16.9897020  31.6963887
  19.2510593  16.5443683  31.0628295  17.8547263  17.1011484  31.2395644
  19.5011151  16.2443244  60.3181314  19.9832666  16.1427987  59.4974899
  18.5917473  16.3710582  60.0475407  67.2647524  21.5377712  20.6968951
  68.1961679  21.4616871  20.4897475  67.0281887  20.6818914  21.0543060
  99.2100334  18.5209656  63.0139303  98.7215137  18.8696527  62.2682810
  98.5419846  18.3434212  63.6760569  61.7795229  74.6747923  60.7060862
  61.4087772  75.4987669  61.0220671  61.3942289  74.5561218  59.8379278
 109.8802090  54.1483593   6.9906479 109.4463634  53.4900856   7.5334954
 110.7513618  54.2406082   7.3764062 110.0465393  43.5064697  26.9106627
 109.5947266  44.3305779  26.7291689 109.9347878  42.9910803  26.1118388
  91.1157227  40.9640360  35.9260416  91.3791561  41.0113764  36.8450594
  91.5035057  41.7420435  35.5253434  75.0422192  45.3478813  39.0936065
  75.6254673  45.3043699  39.8513412  75.6169367  45.2096558  38.3407307
  61.2018061  24.4760537  25.6729102  61.4462185  25.2058291  25.1037693
  61.8418694  24.5022178  26.3841510  48.8883066  57.3222399  22.2583985
  49.8377562  57.3346329  22.1374846  48.7538290  56.7924833  23.0442142
  16.9716501  93.6617470  25.3032207  16.9014931  93.4329033  24.3764329
  16.6386473  92.8926849  25.7657027  71.6507196  15.2389014  67.4556351
  72.3727322  14.7168517  67.8054762  71.8961143  16.1444831  67.6451969
  74.3329000  50.0389576  58.2676220  75.2378368  50.2703953  58.0584526
  74.1768742  49.2252398  57.7883005  61.7342472   9.9992365  75.5822372
  61.4006186  10.8583975  75.3238392  62.0953798  10.1360404  76.4580774
  69.8964071  42.1860838  47.2976017  70.6592226  42.7603626  47.3650312
  69.5883083  42.0903015  48.1987906  68.0537176  70.1206303  59.3364286
  67.9357338  70.9329557  58.8440466  69.0028763  70.0103521  59.3926668
  71.2467384  41.0827875  57.9390430  70.3482962  41.2123680  58.2427645
  71.7703533  41.6725159  58.4815168  80.1778221  14.0107739  55.6705141
  81.0353184  14.3594694  55.4269266  79.7230816  14.7515738  56.0713387
  81.8499947  29.6349907  26.8518066  82.0301914  30.3512645  26.2429452
  81.6163540  28.8960958  26.2899542  39.2314005 106.0054779  23.0827117
  39.7133732 106.6588593  23.5896873  39.6812677 105.9779739  22.2382617
  73.9106226  15.4304671  32.2892666  73.9994049  16.0605383  31.5741706
  73.2375908  14.8199522  31.9883800  52.3672724  28.3428502  59.8725271
  52.8712797  28.4234738  60.6822872  52.6823425  27.5315571  59.4740772
  53.3928394  15.2999520  18.0432570  54.0380430  14.7095561  18.4323323
  52.6319981  14.7446334  17.8730524  51.2857580  24.1905975  60.8308840
  50.8916903  24.1180277  59.9615860  50.5425549  24.3150926  61.4211226
  63.4184504  57.2598028  57.1448374  63.8423300  58.0460787  57.4888372
  63.1011200  56.7994022  57.9217339  82.3207283  16.4318454  61.0396957
  82.0752716  17.2777891  60.6650448  81.7281628  16.3179815  61.7827511
  74.2072105  75.8025503  52.0543051  73.5111141  75.1455402  52.0502472
  73.9672899  76.4013243  52.7615118  70.3877211  37.9339647  47.8446341
  71.3322306  37.8118420  47.7486181  70.1968098  37.6355863  48.7338781
  78.2891369  62.0111370  24.1767168  78.6069059  61.1109686  24.1063881
  77.9206371  62.2031116  23.3144021  82.5992107  20.7580662  55.4344225
  82.7194881  21.1136413  54.5538902  81.8066025  20.2251244  55.3713131
  97.6421547  36.2221813  38.1311917  96.8893051  35.6312251  38.1163931
  97.9134560  36.2415147  39.0489340 110.5593777  38.8951945  48.7564993
 109.8599625  39.0806317  49.3831301 110.1020622  38.6875486  47.9416513
  83.0921555  52.8675270  37.9347992  83.8578033  52.5886345  37.4325728
  83.4085751  53.5958958  38.4692025  79.3611097  40.0610447  50.7314157
  79.1169548  40.3736353  49.8602629  79.5801926  40.8555365  51.2182617
  60.1714468  19.7110856  53.6127043  59.6064329  18.9384353  53.6148596
  60.4432154  19.8065245  52.6998711  90.6223297  49.8101234  48.6466885
  89.9413013  49.1427994  48.7310219  90.1415062  50.6310415  48.5411644
  73.5631371  42.4841356  54.3828201  73.5110903  42.4959707  53.4271049
  74.3342876  43.0130625  54.5872545  38.9064002  43.2744551  34.8442984
  39.7313309  43.0590487  35.2794051  38.3863854  43.7106466  35.5192447
  79.9140215  33.0455422  52.2048235  79.8968554  32.1318078  52.4894762
  79.0747833  33.1745553  51.7629337  46.9637489  16.7289007  73.7008524
  46.3780260  16.3121736  73.0687952  46.9676161  17.6528561  73.4508085
  23.1450438  29.7979641  70.6480026  23.7751555  29.7595978  71.3675308
  23.1615162  30.7118130  70.3636789  94.6262074  38.7751794  53.7344503
  93.7646389  38.3651257  53.6583328  94.7012424  39.0046787  54.6606922
  66.8689823  38.0896091  57.7545309  66.4298201  37.7329278  58.5266352
  66.5680265  38.9969444  57.7055740  47.4227476  10.3470993  30.6252933
  47.4407387   9.4811761  31.0328293  46.7987967  10.8467245  31.1518764
  38.6451530  24.0184236  20.8540058  38.7743568  23.2946944  20.2410173
  37.9453921  23.7187576  21.4343190  77.2918987  27.9871154  44.2029476
  77.3664570  27.5946712  43.3330822  76.3991594  28.3309531  44.2348671
  31.4710212  33.0917501  34.2280245  32.1506476  33.1696844  33.5584974
  31.8362427  33.5364342  34.9929428  76.0835552  56.6610527  65.8791733
  76.9872475  56.4441395  66.1083364  76.0178280  56.4582825  64.9460077
  30.8300877  33.0022717  29.9605107  30.5115819  32.3846078  30.6187487
  30.8557630  33.8443851  30.4148436  71.7617559  37.9739809  53.9601803
  71.7170000  38.9227319  54.0789223  71.3861942  37.6140571  54.7636986
  50.0978613  17.3827338  20.5021739  49.8489141  17.5204623  19.5882320
  50.3399992  16.4577842  20.5476785  98.9731693  50.9266233  40.4544449
  99.8885059  50.7000351  40.6189251  98.6771107  51.3335180  41.2687016
  98.3228493  66.5090561  92.0099163  98.0990028  65.8931160  92.7075863
  97.5158787  66.6007137  91.5033245  30.2298832  45.5494595  17.2412157
  29.4735837  45.3419685  16.6924059  30.9767866  45.5122566  16.6437352
  62.2166586  31.6899729  61.6849422  62.3131990  30.7587099  61.8840933
  61.2837267  31.8656445  61.8074560  81.7810822   6.7022163  51.9834995
  81.3856983   7.5716931  51.9208908  82.7170086   6.8718523  52.0907164
  34.4437551  11.8253338  21.8674684  34.9944663  11.0436106  21.9105482
  34.1613650  11.9694436  22.7706409  69.1399145  61.1884308   7.2394562
  68.9816332  60.6534672   8.0172718  68.7755919  60.6756926   6.5179259
  86.8400097  29.5380592  35.4950285  87.1408749  28.9012003  36.1431980
  87.0309448  29.1291308  34.6509004  86.5851402  29.0221548  49.1554976
  86.8618679  28.8905072  50.0623178  85.6484127  28.8252568  49.1599512
 104.6137714  53.6536694  25.8995247 105.2209282  52.9912949  26.2294483
 104.9565887  54.4816208  26.2359834  90.0877380  16.0798860  28.7046504
  89.8881435  15.1437795  28.7145019  90.6618500  16.1944115  27.9473424
  89.0419579  23.6013460  44.2966175  89.5110321  22.9721761  43.7485838
  88.1289291  23.3161378  44.2609072  39.6889520  45.7584143  32.2767973
  39.3254471  44.8773479  32.1884108  40.0722456  45.9464312  31.4200783
  82.1624184  38.5319591  44.0536880  82.0954800  39.0499043  44.8558617
  81.6337490  39.0102482  43.4149599  78.6130476  50.1948023  50.4190016
  78.1797075  49.4865370  50.8952427  78.5946369  50.9364605  51.0238457
 104.7373009  21.0725570  18.4336853 103.8463593  21.3462210  18.6517632
 104.8782635  20.2804637  18.9522886  65.4816151  24.4584322  39.2844534
  65.6529188  23.8022518  38.6089444  66.1681366  24.3161702  39.9361300
  85.5791855  24.6185517  65.7463026  85.2319622  24.8940301  66.5947056
  86.1193943  25.3543663  65.4582453  91.0604095  63.5485029  59.4540071
  91.6572666  62.8001881  59.4586325  90.7742786  63.6210299  58.5434580
  84.5391273  52.8705168  40.4377508  84.4694424  51.9785404  40.0975275
  83.8119125  52.9488373  41.0552120  22.2363424 102.9859829  40.6938505
  22.7601099 102.6611423  39.9614692  21.6099668 103.5879421  40.2919340
  82.8839970  23.6922789  60.0065279  82.8177357  23.2888818  60.8720446
  83.5635376  23.1883097  59.5587826  88.2085419  70.0075054   8.2762313
  87.5253963  70.2526188   8.9003038  87.9825783  69.1157484   8.0117702
  72.3200226  50.4689264  41.8759251  71.7689180  51.2027693  42.1479368
  72.2585487  49.8429155  42.5974226  85.2844238  33.2602835  36.0965419
  84.9597168  32.5630069  36.6662765  85.0725937  32.9643488  35.2112269
  45.7011223  48.0568838  41.4244890  45.6944132  48.9964962  41.2419510
  44.7761440  47.8175211  41.4823294  45.8742571  22.3745990  84.4670582
  46.0473061  22.3972726  85.4082203  46.1634254  21.5048051  84.1912556
  66.7651367  70.4143667  49.1563940  66.0249424  70.7650709  49.6517229
  67.4603605  70.3103828  49.8060751  71.1652327  15.0899231  62.3892546
  70.6675196  14.2760992  62.3105001  71.9829798  14.8304403  62.8137445
  45.8769464  43.7583971  19.3432486  46.7894840  43.8765621  19.0795326
  45.3698015  44.0181160  18.5741043  40.5067015 107.6889515  47.4318123
  41.3025475 107.6377869  47.9611874  39.9969125 108.3927059  47.8331518
  67.5157452  42.9329062  55.1390266  68.0841255  42.4293423  55.7217741
  66.6446400  42.8551960  55.5280924  69.9825048  40.9455013  40.0270271
  70.4426956  41.7781925  40.1322889  70.2607870  40.6248283  39.1691494
  72.3275661  51.9296122  55.2860928  72.1933460  51.2768030  55.9731531
  73.2785749  51.9905043  55.1960468  52.2192812  38.2774329  43.3728075
  52.4528694  37.8315401  42.5586557  52.5462627  37.7013087  44.0637445
  99.8686600  67.8261471  42.8656387  99.4735527  67.1626282  42.3000717
 100.8045292  67.7813482  42.6697588  73.9880085  -0.0313943  58.9137220
  74.0098047   0.9228618  58.8419485  73.5915232  -0.3243065  58.0932140
  70.5629587  51.4398479   9.8618305  71.1940718  52.1584654   9.8229557
  71.0122108  50.7529116  10.3543043  62.7289915  64.5043564  58.5943985
  61.8924093  64.3750381  59.0412045  63.2076454  65.1155281  59.1543961
  95.2549648  37.8614902  17.1915293  95.4795551  37.3910570  17.9943264
  96.0841560  37.9396272  16.7197609  60.9461880  24.3537211  32.2120047
  61.3214970  24.7295952  33.0083060  60.1424646  23.9245987  32.5054574
  39.5632434  36.1842346  61.1577129  39.7834826  37.0024872  61.6028976
  40.4045200  35.7444835  61.0348082  63.6895514  31.7469621  27.2965336
  63.4685898  31.7163730  26.3656902  64.4343758  31.1523676  27.3855639
  58.8545418  43.8600254  42.1727800  59.3837166  44.1441870  41.4274883
  58.0745602  44.4137669  42.1377134  21.0976028  54.9475336  42.6898289
  20.5701041  55.1440430  41.9156456  21.1714935  53.9931965  42.6933765
  38.1833673  43.4492683  74.1674471  38.6403489  42.6902628  73.8050795
  38.6243820  43.6194801  74.9997759  76.3713503   6.7999256  15.5689263
  77.3244238   6.7553294  15.6456828  76.2160778   7.0590723  14.6606505
  81.9886971  19.1169333  29.1334772  82.6131344  18.7145805  29.7371459
  81.1301136  18.8919663  29.4918847  85.3012562  35.8647609  42.2399569
  84.4047451  36.1985373  42.2068691  85.8081055  36.5777922  42.6284361
  48.6363602  57.0242167   5.7274598  48.7227631  57.5479412   4.9309179
  49.0313053  57.5634336   6.4126551  91.3735294  58.4217691  32.0302415
  90.7392025  58.5933781  31.3342428  90.8658028  57.9864788  32.7150512
  73.7137365  38.7347031  36.7148662  74.4410706  39.3560886  36.7479587
  73.8101482  38.2979679  35.8685827  66.3912249  21.2874198  40.7166624
  67.2376966  21.3548827  41.1584425  66.3723612  22.0353818  40.1196432
  82.9928875  26.5729642  59.5460701  82.3400497  27.0182061  59.0058899
  82.6702690  25.6748176  59.6200991  63.3104658  39.5864820  56.1420584
  63.2541132  40.5191851  56.3497257  63.3077383  39.1507578  56.9943333
  64.0782499  24.4692969  51.4368439  64.1650105  25.0197363  52.2151232
  64.1616201  23.5743260  51.7659426  92.6339817  42.3052025   4.4262016
  91.7654133  41.9279909   4.2864299  93.0549049  42.2619152   3.5676059
 108.0545044  38.1529427  59.5122528 108.4884453  37.3785400  59.1541719
 108.3416748  38.8708305  58.9479828  68.7067604  50.6792784  26.2785172
  69.0880442  51.4138603  25.7976317  67.8852940  51.0232544  26.6293836
  69.9657536  17.3193169  18.8214278  70.5993176  17.3697603  19.5371664
  69.1323280  17.1294558  19.2522335 116.5804768  39.8684168  70.1976919
 116.9273281  39.3709159  70.9382439 115.6385231  39.9158192  70.3611279
  62.5491428  32.1503091  80.0187016  62.7288151  32.2745538  80.9506416
  63.4132242  32.0484161  79.6196938  74.3839741  67.2197962  51.5682411
  74.1132832  67.0767450  50.6613302  74.6290874  68.1444645  51.6020203
  81.3084221  12.2643316  37.3389339  81.3438320  11.3113022  37.2570157
  81.7994308  12.4544263  38.1383109  67.0635128  58.3172417   3.1378973
  66.2591839  57.8197289   2.9903755  67.3202181  58.6211872   2.2672939
 114.6851254  54.2546368  29.9485636 113.9358997  53.6842155  30.1203656
 115.4102039  53.6531544  29.7791505  63.2073259  82.7929211  56.2878704
  63.8093519  82.3232746  55.7106161  62.3814058  82.8163433  55.8046150
 113.2990742  59.9958754  69.1833448 113.6708069  60.5236101  68.4765673
 112.3548126  60.0187778  69.0281773  78.6906147  55.5050039  54.2217636
  78.4817791  56.4262152  54.3766403  79.3005276  55.2764750  54.9232006
  63.7176180  74.8222256  14.3026149  63.6103916  73.8783360  14.4201446
  64.6653318  74.9563217  14.2935181  79.9025631  51.5824223  41.3207054
  79.2288303  51.2298822  41.9021082  79.4673443  52.2965670  40.8550739
  70.9784603  49.2667723  39.7756457  71.3549376  48.4609461  39.4218850
  71.5986156  49.5451593  40.4495478 114.6276093  55.0816202  21.9719195
 114.3236923  54.7743988  22.8260159 114.8200512  56.0096693  22.1057963
 107.9883385  43.2853651  24.9753475 107.2964191  42.7276802  25.3309822
 107.8571224  44.1317654  25.4026890  75.0625324  36.7477322  46.7369175
  74.2794943  36.8824458  47.2707033  74.7299671  36.4134216  45.9039307
  62.8468275  68.5829687  59.1850185  63.2207584  68.7165642  60.0559759
  61.9003916  68.5828018  59.3281507  97.2922707  14.6813095  26.3878798
  96.8433094  15.2329314  27.0284843  98.0162334  14.2885506  26.8755841
  65.2691174  40.9289074  54.2551470  65.2469587  41.5177250  55.0094891
  64.5421219  40.3238487  54.4021606  74.9710417  64.3468761  11.0120249
  75.4789877  63.5459900  10.8824003  74.3591833  64.3641806  10.2761173
  78.3497143  58.2781458  62.7290392  78.2503319  59.1263437  63.1613731
  79.2863655  58.2124138  62.5430298  96.6190434  29.0007806   9.6760732
  96.2005901  28.7877798  10.5101943  95.9405708  29.4555426   9.1769755
  70.0950956  81.1477661  43.2676697  70.8859777  81.6168213  43.0017138
  69.9426699  80.5170155  42.5640011  80.1418114  65.8213949  42.2284412
  81.0786152  65.9832287  42.3399830  80.0655556  64.8677540  42.1971083
  73.7451124  36.8009400  38.8432074  72.8074360  36.9840050  38.9022255
  74.0771532  37.4494672  38.2224059  84.3927479  39.5976257   8.4506136
  84.9444485  40.0243664   7.7950639  83.6047459  40.1396084   8.4899789
  79.1206503  53.8200951  39.8160386  78.1739902  53.6860991  39.7700596
  79.4031572  53.8488388  38.9019299  92.7289295  36.0557914  33.3899307
  92.0298004  36.4471865  33.9136410  93.3549213  36.7674279  33.2559896
   1.2464667  35.8049417  72.0354891   1.2308075  35.1313519  71.3555861
   0.9658850  35.3502035  72.8296661   6.0577625  50.7046604  61.3995647
   6.3758790  49.8567533  61.0895824   5.8461308  51.1876869  60.6007385
  87.9235268  32.4351120  33.2648420  88.1642246  32.7772093  34.1258097
  86.9977379  32.6584816  33.1686234  58.7966585  40.0598907  50.9126186
  58.4960651  40.9471321  50.7159424  58.3212662  39.8165250  51.7069769
  85.3986454  52.5525522  36.5607524  86.1809921  52.6091576  37.1093512
  85.5611515  51.8026686  35.9884787  65.1773262  67.7199125  35.9205675
  65.6327152  67.7436972  36.7621636  65.2293015  68.6184120  35.5946374
  94.3914032  47.0582342  52.5241566  94.9916172  46.5377617  53.0580854
  94.9527168  47.7005291  52.0898676  76.9843102  27.6572537  23.6172938
  77.3244572  28.1539750  24.3614721  77.7430391  27.5291133  23.0479574
 100.5335426  71.5836620  53.6246014 101.0612679  72.3802996  53.5688972
 101.1005402  70.9511232  54.0657759  64.2747831  22.4181223  29.8604321
  63.8582468  21.6476941  29.4742036  63.5894775  23.0863929  29.8600698
  81.6293335  34.2336226  34.3081760  81.6995239  33.3920717  33.8575149
  80.6907940  34.3477297  34.4576478  69.1009045  41.1980057  36.3018298
  69.7765636  41.8637276  36.4303780  68.6623096  41.4553547  35.4908800
 101.3794708  29.9271083  82.3024082 100.5872059  29.4164944  82.1356392
 101.0900688  30.8385801  82.2612572  46.5805578  64.2486477  13.6961627
  46.5999269  63.5830116  13.0085719  47.3410273  64.0506315  14.2427063
  72.3466635  51.9774008  67.9837036  73.0739784  52.3245001  67.4672127
  72.3481369  52.5036097  68.7832880  90.3221989  59.0720367  46.2674713
  91.0892773  58.9303589  45.7127142  89.7047520  59.5419693  45.7069731
  78.3579445  76.9543552  86.2518883  78.8002396  76.6545057  85.4577255
  77.6488972  76.3249063  86.3833427  57.5682211  26.1178803  80.6977272
  57.5213528  25.1819921  80.5024147  58.4688520  26.2565947  80.9907341
  73.6690855  71.9127274  43.2517767  74.1933060  71.3682652  42.6644230
  74.1466999  72.7408075  43.3007765  84.9709034   9.0455496  37.1752334
  85.0455952   8.6850262  36.2916732  84.7059917   8.3014435  37.7159357
  73.8522482  49.0072489  46.0598755  72.9189730  49.2075682  46.1312771
  73.8849878  48.1960678  45.5527735  95.9918976  48.6567831  50.0476265
  96.7672825  49.0512323  49.6483612  95.2754879  49.2468405  49.8134947
  73.6384630  46.6828251  58.5463858  72.9742098  46.8588066  57.8800297
  74.4634819  46.9432211  58.1367922  89.9796963  63.2978773  23.9156699
  90.8421898  62.9212666  24.0903187  89.8182869  63.8809586  24.6574259
  94.3215466  67.5224352  10.6032538  93.5035038  67.3805523  10.1269186
  94.1206837  68.2265425  11.2197876  11.5677977 102.0103550  34.7226715
  11.6746247 101.8828487  33.7800360  11.9083023 101.2055779  35.1133370
  75.9522724  39.5569634  46.7136288  76.7323351  39.2695713  46.2391424
  75.5011129  38.7455297  46.9465733 101.5871620  47.3027658  44.5061159
 102.2829247  47.8789520  44.8225641 101.9459915  46.4202929  44.5994663
  90.3135490  37.9751635  51.2463713  90.9377384  37.8690076  51.9642496
  90.3723812  37.1559834  50.7547235  68.8064528  66.6569376  38.2361150
  69.2906666  67.3213482  38.7263513  69.0807295  65.8258820  38.6238742
  72.5713158  69.8219442  39.9155426  72.0101357  69.0483189  39.8624754
  73.0519056  69.7133780  40.7361984 105.3322601  40.6020880  70.6275272
 104.8133945  41.2149239  71.1485291 106.0792446  40.3859425  71.1856651
  57.0009995  25.4369879  18.9000809  57.7471352  25.6310821  19.4673860
  56.6314459  24.6298647  19.2581511 104.3973637  37.7743268  70.9977579
 104.7048569  38.6560082  70.7872534 104.1454124  37.4005604  70.1533318
  68.0122471  72.8795147  55.3643036  68.0773258  72.1307611  54.7715425
  68.4190655  73.6009502  54.8844433  97.6327705  14.0025401  66.1415100
  97.2994041  13.8633633  65.2550983  98.3919621  14.5737445  66.0249472
  11.9963217  47.8356791  42.4598360  12.4619448  48.4868765  42.9845905
  12.5260317  47.7429676  41.6679764  74.3156290  57.4510717  36.6120768
  73.6764956  56.8183708  36.9398475  73.8757706  58.2977152  36.6892076
  97.3791599  75.8984423  47.7367210  97.0854950  76.5586519  47.1089363
  98.3290577  75.8658361  47.6232815  23.5141087  44.2607260   1.4819850
  23.4014773  44.3908978   0.5403897  23.5667658  45.1462460   1.8415855
 100.5019379  55.9774208  41.7415857 100.1974297  56.0257959  42.6477671
 101.0786343  56.7348719  41.6419506  86.4427948  60.3173208  36.9921684
  86.6630459  59.4665241  36.6128778  85.5058289  60.4188538  36.8247700
  63.9919853  68.4520531  18.0272305  63.0436087  68.3437586  18.0985796
  64.1236639  68.8484621  17.1659791  91.3685036   6.9800115  30.7931709
  92.2030163   7.3605144  30.5192494  91.5093136   6.7250824  31.7049909
  57.1524477   1.1321863  30.4544497  57.5021935   1.0186070  31.3381982
  56.8276453   2.0324662  30.4392767  73.9567184  67.2687292  32.0067406
  74.1735077  66.3711834  32.2590303  74.7573900  67.7651691  32.1761441
   0.4820023  67.9875278  87.6437759  -0.3926505  67.6571846  87.4386215
   0.7293568  67.5281954  88.4463120  56.8543100   5.7273155  48.1008339
  55.9064722   5.6451362  48.2061386  56.9768333   5.9102458  47.1693039
  56.3898897   1.4260833  93.8641453  55.7886314   1.1136988  93.1880283
  56.7390871   0.6282443  94.2613125  66.9400692  68.8362741  55.7224321
  67.2369814  67.9274654  55.6761265  66.4853525  68.8971758  56.5625238
  74.8298264  38.8416171  16.3974273  75.0845480  39.6869183  16.0275435
  75.5234623  38.2415390  16.1235535  86.8442535  68.2033300  37.0645308
  86.6190815  67.5772572  37.7526927  87.2513962  68.9342308  37.5295544
 102.4732590  39.1267085  52.4532795 103.2784557  39.3398905  52.9249096
 102.6495647  38.2764721  52.0504808  60.4190159  36.3729143  58.2326078
  60.2720118  35.4766345  58.5347700  60.6878233  36.2766051  57.3189878
  83.7467861  77.1576405  38.3145165  83.8826275  76.2235355  38.1556749
  83.5402107  77.2143936  39.2474365  73.1605148  65.7026291  39.9111915
  74.0655327  65.9773779  40.0584364  73.2070112  64.7486162  39.8484898
 102.1398354  54.7526455  34.1724229 101.6170883  54.7204256  34.9736309
 102.6328373  53.9321709  34.1749358  87.9336643  83.0379391  53.1889343
  87.7453995  82.9693413  52.2529459  87.1781445  82.6336002  53.6154747
  75.9922695   3.9994425  30.2545905  75.3040743   3.3352491  30.2929115
  76.3833857   3.8893637  29.3879056  79.8702288  57.9214621  40.9778214
  80.0195217  58.5878706  40.3071165  78.9472723  58.0196714  41.2117815
  89.4628239  58.0175829  57.3584175  89.9222469  58.3546257  58.1275463
  88.5981560  57.7694750  57.6855612 101.9993687  62.7655363  43.7635994
 102.7323151  63.2148647  44.1844559 101.4045715  62.5521278  44.4825649
  81.4765549  78.0080271  33.2775044  82.2393131  77.4725151  33.4958339
  81.1678696  77.6560736  32.4425960 109.1809559  32.7006936  69.2537546
 109.5882225  31.9302082  68.8578844 109.5841503  32.7666068  70.1193905
  96.4039703  90.0352359  93.3655585  96.2906070  89.0955830  93.5084986
  96.0561271  90.4419136  94.1591893 102.6717567  78.8755846  63.2636976
 101.7339039  78.6843681  63.2534885 103.0240345  78.3100367  63.9509296
  95.7310295  53.2971334  54.1197777  96.0448456  52.4867582  53.7184668
  95.5959415  53.0718994  55.0402403 104.2138195  61.7301655  58.8905382
 104.6829700  62.5511074  59.0394640 103.8540268  61.5010643  59.7474480
  84.6399021  61.3695717  61.3107395  84.5978069  62.2861147  61.5835047
  85.5048370  61.0744476  61.5953970  49.6176910  36.2358189  41.9798946
  49.7831488  35.5276346  42.6022530  48.6668777  36.2404799  41.8696022
  90.2127266  40.7266092  38.7838292  89.6746063  39.9351501  38.7996769
  90.2280331  41.0240841  39.6935010 104.2674160  48.7957859  59.2894554
 103.6968422  48.0359125  59.1742659 105.1425838  48.4728622  59.0749073
  91.8264771  49.9322987  51.0228300  91.3741684  49.3339348  51.6174841
  91.4963150  49.7019625  50.1543999 107.3058319  29.9780607  24.8284268
 107.4502277  29.7995591  25.7576847 107.3250961  30.9327674  24.7621107
  80.4170132  45.8352137  44.8763466  80.8637047  46.0458803  44.0563965
  81.1222649  45.6033611  45.4805851  83.4150600  61.0155439  22.3856378
  82.7507687  61.3127041  23.0074453  84.0664577  60.5688190  22.9263330
  76.4864159  68.0951643  43.2172632  77.4157381  68.0328083  43.4379530
  76.0346937  67.7268648  43.9765596  91.8106365  37.8879023  47.8467131
  91.6860485  37.1202779  48.4047985  91.1161423  38.4913349  48.1108618
  87.7047634  62.7659273  43.7563467  87.0775795  62.0618343  43.9210081
  87.2072697  63.4198713  43.2653427  76.9516182  60.4027414  37.8043342
  76.6304016  61.2942505  37.9394770  76.5042925  59.8831558  38.4722900
  46.0642910  16.2152088   9.4426012  45.5150557  15.8684313  10.1456797
  46.4950943  16.9776154   9.8290962  13.9409423  97.9014301  93.6611271
  12.9874969  97.9476070  93.7321281  14.0978289  97.4565887  92.8282166
  95.9499073  29.6639419  48.7739468  95.2936840  30.1728177  48.2978773
  95.5575848  29.5118260  49.6337032  69.4157887  67.4866772  42.4569702
  69.4111872  66.5325642  42.3803043  70.1623392  67.6777411  43.0247641
  81.6955662  51.3686228  58.7442875  81.3652039  51.4596939  57.8505278
  82.0656013  52.2267485  58.9514589  56.9256830  38.2819819   8.0406648
  56.3110924  37.8902698   7.4201232  56.6589975  37.9362583   8.8924789
  82.9219341  41.3740778  40.3719234  82.2628784  41.7329168  40.9661531
  83.6663532  41.9705057  40.4515839  60.1905012  87.3341942  45.2573633
  60.1020050  86.6996288  44.5462132  61.1349154  87.4590015  45.3508520
  12.7626777  30.5180097  23.5507536  11.9238973  30.7473969  23.9508319
  13.3150220  31.2863040  23.6952209  93.6550331  49.1952705  44.0203810
  93.4422016  49.7789240  44.7485828  93.0566502  49.4572353  43.3206987
  71.0136747  54.3060446  60.8446741  70.7263470  53.3985138  60.7443333
  71.4296579  54.3316889  61.7063761  66.7731047  77.0028639  61.0230255
  67.6179361  77.0981216  61.4628124  66.5514994  76.0775852  61.1278486
 106.4986038  58.0291557  39.9846244 107.1968460  58.6574507  39.8004222
 106.2314606  57.7085924  39.1231680  60.4048586  30.4946589  41.3362598
  60.4261732  30.4479861  42.2920847  60.5827332  29.5991683  41.0487080
  63.1344366  39.2194057  30.7969213  63.5644341  38.9805150  31.6180587
  63.8547993  39.3891048  30.1898694  77.7609205  46.3199472  52.4140215
  78.3925629  46.6933918  53.0286741  78.0005217  45.3949881  52.3567867
  89.4783688  70.1420689  63.2391739  89.6519470  70.8734226  63.8318205
  88.7879944  70.4627323  62.6588297  51.0113049  37.8786945  46.1747742
  51.3113689  36.9769239  46.0607529  50.0800896  37.8508568  45.9550095
  58.0531168  62.2150278  20.6649089  57.3712778  61.6712379  20.2704191
  58.8536930  61.9690228  20.2014518  89.7230434  57.2837210  33.8951159
  88.8553619  57.3745203  33.5012841  89.9202156  56.3494968  33.8274407
  70.3156281  35.4431200  40.7277298  70.4149294  36.2591219  40.2373123
  69.8633957  35.7001209  41.5312672  88.4348774  97.9773712  49.4729757
  88.8838673  98.5303974  50.1123524  87.8952217  98.5852814  48.9675570
  79.8271513  17.3272288  61.9166851  79.6402979  17.9211056  61.1896181
  79.5302916  17.7998412  62.6943398  71.6834402  66.0199022  57.4173594
  71.3002968  65.4682112  58.0993176  70.9302139  66.3767481  56.9466734
  67.2319317  18.5730839  31.1491537  66.8107033  18.8158226  31.9736981
  66.6897869  17.8643203  30.8027983  84.7641468  69.4917822  50.7733440
  84.7210979  68.5362864  50.7358599  85.5820179  69.7123623  50.3276253
  76.9945478  85.1230049  16.6581368  76.6838312  85.1815033  15.7546639
  77.4481297  85.9521961  16.8095887  83.6651516  54.2118692  26.4898467
  84.4818497  53.8760328  26.8592334  83.9357662  54.6914291  25.7068872
  80.1532936  42.2850227  51.9679976  79.3823433  42.7287722  52.3214912
  80.8936882  42.8025961  52.2844839 107.4219513  32.8154373   1.3095644
 108.0421066  32.5239015   0.6412449 107.8026199  33.6236334   1.6532834
  29.3199277  44.7936726  44.7423983  28.9807582  45.2569151  45.5082941
  28.6186624  44.8573303  44.0940094  80.7095909  66.3471889  36.3659668
  81.2701607  65.8519363  35.7687044  80.8661079  65.9526205  37.2238994
  78.9685059  85.4283714  39.9129081  78.7285805  86.3391685  39.7422886
  79.5353794  85.4702568  40.6830549  86.7583561  20.2157235  80.7559967
  86.6434193  19.9362791  79.8477364  86.9488049  21.1518836  80.6962776
  11.5515232  23.2403922  88.8762188  10.9200370  22.7805161  89.4293594
  11.6756988  22.6626587  88.1231976  73.3709669  42.1012068  35.3387380
  73.7853718  42.9313087  35.1033044  73.9556313  41.7187166  35.9930325
  65.6408548  34.4573712  46.2422419  64.7464657  34.7843099  46.1452579
  65.7114744  33.7569284  45.5936861  78.7692881  78.6192942  24.9340987
  79.5160294  79.1653919  24.6883583  78.4690857  78.2385921  24.1087675
 109.7861099  35.5913782  83.7649536 110.3182697  36.0913301  84.3838978
 110.2541447  34.7628593  83.6613750  77.1091843  60.4421997  56.1605406
  77.0247555  60.6404400  57.0931721  77.1167755  61.2987471  55.7333374
  90.7550430  85.7453823  42.5131750  90.1105118  86.3294601  42.9127598
  90.2314472  85.0998783  42.0384169  74.9112797  22.6157999  34.2870331
  74.3893528  21.8247509  34.1526246  75.3518629  22.7572966  33.4491205
  78.5417604  59.3199158  47.2457266  79.0883684  59.2398930  46.4640284
  78.9621019  58.7515783  47.8911209  80.5945683   8.7207264  20.8029485
  79.6712828   8.5063076  20.6695509  80.7685184   9.4275928  20.1814079
  91.7282581  75.8878326  13.4195185  92.5437069  75.9996414  12.9308653
  91.9934559  75.9203577  14.3386734  78.0504799  58.0800724  31.8416619
  78.2325745  58.7774706  32.4715137  78.7326670  57.4281216  32.0023060
  89.3671608  38.2653308  42.8713608  89.7999668  37.8983808  42.1004772
  89.6551037  37.7090955  43.5951900  64.5860243  30.7859993  53.4858704
  64.0805864  30.9754324  52.6953745  64.6352100  29.8305225  53.5154724
  98.1659126  55.1752949  35.4059815  98.3844757  55.0045252  34.4898486
  97.2091579  55.1985168  35.4236460  92.1846962  30.9136462  21.4967227
  92.2376442  31.4404917  20.6993127  92.2918415  30.0114870  21.1952901
  78.8484526  41.4340448  58.8972139  78.2740259  41.1507988  59.6085739
  78.6293173  42.3564291  58.7652397  76.0868120  84.4045067  25.0418353
  76.9671679  84.7389221  24.8704481  75.9311104  83.7702084  24.3420815
  71.9894171  71.1812305  35.7474494  71.6327715  71.7909288  35.1014566
  72.0634937  70.3506231  35.2775121  62.1225929  62.6817799  36.4043736
  62.5322199  61.8297052  36.2546754  62.4458456  63.2316303  35.6906462
 107.5701809  79.3198490  72.7360821 108.0439281  78.8653421  72.0395088
 108.2555676  79.6388960  73.3231783  76.5733576  40.0973988  52.8270674
  77.1060848  39.5208001  53.3747578  76.5344715  39.6541023  51.9795942
  79.1265392  63.4677982  52.0561504  79.6016455  63.2683659  51.2494707
  78.4759188  64.1198874  51.7959499  76.8718958  53.5976553  37.6907778
  76.6798019  53.2012033  38.5405755  76.8028355  52.8741693  37.0678592
  76.0509920  66.1663151  48.9983654  75.3910351  65.5052042  48.7895060
  76.6349363  66.1697817  48.2399273  85.5502892  51.8837214  43.6829329
  84.9444962  51.9620705  44.4198942  85.2753639  51.0861731  43.2306433
   5.1472300  31.8502688  24.0912628   5.9779745  31.4482260  24.3451500
   4.9036694  32.3914838  24.8422599  78.9025211  21.5306807  50.2445364
  79.6129322  21.0388398  50.6564093  79.3445730  22.2185016  49.7468185
  55.2383041  32.7479696  24.1444087  55.0322914  32.6583815  23.2139444
  55.1938677  31.8551326  24.4866061  81.1047077  68.2965136  54.0358591
  81.5171337  68.4445620  54.8868656  80.1918793  68.5545206  54.1639662
  79.6420050  70.1597404  39.2790127  80.5402184  69.8366213  39.3500543
  79.4360113  70.0916576  38.3467245  74.4734812  34.6325111  50.7215500
  74.9112558  35.3342128  51.2034225  73.5712576  34.6494150  51.0408211
  57.9671001  20.4462409  32.0029068  58.8930368  20.5136466  32.2359896
  57.5567198  20.0408983  32.7667904  66.8536425  74.5862818  85.0125980
  66.8105316  74.7463751  84.0698719  67.6049948  74.0034962  85.1224613
  96.5811825  76.9539738  33.0725002  96.8940639  76.1254692  33.4356999
  96.8392467  76.9242811  32.1512222  92.3589611  57.4931955  19.2161000
  93.0786896  58.0193996  19.5644367  91.6487408  58.1199980  19.0785074
  88.8792038  69.7808790  25.8704162  89.0392971  69.0542412  26.4725804
  89.0827751  70.5644512  26.3811088 113.8333225 101.1948776  25.4003119
 113.3797359 101.4369106  24.5929027 113.7058830 100.2489281  25.4722834
 103.0591583  35.4861569  29.4862485 103.2890511  35.2711821  30.3902221
 103.8561440  35.8707905  29.1214204 104.5912075  59.0261078  55.7299948
 104.6327496  58.0756521  55.6244326 105.0951481  59.3712044  54.9929857
  66.7587948  29.5044756  39.9016380  65.8129120  29.6484756  39.8733640
  66.9932795  29.6330976  40.8207178  80.8514214  71.8324423  69.3225718
  80.4393673  71.8093777  70.1862335  80.3993988  72.5382900  68.8603115
  80.2814484  42.0290375   1.2981726  80.6309223  41.7493486   2.1442662
  80.7368755  41.4819384   0.6582478  75.8013773  42.7534628  51.5672445
  76.2405586  41.9119167  51.4441538  76.2405777  43.1446362  52.3224354
  95.0018692  76.5873051   3.1955320  95.5768108  76.1637688   2.5581208
  94.1212845  76.4693308   2.8393164  75.0728941  73.7624311  49.8299360
  75.8536005  73.3800268  50.2305555  74.8594379  74.5104837  50.3876877
  82.1403885  60.4932880  30.4051733  81.4853859  61.1099005  30.0780702
  82.9000187  60.6278086  29.8385215  81.5640068  18.9079607  41.7039204
  81.8894958  19.5148695  42.3687172  80.9707355  18.3269119  42.1799850
  71.4801645  26.2761927  31.0104918  70.5576324  26.0430789  30.9064436
  71.4639568  27.1612406  31.3747168  73.0241919  46.4123344  52.2770405
  72.5361443  46.4104223  53.1004715  72.3703766  46.2010860  51.6106081
  61.2274408  82.8808880  46.3034344  60.8813190  82.1066093  46.7471933
  62.1710110  82.7274132  46.2549734  76.8083620  51.3116932  36.1257529
  76.6040993  51.3517094  35.1914597  76.4832497  50.4559851  36.4055681
  88.1292629  35.4115105  33.0325937  88.1505680  34.5959449  32.5319600
  88.8287258  35.3142452  33.6787581  89.4166851  54.7970772  46.8562508
  89.4486332  54.0416908  47.4432802  90.2292061  55.2715683  47.0320606
  78.6411333  87.5315571  49.3868637  78.6735821  87.4583817  50.3407097
  79.4324923  88.0185127  49.1569471  92.3992538  24.9723101  20.2768302
  93.1251240  24.3565178  20.1761675  92.1502590  24.9004817  21.1982822
  93.7408257  96.7480087  22.5484419  93.2248688  97.1799469  23.2292151
  93.4561062  97.1615601  21.7334962  79.1665888  39.0530515  46.0252094
  79.0565109  38.1483459  46.3178253  80.0186443  39.3154693  46.3736057
  80.0940704  69.8076248  44.9071121  81.0254955  69.7789621  44.6883488
  79.7922516  68.9070892  44.7880554  87.5411320  32.9900956   8.0261749
  88.3392811  33.4446788   8.2955134  87.6569366  32.8381658   7.0882308
  72.5439882  40.6122828  31.2836051  71.8651915  40.9330130  30.6897998
  72.7735710  39.7485852  30.9407473  81.5351963  49.3743992  26.4182591
  80.7815170  49.2800522  27.0007539  82.2721004  49.5429802  27.0054412
  89.0200901  55.4299641  19.5331514  88.5966301  55.2475977  20.3719926
  89.8334312  54.9260426  19.5608807 110.9924889  61.2702847  59.6751404
 110.8147430  60.7075930  58.9214706 110.1804256  61.2557983  60.1816702
  84.0807629  45.6257010  49.8416662  84.5133209  45.4567337  50.6786680
  83.1460857  45.6087780  50.0473833  12.7266073 107.3373508  62.4121809
  12.3575628 108.2157612  62.3203373  13.6740255 107.4721527  62.3907948
  70.0512028  66.8023014  25.1570201  69.8842430  67.1255207  26.0423923
  69.5503283  67.3883724  24.5896721  93.8468075  69.2232800  48.7708855
  94.3531418  68.4153986  48.6861420  94.2366314  69.8185444  48.1306314
  89.2725277  52.0612526  47.4801111  88.6579132  51.4487934  47.0759249
  88.9698315  52.1424675  48.3845520  73.2160997  29.1678262  47.5573111
  72.5124550  28.8782144  48.1380367  73.5954332  29.9266696  48.0005932
  64.2865562  58.2497406  63.9100552  65.1114941  58.7283611  63.9914846
  63.6502790  58.9129257  63.6425352  65.2571964   1.6347082  37.4774981
  65.7907820   2.0737624  36.8151116  64.3904829   2.0309970  37.3881078
  56.6169310  81.8815517  66.8250418  56.6814613  81.6981983  65.8877850
  56.9185829  82.7856541  66.9135523  77.9302597  45.6618595  43.8398457
  78.2877016  45.5362654  42.9608154  78.6198521  45.3496218  44.4256830
  86.6044426  53.0756712  53.4427404  86.6064835  53.9212894  53.8912344
  87.2340393  53.1813097  52.7295160  61.1858606  15.7352662  76.9013739
  61.4490652  16.6212809  76.6525126  61.8362761  15.1672864  76.4883471
  95.2291298  83.6891651  74.5147610  96.0656357  83.6272240  74.0536022
  95.4027081  83.3123207  75.3773689  89.2168427  75.9110403  65.0345850
  89.8330593  76.6425657  64.9972391  88.3804035  76.3141108  65.2672291
  85.1836967  93.4314919  93.5358906  85.1512241  93.6074829  94.4762135
  85.1583576  94.2975807  93.1291103  93.6642265  51.3402271  56.9860411
  93.0271530  52.0307970  57.1690369  94.5033455  51.7973089  56.9295931
  90.2704430  89.3008804  60.5223513  90.0083733  89.4084454  59.6080303
  89.7757912  88.5394573  60.8253050  87.0258427  97.7075195  38.8369632
  87.4299335  97.0255280  39.3734694  86.1346340  97.3942280  38.6826277
  45.2593756 105.5106926   5.2841371  45.5570030 106.2647343   4.7751349
  46.0500717 105.1847172   5.7139874  99.3489075   0.4086952  53.3940220
 100.0675106   0.7630856  53.9177132  99.4067478  -0.5386807  53.5179806
  91.8838310  52.3910618  51.8359852  91.6992378  51.5261078  51.4699030
  91.6006660  52.3304081  52.7483320 104.5581055  76.9305706  22.3163557
 104.4884872  77.2079325  23.2298398 104.2664146  77.6903296  21.8124604
  98.3923912  44.0630102  24.1870856  99.0919018  44.3388891  23.5947967
  98.1862545  43.1689644  23.9142752 106.1716175  72.3041916  34.4305801
 106.2511158  72.1565723  35.3729820 106.8208122  71.7186356  34.0408254
  10.3875828  81.5265846  27.9462433  11.2197137  81.0539150  27.9655075
   9.9027652  81.1286354  27.2231817  81.6876602  60.0172758  51.4510107
  82.4461269  59.4387293  51.5301085  81.6008568  60.4180002  52.3159456
 105.4705238 101.9356251  70.7945776 106.2165260 102.0486164  71.3835955
 105.4824543 102.7160835  70.2405262  88.8228607  47.7587891  46.9636393
  88.2726669  47.0960808  46.5461016  89.6652889  47.3233414  47.0937872
  15.7635462  52.0839691  31.7603970  15.7912815  51.6044283  30.9324455
  16.4040124  51.6397715  32.3160267  57.1163273  55.4583216   4.5706439
  56.4977598  54.9253702   5.0702137  57.9092264  54.9241590   4.5236388
 114.7269344  60.7506895  66.7908955 114.5121956  61.6832829  66.7711592
 115.5564594  60.6858444  66.3176966  77.2912836  54.3202496  29.1728282
  77.8595448  55.0743723  29.0159607  77.4565792  53.7375116  28.4316635
 116.3690948  85.5672169  38.0831718 117.1310425  85.7544613  37.5348973
 115.6503677  85.4490566  37.4621272  63.1528378  89.7089863  11.0216618
  63.3859921  90.1661301  10.2136421  62.2613430  89.3949699  10.8704937
  88.5594177  95.2198696  43.7484789  89.4752979  95.0802708  43.5078192
  88.3373260  94.4651318  44.2937088  71.3738108  57.5254726  57.4055862
  71.7641926  57.8575897  58.2140017  70.5073690  57.9310608  57.3737669
  27.9835582  36.5634871  45.2676249  27.2050142  36.3159752  44.7687864
  28.3227730  35.7358408  45.6084538  92.1125221  64.7512245  35.0687599
  91.6348267  64.6833992  34.2420602  91.7172146  64.0835619  35.6292844
  67.5305986  90.4416943  62.1872950  67.8074598  89.9072933  62.9316044
  66.7829132  89.9707794  61.8192816  76.7958450  57.2728157  48.5632229
  77.2873926  56.4664412  48.7193441  77.4000263  57.8305483  48.0731964
  84.0771294  65.5215740  65.8840799  84.7263336  64.8531723  66.1031818
  83.3009434  65.2756548  66.3873672  80.2092838   2.1547517   3.1561151
  80.1783371   2.2018020   4.1116568  79.5608473   2.7952364   2.8636456
   6.4811736  83.6721706  69.6038294   7.2494024  84.2403507  69.5470858
   6.8402636  82.7850914  69.6231699  72.4432278  60.2597046  44.5235825
  72.7339697  59.3556833  44.4033766  71.4885473  60.2012920  44.5610666
  61.7250729  74.9372149  65.3276825  62.5757360  75.2037907  65.6763124
  61.1558819  74.8890400  66.0957527 106.0895348  70.3935766  39.0003562
 105.2860928  69.9564791  39.2825961 106.7939377  69.8696947  39.3819332
  80.3366566  44.9456263  21.0615849  80.2805805  43.9910221  21.1042047
  80.1621628  45.1550722  20.1440239  88.8879108  75.0836658  45.4663038
  87.9486275  74.9752569  45.3172302  88.9662552  75.9392166  45.8883619
  91.1155701  66.4671040  52.5561190  91.5768337  66.3016415  53.3783627
  90.2780819  66.8458462  52.8233290  74.8076487  60.6694031  21.4845562
  73.9484787  61.0913658  21.4874768  75.1983833  60.9274530  20.6497097
  85.0095749  85.4295063  61.2916183  84.4099903  86.1476707  61.4939928
  85.0273609  85.3946304  60.3352165  81.6849709  77.6447058  48.1152725
  82.0687008  77.5116825  48.9820433  81.4810944  76.7622280  47.8056002
  69.2393541  53.0376434  24.8167610  68.5106897  53.6493921  24.7116661
  70.0225115  53.5763931  24.7043228   0.8597728  61.3231897  63.6676979
   0.2378650  60.5969858  63.6220217   0.5612551  61.9367552  62.9963875
   9.0549392  62.1959496  56.1740541   9.9248838  62.1002436  55.7864094
   9.0442479  61.5680933  56.8964911  10.7574046  77.6663351  35.5306602
  10.8436096  78.0957365  34.6795344  11.3282001  76.9002390  35.4713321
  87.3647690  60.7177877  61.5552568  87.9257202  61.4841986  61.6743708
  87.4967766  60.4640055  60.6418037  99.3938732  90.7281113  28.9740014
  99.5103359  89.7807598  29.0460277  99.8863697  90.9710503  28.1899953
  72.9233980  50.0701189  52.2271395  73.4883308  50.6020451  51.6666651
  73.4902000  49.3638420  52.5372028 104.8708725  77.0724392  24.9423718
 104.9593353  77.5594425  25.7616615 105.4326534  76.3060236  25.0574589
  95.1683140  64.0298033  85.9680080  95.4680061  63.7979126  86.8470097
  95.2409744  63.2168531  85.4679489 100.3521824  72.6248980  61.5408659
 100.5684662  72.9361629  60.6619072  99.6870708  71.9512033  61.3994646
 101.9671345  70.2140331  57.0854902 102.1877480  69.8956156  56.2101793
 102.5833607  69.7666597  57.6654577  74.9079466  50.3566074  13.1788623
  74.4382954  51.1405754  13.4635592  74.5991802  49.6661520  13.7655187
  92.0849705  66.3026905  55.0420141  92.3378849  65.4590368  55.4168606
  92.5703812  66.9482136  55.5557299  89.6733952  83.2665920  72.1740866
  89.5326710  82.3291588  72.3069239  90.0247192  83.5766888  73.0087376
  95.0464058  72.1537828  48.3310890  94.1960239  72.3875380  48.7031460
  94.9805927  72.4014759  47.4088383  64.1778994  54.1312313  23.3836341
  63.8755369  54.6731138  24.1124463  63.4811687  54.1976166  22.7306509
 114.1899681  74.6687889  24.7169971 114.8465824  75.3257561  24.9482512
 114.2203236  74.6259117  23.7612414  98.1215191  72.3409414  34.5213437
  98.8250160  72.8821087  34.1629219  98.4973812  71.9516373  35.3109026
  91.6836739  65.0383091  30.5482244  92.3945141  64.7670364  31.1290407
  91.2448788  64.2218781  30.3092170  89.1203022  44.6788120  33.2296228
  89.2416382  43.9315081  33.8153315  88.2344532  44.9890041  33.4174776
  -0.1192233  61.9359016  45.4723406   0.6442416  61.6604757  44.9649000
  -0.4276795  62.7270842  45.0306177  94.9952126  81.8864441  51.0984373
  95.8924675  82.1804142  50.9411573  94.7046185  82.3976231  51.8537474
  92.2648144  66.8282652  45.7567883  92.0986080  65.8857536  45.7399464
  92.9746151  66.9575787  45.1277447 103.4302998  63.2350588  31.4151907
 104.2612171  63.0287647  30.9871292 103.6013508  63.1010485  32.3473978
  68.5682869  75.3240919  57.6201057  68.0565310  76.1127520  57.7999687
  68.1812382  74.6538115  58.1832695  13.0123556  24.5388246  33.7656975
  12.1878195  25.0209928  33.8280511  13.0500042  24.2454553  32.8553414
  85.1459217  58.7961864  45.4971600  84.2616749  58.8368845  45.8614111
  85.6939983  59.2323923  46.1495161  88.5667133  92.7892590  40.0678539
  89.2934036  92.7293110  40.6879902  88.2826233  91.8836880  39.9435210
  63.1376362  74.4928980  34.3222404  63.5183001  74.0349627  33.5728288
  62.7084255  75.2592611  33.9418459  92.5398827   7.6602882  82.0141029
  92.6459026   6.7241687  81.8447685  91.6141129   7.8315920  81.8413734
 108.5819340  52.4918318  77.3354626 109.0170288  51.6487789  77.4627066
 108.9833736  52.8515720  76.5444756  71.6313219 103.1574440   4.4137779
  71.4802408 102.8169155   5.2955055  72.3216915 102.5989819   4.0563720
  11.7238629  72.9331160  39.2348528  11.2390733  73.6423588  39.6569657
  12.6417589  73.1952381  39.3054819 112.4779224  77.7069092  17.6821780
 111.8539047  78.3858252  17.9388964 112.9025936  78.0558777  16.8985248
  83.0258465  67.2002411  37.9552054  83.0669880  67.9470062  37.3578119
  83.3323765  66.4587641  37.4332094  87.9261303  67.8579807  78.4287310
  88.2269859  68.4538031  77.7426481  87.4426270  68.4173536  79.0366507
  22.3104453  34.5905685  40.9224176  22.5308871  33.8528919  40.3536749
  21.3783002  34.7427106  40.7668924  60.4683495  74.8727989  71.5391207
  60.2660322  74.7130871  72.4609613  59.6152973  75.0088215  71.1267710
  98.5314941  99.6944332  62.4013710  99.2439842  99.1021442  62.6417398
  97.7727890  99.3640995  62.8824997  73.5014153  46.7714024  34.5815635
  73.7775707  47.0774364  33.7176681  74.1282940  46.0829067  34.8034358
 101.3219452  90.8396339  19.7652745 100.7286835  90.6002712  19.0532553
 101.9612885  91.4241314  19.3580532 103.9110088  51.2294674  68.5359764
 104.3510628  51.4505386  69.3567705 103.4112930  52.0148420  68.3130407
  84.9139118  68.1659317  33.2833838  84.3265438  68.8533974  32.9693508
  85.3896523  67.8823090  32.5027061  96.4882374  45.7216406  25.2839470
  97.2380829  45.4872656  24.7371078  96.0124397  44.8996544  25.4030704
  90.6195831  58.5882139  79.1434622  89.9319172  58.4972954  79.8030663
  91.2421608  57.8907394  79.3488073  82.4958038  47.7568769  33.6486864
  83.2587051  47.6088762  33.0898499  82.5216484  47.0411730  34.2837739
  22.7721405  45.7326651  76.2634850  22.6923013  44.9671125  75.6944609
  21.9299459  46.1802769  76.1823511  89.9835110  60.8295631  74.3301392
  90.7335186  60.4075480  74.7492170  89.9427795  60.4352522  73.4588814
  69.3004131 101.1795425  15.4061651  68.9183903 100.8979702  14.5748961
  69.0931177 100.4721832  16.0168254  96.6811562  60.7332659  54.4335508
  96.1714363  59.9472857  54.6301413  97.5876236  60.4811049  54.6095324
   1.3388915   6.8024236  72.7410364   0.9018669   7.6240349  72.5169945
   1.9312398   7.0335692  73.4565306  71.7489481  58.8584280  53.5217810
  72.5359964  58.6213255  54.0122557  72.0379782  59.5476484  52.9237270
 115.4186058  21.8415356  67.2136116 114.5453548  21.5075779  67.4188662
 115.4007721  21.9939756  66.2687969  74.2360449  78.3830976  90.7909870
  73.8723946  77.9904938  89.9973583  75.1338816  78.0537224  90.8314037
  77.6591587  61.9804668  69.5316172  77.5419569  62.4454403  70.3600502
  77.0972395  61.2093544  69.6081829  14.8898327  62.7336025  54.9366808
  14.9100769  63.4104204  54.2601156  14.4057298  62.0105886  54.5377731
 111.2165070  98.0389214  53.8045931 110.7613277  98.5573864  53.1410837
 111.4349747  98.6682129  54.4919777  69.9858427  75.4249668  49.0852785
  70.3827810  75.7696581  48.2853603  69.1973066  74.9725676  48.7856483
  84.7246361 102.2374535  57.0744133  85.2018356 103.0638409  57.1492100
  83.8722134 102.4163151  57.4714184  89.1156864  55.9587383  27.6313853
  88.8650894  55.5809164  28.4744048  89.3552017  55.2046537  27.0926666
  84.3938160  53.7807560  50.7266378  85.3023815  54.0507984  50.8600855
  84.3328953  53.6003160  49.7885752  95.4288578  56.0342407  72.4360609
  94.7702312  56.5072107  72.9447412  96.2160683  56.5747833  72.5020266
  77.5487041 103.0322742  49.5473814  77.7281618 103.3011436  48.6464167
  76.8518496 103.6203575  49.8385429  86.3696575  61.9130039  57.5402927
  86.9368553  61.2162924  57.8705978  86.8939877  62.7092886  57.6254272
 105.1576900  51.6187429  34.3695426 104.8538780  52.1580839  35.0996423
 105.2938080  50.7520723  34.7524023   5.4698133  27.3408175  59.7352648
   5.3284723  27.5995135  58.8245869   4.6111885  27.4363542  60.1474142
  51.8121910 103.1689739  62.0153904  52.2038078 102.6535892  62.7205420
  51.7369413 104.0518951  62.3773670  95.1683235  59.3725586  62.7617264
  94.3783474  59.8917198  62.6112461  95.0285339  58.9661551  63.6170244
  76.8451786  80.8386612  40.6243229  75.9518862  81.1751175  40.5532026
  76.7621565  80.0502205  41.1607027 112.1767330  89.1233730  32.5042772
 111.4114094  88.5770893  32.3251653 111.8358135  90.0177574  32.5131845
  72.5621748  72.1680784  77.1802711  72.2078419  71.5650702  76.5267754
  73.3957434  72.4591255  76.8105650  59.1996241  49.5075798  22.9438639
  59.5663071  48.6270905  23.0245829  59.4832993  49.9589777  23.7388492
 104.3155479  86.3619328  32.9811716 104.5483685  86.3653755  33.9096189
 103.7007046  85.6338596  32.8911281  88.2525921  69.4852161  51.7590284
  88.1775856  68.5706282  52.0313072  87.6261997  69.9519539  52.3122263
 115.3379726  51.8744898  46.9554758 114.4098759  52.0529413  47.1072531
 115.7847977  52.6718378  47.2397518  58.2822180  30.2576160  87.1229172
  58.6071157  29.7138214  87.8405285  59.0399170  30.3760266  86.5501118
  99.7009277  46.7913818  52.8191090 100.3374577  46.8314600  52.1053410
  99.8065186  45.9132671  53.1851578 109.6064281  70.3992653  37.7988362
 108.7708664  70.0424194  37.4976063 109.9950790  69.6944046  38.3168626
  72.6727438  59.4678736  36.8382764  72.7261734  59.2982244  37.7788067
  72.0056248  60.1492739  36.7553258 106.6795826  47.8735065  50.4834461
 107.2599030  47.3439741  49.9365854 105.9269238  48.0608845  49.9225283
  81.0075855  72.7976608  49.4885969  80.2798748  72.9469919  50.0922251
  80.6249237  72.2898626  48.7730932  74.6336317  57.6853704  20.0844312
  75.5107784  57.3045635  20.1272941  74.5629406  58.2140398  20.8792543
  90.8272552  70.3516436  75.8893728  90.8100605  71.1350632  76.4390850
  91.5082169  69.8019075  76.2770748  84.3663120 100.8626366  44.4037914
  83.9884758 100.8479977  45.2831411  85.0391960 100.1820755  44.4208670
   6.3507926  63.1209850  37.1095228   5.5409670  62.6602173  36.8901873
   6.8948364  62.4591541  37.5364017  67.6689672  61.6804886  59.0575647
  68.6223507  61.7654800  59.0497065  67.3557281  62.5264120  59.3777704
 103.0694389  95.5810165  62.3873138 102.6409245  94.7251797  62.3998547
 103.2256222  95.7571030  61.4595032  92.4506760  61.1469460  59.6109486
  93.0589867  61.8425608  59.8605728  92.7676487  60.3730679  60.0766516
 112.6938248  42.8856325  57.6148653 112.3904419  42.2086668  57.0099640
 113.6005402  42.6463938  57.8068590 102.0538139  79.5204544  66.9040442
 102.4538231  78.8052225  67.3986816 101.5937710  79.0866995  66.1853981
  74.1339350  60.2658176  31.6196728  74.0037203  61.1870766  31.3948154
  74.1758442  60.2562809  32.5759077  68.4690905  68.4512043  28.3568621
  69.1547012  68.3042192  29.0084457  67.7808571  68.9149857  28.8338065
  90.7037354  65.6994772  49.9048615  89.8978424  65.2182674  49.7172451
  90.5918121  66.0135174  50.8021259 101.3194847 102.0487595  88.6688614
 100.3774834 102.0642662  88.8380241 101.4665699 102.7774334  88.0658436
  97.0586872  56.6106510  48.0179358  97.3670769  56.9450951  47.1757460
  97.6288605  57.0270300  48.6642838  90.4513168  93.7553120  80.1902390
  89.8099422  93.9187717  79.4987535  90.3241062  94.4739056  80.8096504
  65.5798244  63.0571461  54.2813110  64.8848581  63.6335039  54.5992231
  66.2368393  63.0676794  54.9773359  81.2487125  41.5266228  26.2433434
  81.3187695  42.3295069  25.7269168  81.2029076  40.8263588  25.5923724
  85.9971333  67.5553846  30.9711504  86.3247395  68.3286142  30.5117822
  86.7770290  67.1595383  31.3601184  65.5179310  63.0469179  50.0289011
  64.9463797  62.9220343  50.7865095  66.4020395  62.9164791  50.3717756
  67.8265095  69.8992634  51.6532135  68.0520296  70.1734400  52.5421429
  67.7023506  68.9524221  51.7188501  75.7518959  75.9698009  26.7207408
  75.3746462  76.2535906  27.5534344  76.1655617  75.1297092  26.9191384
 102.7157307  54.6982765  50.1042366 102.3253727  54.1278458  50.7664013
 101.9673157  55.0771952  49.6432304  93.3335209  63.9029503  56.7275381
  92.5323868  63.3791113  56.7308521  93.8711357  63.5140371  56.0376453
   1.3798433  76.1533738  94.5985418   1.9463593  76.8047452  95.0120729
   1.0227209  75.6482673  95.3289963  74.9447203 100.4480648  62.9260540
  74.5567656 100.4069138  63.8001442  74.8746061  99.5543194  62.5905800
  78.1246042  33.6682653  25.5294681  77.7592373  33.0324674  26.1446905
  78.2888126  34.4478726  26.0600185 101.2298679  72.8611183  43.8003969
 101.1480808  73.2948875  44.6497393 100.3639221  72.4868298  43.6382437
  91.6206264  45.2553034  23.2269764  92.2754765  44.6519566  22.8757286
  91.8114281  45.2968502  24.1640449  96.9801807  32.6120639  23.0016136
  96.2819767  32.0255375  22.7105451  97.7543354  32.0521879  23.0604362
  83.0873871  77.2748470  52.7870178  82.4789810  76.5471601  52.9156685
  83.0852032  77.4245787  51.8416023 100.8231163  87.0083046  39.2689896
 101.3301849  86.6902542  40.0159597  99.9107456  86.8641853  39.5200491
  73.9506102  40.2642775  58.8921070  74.4082355  40.7117558  58.1803656
  73.0274868  40.4764700  58.7540817 101.7709351 108.8769627  92.5305462
 101.9534206 109.3782806  91.7358017 100.9616661 108.4045696  92.3352146
 111.0003376  78.3772898  30.4488802 110.7204819  79.2593098  30.6937408
 111.0659027  77.9073763  31.2802124  93.6920071  61.5374517  68.6770582
  93.1677341  62.2267342  68.2693100  93.5383129  60.7656193  68.1321859
  97.8080750  86.9719315  34.9832821  98.7464905  87.1127892  35.1088738
  97.6110172  87.3999977  34.1501236 112.3916054  62.4631166  42.7939749
 111.9670391  62.3281574  43.6411858 112.4919891  63.4125328  42.7249193
  81.9186974  60.4299688  54.2884016  81.3917637  59.9446869  54.9232769
  81.7483425  61.3502121  54.4893074 100.0242043  69.3840218  64.4085979
  99.8579979  70.3246164  64.4709635  99.1974545  68.9770174  64.6675825
  88.1271839  61.4008760  69.8130560  88.8241577  61.7270613  69.2437935
  88.3927631  60.5068970  70.0287104  80.0880241 102.1811199  54.6775579
  80.8492470 102.4556923  54.1662979  80.4456902 101.5928364  55.3425646
  86.5968704  79.4752789  41.7245007  85.7370949  79.8565149  41.5465260
  86.5254498  79.1279268  42.6135921 109.2970467  72.1091557  76.5685701
 109.3879128  71.8846846  75.6425142 110.1820278  72.0247936  76.9234228
  85.0806618  98.2217693  46.5988064  85.6685543  97.4842930  46.4352608
  85.5365562  98.7509155  47.2533226  14.4605541  43.8036346  29.4542336
  13.9456868  43.5703373  30.2267075  15.1530218  43.1436920  29.4196749
  31.1406207  59.7969437  68.6483383  31.9346333  59.8625803  69.1788721
  30.7276964  58.9823532  68.9349747  75.3042841 100.7723236  55.6146002
  76.1273670 100.3186321  55.4331350  75.1803446 100.6751537  56.5587568
  97.1382713  70.7491207  63.7255573  97.8861904  71.3024235  63.9507437
  96.5673447  70.7943726  64.4925165  76.6294384  74.4059372  41.0886478
  76.0789204  74.6795034  41.8223524  77.4859428  74.2377901  41.4815283
  71.1848116  78.4491730  48.3402538  70.4997063  79.1163492  48.2985973
  71.5956640  78.4734774  47.4760532  88.6406517  80.3359318  72.9042053
  89.4231224  79.8676538  73.1952047  87.9410648  80.0074768  73.4689379
  90.4893589  30.1190114   4.2467713  91.2977314  29.6323681   4.0856668
  89.9661064  29.9824047   3.4569740  99.3781376  55.1574898  52.3360014
  99.7277737  55.8582020  51.7855549  99.9779129  54.4240427  52.1998024
  99.3455791  72.2470331  64.3384075  99.0061474  73.1237459  64.5183802
  99.8369980  72.3432541  63.5226345  97.4411583  47.1238708  22.5528121
  97.5526524  47.8627491  23.1510210  98.3119297  46.7309809  22.4925494
 114.3513489  88.7748146  18.4336340 114.6011162  88.0316925  17.8844392
 115.0870609  88.8855076  19.0358937  54.0581036  22.5008082   5.1938653
  54.8088217  22.1429300   5.6677628  53.5166836  21.7378068   4.9915653
  98.6006451  80.9195137   9.2030519  98.1829548  80.3843021   8.5282820
  99.1751575  81.5115547   8.7175959  92.6897144  63.7034464  53.2645893
  93.2876396  64.4214916  53.0569077  92.3253918  63.4428644  52.4186563
  81.2597752  39.2154527  24.5663357  81.2361336  39.3837309  23.6243415
  81.7798233  38.4166431  24.6539664  73.5955906  57.1042967  67.1423101
  74.2911100  56.8990326  66.5175247  72.8047323  56.7336893  66.7506170
   3.4503743  60.7798815  64.4845772   4.1309184  61.3872433  64.1943979
   2.6744896  61.0327625  63.9842892  39.0067029   5.9272754  42.4593735
  39.5345855   5.5493683  43.1627607  39.5789289   5.9056211  41.6923523
  75.4203129  51.2480640  28.4547305  75.8575487  50.8252954  27.7155924
  76.0983324  51.3163471  29.1269326  77.3449755  42.5241184  42.4829006
  77.8586149  41.9453573  43.0463219  76.5668869  42.7329206  42.9998207
  99.9436474  63.3663177  13.3480728 100.6315994  62.7115250  13.4672320
 100.3365326  64.1845369  13.6520302  97.5804138  81.0694408  25.6921029
  98.0939198  81.4548969  24.9821973  96.6771030  81.3188839  25.4970884
  69.8184919  41.8837738  43.6206102  70.7485533  41.9949198  43.8177395
  69.3746614  42.4982023  44.2051792  73.9400434  75.1888514  85.5899525
  74.3027258  75.8807325  85.0367832  74.0490723  74.3890381  85.0755215
  97.1534920  60.0513792  43.8223648  96.8396854  60.7457590  44.4016695
  98.0752087  60.2621698  43.6732388  49.4336128  99.8668861   6.3389862
  48.5301304 100.1828861   6.3294721  49.7401476  99.9907494   5.4406941
  83.7598705  87.6151752  30.1860261  84.5263577  87.0420551  30.2025795
  83.3734608  87.5235653  31.0569572  79.8387957  46.4114523  54.5177984
  80.5745983  46.9723129  54.7632790  80.0892925  45.5399227  54.8242617
  96.4069080  84.2922878  90.2829170  96.8409157  83.8809204  89.5354843
  96.5146160  83.6647129  90.9976006  79.0599442  67.1826792  71.9900179
  78.3244133  67.7915525  71.9228935  78.6509180  66.3224745  72.0847368
  44.7329617 103.7026119  54.7736454  43.8858986 103.3561134  54.4931889
  44.5439339 104.1658688  55.5896759  51.6985798  88.1446171  59.9344063
  51.4885235  88.8518143  60.5443144  51.5770721  88.5319519  59.0675497
  70.7882023  62.4033451  41.0793447  71.4968872  62.0145273  41.5919971
  70.2629185  61.6565657  40.7918978  85.8715630  37.7581882  31.2329340
  85.6165409  36.8489671  31.3895011  85.4826736  37.9734373  30.3851938
  80.3993034  93.0246925  31.0349154  80.3577709  92.0717621  31.1151385
  79.7204494  93.2410526  30.3957105   0.8627199  97.7022362  41.4232254
   1.0407673  96.8724442  40.9805298   0.0693846  97.5365734  41.9325447
  77.3197126  44.2585659  23.7604117  76.9699049  44.9865627  24.2741132
  78.2570648  44.4408035  23.6941600 108.7425518  63.2341337  50.2504730
 108.9931679  63.8193750  49.5356894 107.8038692  63.3831167  50.3640747
  22.2854948  16.6331482  37.2508621  23.0988503  16.2765849  36.8937230
  21.6112876  16.3623691  36.6276813  87.6125145  75.5140829  68.4101772
  88.4845638  75.8430481  68.1921530  87.4431038  74.8340940  67.7581406
 109.6354294  70.3896666  67.1987963 109.6428776  70.3036833  68.1520987
 108.7092686  70.3438044  66.9614029  88.9286232  66.8670511  40.1574373
  88.2943821  66.6548634  39.4726324  89.6631622  67.2636461  39.6890378
  91.8282890  63.1213379  43.9933491  92.3041630  62.8024387  44.7602129
  92.2992706  63.9122915  43.7310457  83.2933426  59.6154785  58.8769436
  83.7371922  59.1080999  58.1973886  83.4582615  59.1294575  59.6849155
  89.3360710  49.1480923  62.3200226  89.6187782  50.0029898  62.6447773
  90.1329041  48.7491846  61.9705153 115.6527424  59.3667269  19.1262627
 116.1040401  60.2105236  19.1500342 115.7444286  59.0715075  18.2203519
  86.0933876  29.4764376  21.6779375  86.3970852  29.3447542  20.7797980
  86.7009640  30.1188874  22.0444560  98.6875248  84.2599964  61.5256643
  97.7481651  84.2623329  61.7095613  99.0998173  84.1823483  62.3860216
  94.1348362  58.4682322  21.5114045  93.5576916  59.2051744  21.3112807
  93.6692619  57.9761648  22.1876788  94.3735313  91.8070984  51.4932203
  94.3438911  91.4260483  52.3708010  93.7603664  91.2790108  50.9819651
 101.9532299  58.6282206  45.1861000 102.8474903  58.3724546  45.4122066
 101.6052628  59.0172768  45.9884596  87.3631191  90.3921413  45.9418106
  87.9519176  90.3022385  45.1925039  87.8701687  90.0660992  46.6853333
  24.3854928  99.1609001  25.6660247  23.9624739  98.3745384  26.0108781
  25.2725911  98.8779354  25.4441643   8.0311251  73.0670881  60.2917290
   7.6152539  73.8630486  60.6229877   8.9084935  73.3463621  60.0300741
   1.6483329  53.4376431  44.8593330   1.0557939  53.0281067  44.2289305
   2.4203920  53.6726761  44.3446350 108.4017086  88.8366413  46.7312384
 108.9838409  89.5145893  47.0743704 108.8815117  88.4597874  45.9936762
 108.6982441  58.2767296  45.8169365 107.9491329  58.6291933  45.3364801
 108.4702492  58.3981133  46.7386293 106.5656185  68.7725878  62.7099180
 105.9557819  69.4527292  62.9958200 107.3320293  68.8864517  63.2719421
 102.8303432  60.6162310  23.2268405 103.4437752  60.1337147  23.7810159
 102.1959400  59.9582624  22.9425001  74.3809843  92.2696781  73.4851789
  74.5425940  92.1039486  74.4139671  73.9150524  91.4910316  73.1804752
  85.3630924  80.9222698  63.0410004  85.8800983  80.1927376  63.3826590
  85.7296085  81.6964054  63.4683275  91.2054634  54.6960258  34.3493509
  91.1852932  53.8289833  33.9442992  91.9148064  55.1543999  33.8988352
  14.6047997  75.9032774  30.7283115  14.8171556  75.2056503  30.1082683
  15.0941873  76.6624594  30.4114938 103.8845634  55.5497360  52.8532600
 102.9920292  55.4250336  52.5306654 103.7924004  56.1641693  53.5814142
 104.9172974  41.6618395  30.6594968 104.5176697  41.4336586  29.8201752
 105.4224014  40.8860874  30.9030485  15.1222801  56.4743423  33.9484358
  15.2273250  55.5493164  33.7258959  14.6214533  56.4690685  34.7641444
  89.3642807  81.9950008  47.5743437  90.0339031  81.7494488  46.9359541
  89.7149563  81.7000675  48.4147453  11.4532065  80.5253792  73.4603119
  11.8304515  79.9702454  74.1427612  11.6676855  81.4178658  73.7317991
 112.4021912  75.7708406  33.1445289 111.6987991  76.3368797  33.4624386
 112.9580212  75.6264162  33.9103174 108.3001614  81.8029594  40.4654741
 108.8148212  82.4692440  40.9209108 107.9050827  81.2847710  41.1666346
   3.0737817  72.0824575  60.0880909   2.2345558  72.1339369  59.6306181
   3.7293893  72.1799707  59.3975067 115.2449131  57.5551081  47.6086283
 116.1650181  57.4092102  47.8285027 115.2698898  58.1196451  46.8360281
  16.5956926   6.3118118   8.2323611  16.1754227   6.3315201   9.0921378
  16.9432557   5.4232198   8.1559724 103.1728649  96.5538692  31.5739226
 103.1254196  97.3744011  31.0832977 103.9245224  96.0942268  31.1997890
  19.3973124  68.5423231  38.7718678  19.9782848  67.8308392  38.5026240
  18.7095082  68.5547924  38.1062865  92.4467850  84.1346169  34.5592332
  91.5756702  83.7391186  34.5902252  92.2874451  85.0731087  34.6596622
 111.5039921  88.2966709  40.8512545 111.3662910  89.1662979  40.4757261
 112.4462605  88.1480598  40.7720852 109.9585342  85.0984383  35.3605580
 110.4370308  85.4813576  34.6252728 109.1193581  84.8299980  34.9864531
 101.2421322  59.5776224  47.8441477 101.9582081  59.3620443  48.4416437
 100.5040932  59.7815847  48.4185362 113.4022522  80.9437084  31.7128873
 113.9580441  80.2074623  31.4573932 112.9237366  81.1705685  30.9155250
  54.0681458   1.2526003  41.5371227  53.3802080   1.9169745  41.5768576
  53.8293028   0.6197037  42.2143459   4.7130653  61.8993330  49.3983555
   4.1029358  61.5423250  48.7529755   4.7875559  62.8260374  49.1705418
  10.3268826  71.8250513  53.6216211   9.6884429  71.2232351  53.2389450
  11.0263324  71.2577629  53.9459419  10.7476294  74.1308784  64.3035793
  11.4789212  74.2328501  63.6944437  10.4573810  73.2271290  64.1802025
   0.5801895 102.8160763  46.5209866   0.0686653 102.3709202  47.1965742
   1.3922238 103.0665779  46.9615316 107.6182175  44.6956348  52.9361248
 108.0956745  44.5386362  53.7507534 107.2273350  43.8488865  52.7206039
  17.4972963  96.7461586  67.5112247  17.9366958  95.9886265  67.8976154
  16.8299317  96.3692379  66.9378281  71.4510155  77.0642805  57.6360846
  71.1619997  76.4501858  56.9611168  71.9183731  77.7468920  57.1545744
  69.1327810  65.9185410  45.4313898  70.0697613  65.7718515  45.5609131
  69.0557909  66.8615437  45.2862930 105.6709957  69.4590092  70.6424141
 105.6905270  68.7728930  69.9752665 105.3161144  70.2237701  70.1891661
  78.1241512  89.0193939  62.9808855  77.5008678  88.6568451  63.6104155
  77.9580545  89.9619675  62.9950809 109.4138622  91.4367104  34.0033150
 108.7972260  92.1657562  34.0703654 109.6553421  91.4116478  33.0774164
 104.1934395 107.6598263  54.1975880 103.6362934 107.7998638  53.4319496
 104.8371696 107.0123482  53.9101553 102.9100323 106.8904591   9.3862385
 103.7842083 107.2555923   9.5230299 102.5826454 106.7158127  10.2685940
 102.3479176  92.9837513  61.4640760 101.5062523  93.1896400  61.0573387
 102.9411221  92.8389835  60.7269335  10.1670241  78.1257963  77.2842646
  10.0101876  77.3702574  76.7178774   9.3169492  78.3041668  77.6864910
  69.6644926 103.6282158  62.2567081  69.7782564 104.5756912  62.1821260
  70.4089403 103.3383560  62.7839804 113.6484528  93.9799690  63.2853746
 114.0851307  94.2721081  62.4852514 113.6768246  94.7410011  63.8652515
  67.9857969  96.6221905  85.9344196  67.9352665  97.0592403  85.0843239
  68.7357616  97.0287800  86.3685608   4.2371714  72.1522331  40.5738258
   4.5911306  71.5761328  39.8962927   4.2079091  71.6073275  41.3602448
  98.9545822  50.1754379  37.7309608  98.9062881  50.7176256  38.5183191
  99.7527409  49.6593380  37.8441405  90.5305290  75.2852345  22.9627061
  90.5453300  74.5771170  23.6065912  89.6705055  75.2143621  22.5484872
 103.6521339 101.9551468  67.9667234 104.0413380 101.7912960  67.1077108
 104.1629982 102.6801395  68.3267832 110.2917194  66.6791153  49.9097633
 109.6545219  67.2132921  50.3839588 109.8064137  66.3378143  49.1586208
  86.6520405  72.9564190  50.7778931  87.1359825  72.3827124  50.1838493
  85.7524490  72.9351282  50.4515219 105.7586956  93.5600948   5.3844708
 105.8444881  93.7616253   4.4526663 106.5067577  92.9948330   5.5771285
  31.6523743  44.8640728  52.3918247  30.8599448  45.3641415  52.5873232
  32.1261501  45.4037809  51.7589903  83.4003639  70.7726145  71.6801977
  83.7212276  71.3927031  72.3350048  82.5707436  70.4553747  72.0370150
  67.3041916  66.9515228  19.4076610  67.0124054  66.3124847  18.7574935
  67.8804970  67.5414705  18.9217913 100.0188541  86.7091370  53.6278439
  99.8250675  87.5713539  53.2600832 100.9298706  86.5443039  53.3847237
  68.4709024  91.7008400  34.2375970  67.5895548  91.4537048  34.5175481
  68.6091995  92.5676823  34.6192980  98.7647438  72.4237967  22.2837543
  98.1464291  72.0212889  21.6739154  98.5538769  73.3571148  22.2574782
  42.7417803  98.2736969  86.8490124  41.9633245  98.6331081  87.2745419
  43.4758329  98.6665440  87.3213196 113.4706020  73.4902143  43.5197496
 113.1980038  72.6325512  43.8458347 112.6676273  73.8822889  43.1766367
  88.7025928  85.5292606  33.3996058  87.8167343  85.8886337  33.4479475
  89.0000057  85.5021095  34.3090248  38.1634951  13.1000948  67.7169228
  39.0375185  12.7285838  67.8364801  38.1098962  13.2896531  66.7802095
  10.1097441  58.8235855  17.7041554  10.4857528  58.0744028  17.2420096
   9.2891431  58.4925556  18.0692112   8.0743408  55.9268284  33.0567932
   8.4963101  56.6822195  32.6474571   8.0666363  56.1340094  33.9912701
  22.8524423  17.3848236  34.4529438  23.6221838  17.4427998  35.0189543
  22.5456357  16.4841616  34.5573902   9.0972626  24.9562478  47.4801445
   9.1265190  24.0094805  47.6180029   9.2315978  25.3294015  48.3513165
   0.9053479  62.7347040  19.0040231   1.1622964  63.6517715  18.9080930
   0.4556523  62.6990175  19.8482561  97.9699039  57.8053188  45.3828669
  98.2991791  57.0318460  44.9251032  97.6484871  58.3773518  44.6859455
   8.4531081  85.2675915  28.8897395   7.5272304  85.3007984  28.6491585
   8.8260627  84.5990753  28.3150840  98.2102108  45.6605339  44.7666740
  98.3117962  46.3570881  44.1180372  97.2657776  45.6045198  44.9120617
  96.9114971  63.9853859  44.7732878  96.4524174  63.6340332  45.5361986
  97.7955151  64.1707754  45.0901175  92.9968739  46.4943838  44.5400190
  93.1913376  47.3488665  44.1549635  93.7286091  46.3272285  45.1340342
  87.1870518  88.2010078  51.7101192  87.8540134  88.8854027  51.6553783
  87.4705219  87.6480103  52.4381733 113.6451054  63.2543468  66.1053991
 114.4605160  63.5714102  65.7170439 113.0306721  63.9804792  65.9984875
  95.4499340  88.8956833  49.0584993  96.0514736  89.0570641  49.7853661
  94.5789719  89.0129948  49.4378328 108.1966019  78.7030411  49.3412352
 108.0535889  79.0179968  50.2337503 107.7498436  79.3429232  48.7869787
 105.9978390  53.1176758  57.5728178 105.8032894  53.0202341  58.5049629
 106.5803432  53.8758850  57.5276995  84.6503735  64.5184517  52.9594946
  85.5366516  64.6570635  53.2934523  84.1865540  64.0928078  53.6805582
 107.2324371  84.4536781  43.9622879 107.1567917  83.6150837  44.4175577
 106.7784500  85.0763035  44.5301437  44.6561098  27.5003695  91.1508751
  45.3174019  27.2473025  91.7949963  45.0599051  27.3076916  90.3046799
  70.5055380 106.2469864  39.6952581  71.4370632 106.2076855  39.4785738
  70.1173306 105.5141258  39.2173123 100.4974079  87.7764606  43.8294125
 100.5861855  87.1924019  44.5825624  99.9150276  87.3086548  43.2308865
 114.7653103  57.6364231   0.7677858 113.8150883  57.7495193   0.7452781
 114.9023151  56.7158508   0.5441608  85.7910538  81.9218063  26.8274450
  85.4526234  81.0434628  26.6536379  86.3276386  82.1275520  26.0619497
 103.2557678  56.4682341  62.1588087 103.3804321  55.5824471  61.8181133
 103.9450264  56.5717173  62.8148890  86.8627644  68.4803677  70.0582266
  86.3635921  68.5105705  70.8744049  86.3790989  67.8677034  69.5041943
 114.9895668  86.0068035  17.8569496 115.2403831  86.0139656  18.7806749
 115.6351280  85.4377270  17.4378777 101.3933277  71.6725683  35.6288481
 101.0492134  71.9092512  34.7675705 101.6938114  72.5009584  36.0026217
  80.9107399  50.6059504   3.5595652  80.2900600  49.9403715   3.2629296
  80.4101658  51.4217663   3.5493496  14.4432771  39.0954018  61.7064381
  14.1249108  39.8009825  61.1433840  13.7488282  38.9737940  62.3538780
   6.8141234   2.0882244  33.7647748   7.5514996   1.5224722  33.5357904
   6.7058063   1.9703214  34.7084880 106.5866280  98.7528801  53.2498217
 105.8640385  99.3353748  53.4839344 107.1888161  98.8081074  53.9918089
  89.6652699  84.0219498  29.2672396  88.8950920  83.4535789  29.2695951
  90.2667713  83.6128330  29.8893714  10.7440698  52.9515648  69.2447948
  10.7810605  53.3613539  68.3805370  11.1957884  53.5676575  69.8215199
 112.6514721  69.3593168  24.7820497 112.7214527  70.3062820  24.6612453
 111.9446182  69.0943718  24.1934919 113.5584450  65.6127787  40.2420187
 112.9848671  65.6333256  39.4759822 112.9621124  65.5234957  40.9854221
  25.8394313  63.4014702  75.5262041  25.9127283  63.2004452  76.4591789
  26.5495610  62.9061985  75.1179695  96.3023376  63.6870813  40.2677250
  95.9414768  64.0820408  39.4739866  95.9831524  64.2432165  40.9784031
   7.4805671  87.0914459  16.4940631   7.8188455  86.2496567  16.1887980
   7.7358055  87.7134418  15.8127344   1.9789031  75.2302599   6.6174465
   1.5190381  74.5926905   7.1635813   1.9282246  76.0489750   7.1107703
 103.7580585  72.6484585  74.6743822 103.9141178  72.0701265  75.4209805
 103.9961910  73.5193920  74.9921799   4.3375772  91.4089870  22.1682429
   5.0956452  90.8397675  22.0357132   4.7052488  92.2917843  22.2095919
  73.6943817  37.0485258  25.6099820  73.6930323  36.8112612  24.6826553
  72.7902603  36.9124889  25.8933330 111.8523979  71.4443493  44.7762012
 112.0092392  70.6317234  45.2571011 111.5845871  72.0720100  45.4474306
   3.4387109  63.7258863  42.3734570   3.2882938  64.4098330  41.7209053
   3.9816952  63.0795479  41.9221878  10.0017703  62.0572042  48.7446594
   9.8863870  61.6099548  47.9062748   9.9841577  62.9884005  48.5237741
  14.4180477  87.1582985  54.7831964  14.3021142  87.8284740  55.4567289
  15.1575053  87.4690819  54.2608500  96.9571018  86.1438656  72.1459389
  96.4933968  86.8276691  72.6292896  97.2379589  85.5235386  72.8186560
 113.5235691  68.0562735  57.9099417 112.7453995  67.5171995  58.0516481
 114.0426636  67.5648785  57.2733068  11.5496004  80.1691818  38.7094617
  10.6927037  79.7426367  38.7136960  11.6397202  80.5168152  37.8221822
 111.8013287 102.5982666  82.3274899 111.4880657 102.2487164  81.4932728
 111.8110561 101.8428135  82.9152107  89.8674393  59.9894953  48.8337278
  90.1246929  59.4853640  49.6056747  89.7438240  59.3323755  48.1487894
  31.2554145  98.6489487  54.2529392  30.3959799  99.0531063  54.3723679
  31.7781806  98.9771652  54.9845266  93.3833694  83.2094288  36.8497133
  93.2221508  83.7372208  36.0676169  94.0928841  82.6183891  36.5977335
   4.8111224  91.1171627  67.4662256   4.6673307  90.6370640  68.2817364
   5.2206945  90.4792690  66.8817806  91.6304207  68.3335972  63.4867811
  92.0568466  68.0852222  62.6665974  90.8962059  68.8855171  63.2174397
 102.1833324  67.3079729  52.9989290 102.4992943  66.4063406  53.0577803
 101.2412834  67.2423315  53.1553602 103.0621052  74.8704529  58.2957554
 103.0398083  74.5573664  59.2000294 102.4953938  74.2644453  57.8184414
  73.7718678  56.6892242  23.4518099  73.8447428  55.9741640  22.8196621
  74.3942976  57.3471355  23.1420302   1.3835463  65.1506329  15.9027219
   1.8693107  65.9364319  15.6521463   1.1699529  65.2853394  16.8260121
 105.5652142   8.2253212  59.4057608 105.4703236   7.2792983  59.2950058
 106.4924240   8.3510321  59.6075201  33.3259892  11.7725372  58.8645411
  33.4799409  12.6453650  59.2260695  34.1807508  11.3433814  58.9025116
  98.2824516  93.2299614  72.4259758  97.8500271  92.5749588  71.8780613
  98.9184284  92.7311611  72.9387665   3.5361055  77.5490808  36.8034005
   4.3251482  78.0512857  36.5998483   3.6371571  77.3069096  37.7239299
 107.1591377  81.8807220  29.1919589 107.2223854  81.4571571  28.3359051
 108.0190468  81.7456627  29.5901299  92.6921463  56.9372606  51.6214514
  93.6296749  57.0680237  51.7634630  92.6371765  56.1251593  51.1177635
  29.0631342  96.9979477  80.8901882  28.2543731  96.4982510  80.7786846
  29.6518850  96.6537285  80.2185345   4.4791704  89.3729496  45.7819939
   5.3372848  88.9488697  45.7770872   4.6651778  90.2921486  45.5903864
  13.8887322  84.4399357  52.5512743  13.5108137  84.6768188  51.7043447
  14.7064865  83.9932919  52.3321438 100.5501938  42.8936720  68.0492210
 100.7757092  42.2368765  67.3904371 100.6718731  43.7318420  67.6032352
  43.0688953   8.2100564  62.8087902  42.8880453   8.6687332  63.6292410
  42.3496246   7.5846946  62.7204227   8.2061654  91.7921829  11.9359100
   8.3554387  90.8575344  11.7931283   9.0173978  92.2109795  11.6482604
  99.0742397  46.3211632  39.1446924  98.5438538  46.0737419  38.3872628
  98.5728645  47.0158958  39.5715308 109.9992275  83.8010693  74.8159933
 110.4868889  83.6577892  74.0048933 109.3081474  83.1389618  74.8001099
  85.8829689  63.6253357  62.5445700  85.9349918  64.5792770  62.6038885
  86.7030144  63.3163452  62.9296494  96.3670349  64.7773027  71.8865108
  96.7590809  63.9645290  72.2057772  95.4810619  64.7743416  72.2488165
 107.8710461  76.1938810  41.2638617 107.9008484  77.1315050  41.0735989
 108.3131504  75.7844067  40.5201435 102.5741291  89.9972153  32.5998878
 101.8552780  89.3656158  32.5761795 102.1659374  90.8332253  32.3747182
  84.5311165  70.2234697  61.7565632  84.1038132  69.4480896  61.3926458
  84.4623756  70.1119947  62.7047634 114.9389076  64.6869755  60.2524710
 115.6855774  65.0032711  59.7438765 114.2950153  64.4244480  59.5946646
  12.9328847  77.8500557  58.7073517  12.8497410  78.0475807  59.6402502
  13.3751178  77.0015574  58.6806679 111.6410542  68.6137009  62.3806190
 111.1519337  69.3034124  62.8292656 112.1498966  69.0755796  61.7143011
  89.7092056  48.1832600  43.1022978  90.4226875  48.3745289  42.4935293
  89.6983433  48.9301634  43.7008333 114.6286869  88.4720516  25.7887101
 113.9459515  87.8293324  25.9810948 115.2524757  88.3817673  26.5091062
  87.2331619  92.5774574  50.5381107  87.2887993  93.5322380  50.5772495
  87.7852058  92.2756004  51.2594652  24.2518997  39.1829729   9.8420060
  25.1558781  39.4917846   9.9027383  23.9160657  39.2478347  10.7360089
  87.0576000  55.9529257  47.8650856  87.9392910  55.6819820  47.6092625
  86.5396881  55.8697271  47.0644093 101.5716076  35.7595277  60.2515841
 102.2182465  36.2515426  60.7575703 100.7312584  36.1481023  60.4945803
 112.5225544  69.6653223  29.5514870 112.4920940  69.1020584  30.3248143
 113.3491993  69.4410133  29.1242075 112.7773666 108.6650181  54.5460987
 113.3770466 109.4109058  54.5300674 113.3206272 107.9268169  54.8220778
 103.5564137  79.7432709  26.9013381 103.4371948  80.1434612  26.0400224
 103.2453251  80.4056644  27.5183392 101.5746307 107.6055813  56.5890646
 102.1651554 106.9982147  57.0347214 101.0768223 108.0173111  57.2953892
  64.0655947  69.1545010  39.2547727  64.9592972  68.9234209  39.0015483
  63.5219860  68.8318539  38.5360098 105.4395866  63.1586742  39.9154329
 104.5335388  63.1100798  40.2203131 105.4654980  62.5856781  39.1491222
   0.3586321  63.3102846  29.2514086   0.8069178  63.9896822  28.7477303
   0.4706599  62.5139856  28.7321877 108.8116646  60.6263542  49.6741581
 108.5208702  61.4907169  49.9649286 109.6792030  60.7789898  49.2995787
   2.1120898  49.4239283  47.9575682   1.1911782  49.5342255  48.1941891
   2.5944525  49.7039127  48.7354946  25.8686733  79.7252655  25.8310843
  25.1337910  79.8909044  25.2405429  25.6466460  80.2037621  26.6298151
  90.9541702  77.8062630  58.5228300  90.7396889  77.5089693  57.6386070
  90.6464195  77.1021080  59.0935135  93.0153942  66.6094112  68.8667822
  93.6976719  66.3452053  68.2495928  93.4726429  66.7066765  69.7020674
   2.8739515  87.9897881  75.9327221   2.9144722  88.6755180  76.5993261
   3.7793824  87.6940727  75.8379602 103.7208843  89.8449516  69.1992950
 103.1988907  90.6103897  68.9587593 103.2283497  89.1007710  68.8531303
 106.4640808  94.7269821  87.5670052 107.2518253  94.9767303  88.0500412
 105.8864689  94.3486977  88.2299519  95.9492588  14.9653959  86.5089703
  95.2958679  14.7489357  85.8437920  95.4395866  15.1175332  87.3047733
  95.3098965  74.0667105  19.6134984  94.6853542  73.5458279  20.1183319
  95.9617615  73.4336472  19.3126249  21.1217189  77.0396662  14.1910446
  20.2094245  77.3227739  14.2527163  21.3328886  77.1130896  13.2603204
  37.6632762  34.6677876  44.9127722  38.0107999  34.0109682  44.3094110
  37.7017045  35.4884243  44.4215345  86.3886452  24.4203258  21.4987302
  85.6422806  24.2677736  22.0783043  86.8087482  25.2050781  21.8507290
  93.2690239 109.4632530   5.7884818  92.6242924 108.8503361   5.4350924
  94.0126324 108.9131260   6.0347188  37.3288584  13.9487290  12.8439438
  36.9214225  13.2584119  13.3670986  37.1430540  14.7551072  13.3250499
   0.6083354  78.6720133  61.1851788  -0.0010785  78.0493784  60.7887268
   0.2446539  79.5315361  60.9726048  69.8548460  68.6633062  45.1259327
  69.1816330  69.2248821  45.5101824  70.2963448  69.2219973  44.4862700
  98.3142662  65.4750252  29.0371752  97.5656700  65.2097702  29.5714784
  98.0550766  66.3170671  28.6629820  96.5242577  34.8212957  57.8615141
  96.6004276  34.3317389  57.0425129  97.2281075  34.4781351  58.4120321
  82.3628807  68.1720734  77.0331049  83.3153439  68.1863117  76.9390535
  82.0467281  67.7953100  76.2119341 107.6522541  68.2902193  40.4824114
 106.9739056  67.8333664  40.9797573 108.2177448  67.5923204  40.1516581
  75.3777266  92.2229481  48.9332056  74.7077322  92.7120495  49.4108152
  76.0208273  91.9835091  49.6005344   5.5315566  68.4253836  82.9037762
   4.9785841  69.1384602  83.2231140   5.3200978  67.6851511  83.4726048
   7.4712563  43.0620670  10.3721225   8.0876684  42.3316193  10.3200126
   7.6843888  43.6096907   9.6165359  86.6822338  52.2030067  56.0727501
  85.8178329  52.5073910  56.3491201  86.8202877  52.6158762  55.2202797
  90.3719616  58.9576864  36.0147929  91.3072395  58.8671637  36.1972475
  90.1885986  58.2814169  35.3626657  77.6291609  66.0167742   9.6710634
  76.7557859  65.6264782   9.6375984  77.6763439  66.4244413  10.5358255
  67.3681116  96.3532162  51.5686369  67.0029068  95.4881573  51.3828135
  68.2963657  96.1903763  51.7361450  72.0088053  48.2059526   8.8794571
  72.5258017  47.4010801   8.9130199  71.2843132  48.0007839   8.2884800
  15.6534135  60.3007936  56.1695766  15.3487861  61.2026072  56.2704229
  15.4237986  59.8765564  56.9963312 101.4305687  66.5927219  50.0387955
 102.1193886  66.1838722  50.5628109 100.6326389  66.4674807  50.5524635
  61.3712692  96.0373497  59.4393206  60.6856489  96.2027454  60.0864744
  62.0644426  96.6593075  59.6604824  89.3450069 104.1078568  37.8745246
  90.2887535 104.1341305  38.0322909  88.9791584 104.7264099  38.5068011
   8.1231511  83.1544685  79.8135138   9.0249979  83.0898190  80.1277256
   7.7398497  82.2992134  80.0080681  99.8160458  68.9629459  48.7489843
 100.4967880  69.3124294  49.3240356  99.8752499  68.0137157  48.8571024
 101.4936256  70.2344608  40.1870489 101.4699554  69.3152809  40.4531002
 101.8087006  70.2142096  39.2834163   4.2005172  93.3331871  65.9576750
   4.0807450  93.9480686  66.6814232   4.3954474  92.4979877  66.3827324
  41.1183643   0.7524849  71.6759348  40.7734680   0.4211118  70.8467960
  40.6487894   0.2560019  72.3461914 100.0431061  77.4123859  39.8714447
  99.2349243  77.2426558  40.3554630 100.2627563  78.3197689  40.0827360
 103.3672619  89.6036339  57.2545052 104.1303444  89.1753769  57.6425076
 103.1250381  89.0409851  56.5189886  10.7739377  67.1418953  11.9582605
  10.7390726  68.0251741  11.5910614  10.7472026  66.5641928  11.1955166
  69.6594620  42.5809145  95.0560188  68.7565565  42.8779411  94.9430084
  70.1628494  43.1009483  94.4295979  40.5296659  23.1953645  91.7087078
  39.7517490  22.7122641  91.4299679  40.6611729  22.9325485  92.6196766
  68.4041739  78.4622860  50.2948332  69.0854597  78.7370586  49.6811724
  67.5882769  78.7710619  49.9008751 112.2193241  82.3490715  55.2611971
 111.4301777  81.8350506  55.0901127 112.2676086  82.4032974  56.2156391
  96.8645287  97.6908684  90.7920742  95.9145927  97.8077507  90.7784462
  97.0088863  96.8516350  90.3549385  80.8509541  84.8102665  19.1777980
  80.7699203  84.1833115  18.4590483  80.4728699  85.6194496  18.8335621
  85.5287075  88.3368969  47.8321981  85.5677891  89.0148258  48.5068226
  86.4398098  88.2090569  47.5680494  90.0374317  89.4490719  41.3278913
  89.3821526  89.3048191  40.6452227  90.7223129  88.8067055  41.1420536
  32.9018235  33.7271833  42.3455334  33.5530853  34.4160223  42.4781656
  33.0955958  33.0805063  43.0241299  98.3426952  66.3305902  38.1936073
  98.6980438  66.7659760  37.4187517  97.5939178  65.8322906  37.8661060
  89.6693993  50.9815073  27.3591661  89.8415375  50.0804853  27.6325965
  90.3601837  51.4950037  27.7779388  84.4850254 102.7385044  54.1290522
  84.2598343 102.7249813  55.0592852  85.4389381 102.6610184  54.1123915
  27.7311897 105.0442886  39.0676785  26.8830705 105.1391506  39.5011806
  27.7377987 105.7314873  38.4013796  22.4042988  47.5020790  34.6948242
  21.7346454  46.9044638  34.3621850  22.0816636  48.3740091  34.4670582
  83.9270306  94.3702888  44.5395803  83.1157875  93.9346313  44.2782021
  83.6522388  95.2468586  44.8085403   0.3830001  85.2022171  71.4181566
   0.4564872  85.4246330  72.3462534   1.2665173  84.9344158  71.1653566
 116.5945435 101.9649220  24.3089128 116.3996887 102.8798103  24.1058373
 116.0133934 101.7526817  25.0392914  21.0436392  64.5885372  28.3822036
  20.8627558  64.3565321  27.4713326  21.0240889  65.5454636  28.3940434
   7.9649156   6.9859755  34.2134809   7.4764884   6.2211406  33.9090180
   8.8820857   6.7637926  34.0532732  19.6777236  61.8570805  16.2620461
  19.0575361  62.5541687  16.0483527  19.8017251  61.9286489  17.2084773
 107.1964169  40.6931448  62.8596640 108.1024170  40.3920555  62.7908945
 106.8434620  40.5944920  61.9753981  94.1907692  81.6313648  30.8049941
  94.0665245  82.1849346  31.5759349  95.1115322  81.3724041  30.8419514
  31.0583234   8.0740297  35.5113459  30.6299758   7.2493571  35.2818584
  30.3370929   8.6723810  35.7063675  70.5890799  99.8087597  46.5812254
  70.0771332  99.3815231  47.2679663  70.0160360  99.7996998  45.8145618
   1.3634177  53.5216188  62.6051378   2.0222060  53.7265348  63.2686377
   0.6453854  53.1219387  63.0959702   0.7944337 106.3380814  16.9894052
  -0.0531206 106.7794037  17.0452583   0.9736398 106.2815475  16.0508311
  18.3224487 105.9672737  58.8286829  18.9876831 106.5762520  59.1493702
  18.3376825 106.0749626  57.8776836  88.2448292  98.7407303  56.2078905
  88.1632137  98.3309174  55.3467131  88.8725185  98.1905460  56.6764355
  78.5391140  73.9528275  94.3710518  78.7368488  73.3252668  95.0662518
  78.8891935  74.7839165  94.6919346   6.9475269   3.7700054  76.3647366
   6.0034084   3.8938630  76.2671089   7.2863340   4.6462309  76.5482330
  98.7907124 104.8982906  59.2923880  98.0720329 104.5749092  58.7490988
  98.4311676 104.9162292  60.1793146 104.5642567  74.6786880  44.6334362
 104.5023537  73.8406324  45.0917578 103.7987137  74.6946812  44.0590620
  90.7231808  92.5326824  41.7036724  91.3732147  91.8300915  41.6966295
  90.9131241  93.0267334  42.5012112  83.1604004  47.3884010  25.3700089
  83.6022091  47.5594711  24.5382810  82.6340199  48.1722546  25.5272603
 113.2780170  56.2482071  64.0996695 114.0139484  56.2426662  63.4876204
 113.4409904  57.0044756  64.6633530  21.2404871 102.8053951  51.9612980
  21.8787241 102.8153038  52.6745892  20.5685425 102.1877003  52.2497082
   6.4770937  87.7630901  21.1686754   6.9432634  87.1558380  20.5940771
   5.5515170  87.5652981  21.0257816 113.4496689  96.6861343   3.3314517
 113.8841343  95.9890556   2.8399724 114.1650677  97.2375488   3.6482543
  91.9805622 104.3104935  38.3737302  92.6105022 104.6711063  37.7497458
  92.4048328 103.5229588  38.7143373 104.5562077  65.8929777  33.6878371
 103.7612820  66.2510252  34.0829659 104.5692635  64.9766445  33.9642334
  26.5417147  90.2622032  11.1151397  26.0435224  90.9171009  11.6041553
  27.4456310  90.5754185  11.1477232  19.2563367  82.7700806  49.2899036
  19.7907591  83.4578896  49.6868134  18.3761382  83.1440353  49.2494059
 113.3712482  59.9804306   4.2368191 113.1269455  60.6512547   4.8744249
 112.5852394  59.8585415   3.7043220  99.5936108  93.8135719  86.9516659
 100.3725433  94.3226337  87.1760368  99.9213600  93.1068516  86.3954735
  98.9474392  78.9990711  46.5707397  98.6533260  78.5482550  45.7792234
  98.1452751  79.1567850  47.0686293  20.2490163  86.1716557  65.1153374
  20.3323150  85.2928448  64.7452354  19.4004989  86.1655617  65.5582952
  91.8228722  79.7884941  31.5040660  92.3592854  80.5620193  31.3303971
  91.0749340  79.8781872  30.9135032 115.7400894  90.9747982  70.3472137
 115.2091599  90.3302765  70.8151197 116.4381027  90.4607868  69.9412584
 104.4436455  84.8669815  87.0914841 104.5526218  85.7653713  87.4033451
 104.2202568  84.9603558  86.1654186  31.7653608   5.0942618  69.2927217
  32.0251107   4.3371224  69.8176050  31.1963654   5.6025648  69.8707390
  18.8627923  82.7536488  40.3477764  18.3521616  82.4503994  41.0984612
  18.5369265  82.2359180  39.6115732  76.2580729  82.1822834  23.0994987
  76.7302942  81.8795490  22.3238730  75.3560591  82.2979069  22.8007841
 106.7664051  78.8695002  15.3918648 106.2418270  79.2133617  14.6688080
 106.1469746  78.7809563  16.1162257 106.6060448 103.1771660  14.5073879
 106.3656712 102.5751781  15.2117026 107.3363972 103.6830902  14.8635614
  86.4594555  98.8822365  19.1213179  85.6553936  98.4057713  19.3279719
  86.9789696  98.2638550  18.6075675 107.9628563  84.7685623   8.3916765
 107.7324200  83.8398170   8.3679932 107.1957970  85.1960182   8.7726325
  19.2699361   6.6208762  16.7975760  19.8803401   7.3394966  16.6325772
  19.7001839   5.8509797  16.4255834   2.2246245 104.6404266  32.9101229
   2.7017698 105.0243473  33.6457658   2.5244874 103.7319756  32.8780866
  12.1347630  81.1906624  50.3985167  11.5342474  81.0123634  49.6747637
  12.3614717  82.1153259  50.2993774  56.0796261  22.8457856  20.0302744
  56.2929678  21.9223595  20.1644397  55.8348322  23.1637645  20.8992958
 109.5717239  79.3943882  20.9257174 109.8106670  78.8404226  21.6688609
 109.2067719  78.7872410  20.2819705  93.9804077  91.8016624  62.4180317
  94.3128872  91.3991928  61.6157198  93.9840412  92.7410126  62.2340727
  12.5344133  88.4278488  60.6154060  12.4777353  88.5566616  61.5622044
  12.9069149  87.5518703  60.5147409  81.4706993  95.4067421  32.0780444
  81.1471748  94.5726013  31.7378068  82.2945595  95.1850319  32.5120306
  22.0351747 109.4758531  61.2057972  21.9783690 109.9861539  60.3979635
  21.1320451 109.4204189  61.5180826 104.8763657  49.1623354  74.1359425
 105.7266521  48.7404966  74.0122366 104.3783760  48.9320469  73.3515930
 109.6929359  28.4205151  88.5452175 108.7369061  28.4519696  88.5806942
 109.9163723  27.5503540  88.8755703 104.5886993  45.0937796  27.4150300
 104.9275589  45.2089500  28.3028030 103.7673473  45.5852509  27.4065328
  98.1878567 101.5889072  77.5213814  98.4199047 100.9818554  78.2241440
  97.3290825 101.9290257  77.7725124  20.3923583  63.3456135  47.8057146
  20.8226466  62.5757170  48.1776667  20.2695727  63.9344883  48.5502863
   0.2978001  88.5190868  19.9334037   0.6630383  89.3056202  20.3386021
   1.0337124  88.1287766  19.4618917 103.1032276 102.0017147  77.3795986
 103.9590740 101.8809605  77.7909184 102.5226879 102.2436142  78.1011820
 113.8438702  86.2856007   8.3813787 114.4526863  87.0000172   8.5689527
 112.9856968  86.7073917   8.3380741  33.4344578  13.8363373  72.8255701
  33.7550497  14.3807173  73.5446692  34.2210412  13.4246933  72.4677038
 100.1764584  91.0101509  45.7174683 100.1884079  90.7084560  44.8091364
  99.6331406  90.3689957  46.1756802  46.9189644  26.6443062  92.4092579
  47.1444845  26.6604304  93.3393669  47.2851515  25.8202267  92.0882702
   9.1530937  90.6091976  70.3492069   9.9571407  90.8172703  70.8250666
   9.3797290  89.8455906  69.8183823  85.4436398  72.2284746  35.8370733
  85.1885319  71.3698912  36.1746883  86.0609627  72.0346832  35.1316690
  74.0808535  80.8161259  85.6231499  74.1704988  80.0203896  86.1475468
  74.2097235  80.5240822  84.7207546  73.7678051  67.9333639  44.8116112
  74.0307903  68.8514185  44.8768139  73.4229040  67.7208471  45.6788540
   5.9829426  75.2805090  27.1579385   5.0665390  75.0067139  27.1963143
   6.1817193  75.5770206  28.0460835  18.0623424  45.3805780   8.8408899
  17.6463473  44.9180079   9.5683581  17.5915754  45.0781775   8.0642533
  42.9030085   5.6855583  11.5395355  42.7437449   4.7935954  11.2308788
  43.5017967   6.0593808  10.8930540  25.8964920   3.7199751  49.1651392
  26.2534809   4.2696863  49.8627090  25.0407004   4.1030720  48.9725494
 101.3726997 106.7513943  82.4253750 101.9806004 107.4499035  82.1829605
 101.9211388 105.9699631  82.4947548   3.5446087  81.9459152  47.8531981
   2.6799822  82.1444130  47.4936819   3.9439762  81.3622475  47.2081614
 114.2131519  99.2054367  39.2331004 114.9372482  99.8056507  39.4110584
 113.6849785  99.2240429  40.0311708  88.3489037  78.5519648  39.4211960
  87.9426670  79.2892170  38.9654875  87.9834270  78.5860538  40.3052187
  97.0894241  98.2435131   3.4253207  96.7799091  97.4360752   3.8357860
  97.8475761  97.9734230   2.9071653 104.0610790  99.5599174  30.5186486
 103.5948563 100.0375080  29.8325229 103.8162518 100.0057888  31.3295054
 110.7608700   0.6812697  76.0763168 110.4760075   1.5736493  76.2731647
 110.0684643   0.3263179  75.5188036 113.3207607  54.6784401  45.5903482
 113.0117321  53.9960909  46.1862755 112.9055023  54.4713354  44.7531509
 107.9465389  70.0584602  57.7892208 107.8185177  69.8846912  58.7217665
 107.7450848  70.9888506  57.6890898  83.3645916  75.4794645  45.0668764
  83.4849358  74.6114254  44.6818447  83.1924438  75.3089571  45.9929037
 101.3886166  92.8994465  33.3541965 101.2164974  92.8413391  32.4143958
 101.9523144  93.6674213  33.4474206  21.3151646  94.0324211  46.3819981
  21.7478561  93.5392761  45.6849909  20.7227015  94.6272755  45.9222555
  61.8835592  19.8434949  36.3258266  61.2224102  19.2354846  35.9950161
  61.7768097  19.8192585  37.2767472  65.1537180  90.9041882  43.4549952
  66.0874557  91.0944653  43.5452843  64.9995041  90.9043598  42.5102997
  47.4733543 105.9849548  31.3031697  48.0065489 105.8835793  30.5147171
  46.9216585 105.2029610  31.3214064  16.9875515  19.0472817  16.8370259
  16.8849874  19.1605139  17.7819550  17.7276504  19.6092045  16.6074002
 112.4972916  99.7348309  14.9256051 112.3437405  99.0405369  14.2848146
 111.8776608  99.5505524  15.6315291  46.1357641  91.3794041  33.2798672
  45.5150604  92.0593262  33.5419083  45.7870626  90.5754662  33.6649871
   2.2510675 109.5347231  43.9728022   3.0019286 108.9737867  43.7784147
   1.7108110 109.0142325  44.5673180  50.1845312 107.0958805  32.8816342
  51.0737705 106.9587517  33.2082653  50.1679611 106.6469574  32.0363951
  57.7062893  98.8901138  37.9972768  56.8148804  99.0799809  38.2897949
  57.9181576  99.6039772  37.3958206  14.0111697 104.2606354  70.6997633
  14.9061131 104.4399166  70.9881496  13.5025859 104.2180252  71.5095520
  46.1499596  10.4704225  28.3747506  46.4906502   9.9869144  27.6221657
  46.8110180  10.3494465  29.0563631  93.9487457  14.5637465  47.7980757
  94.2877007  14.3085527  48.6561060  94.7169685  14.5626247  47.2270632
  45.5437756  17.7604008  23.3296418  46.4280176  17.7118707  22.9663324
  45.3664970  18.6981010  23.4039545  32.4529386  94.9074745  26.4859223
  32.7613807  95.7508659  26.8172693  32.0293832  94.4948292  27.2386217
  33.2225132 103.0242443  16.7921817  32.6884842 102.2301769  16.8145692
  32.8754020 103.5663795  17.5005925  56.1332941 102.4500179  28.8541722
  55.5418491 101.7990017  29.2317986  55.6446314 103.2718849  28.8985825
  90.2035046  76.6121244  90.4187012  89.6356106  76.4323330  89.6694374
  89.8443794  76.0758209  91.1255550  43.1660748  11.8846071  37.8036475
  42.3863554  11.3838887  38.0435419  43.4678555  12.2672474  38.6275077
 115.3543758  91.4815044  14.4941115 114.9102211  91.0379887  13.7714434
 115.0175762  91.0532951  15.2811539  39.1341567   0.7379630  28.7947035
  39.9685287   0.3315994  28.5603476  39.0741992   1.5063775  28.2270956
  41.1925173   1.3161425  34.2028999  42.0175982   1.1828089  34.6694803
  41.2180328   0.6829844  33.4854794 113.2884216  86.3734913   4.4449535
 113.6382484  86.8375206   5.2055633 113.1178284  87.0618343   3.8020557
  57.6433086  14.9167335  48.5534954  56.6962385  15.0093508  48.4499931
  57.8433561  15.3897309  49.3612623  50.4985714   0.2471464  50.1576757
  51.2123156   0.0596546  49.5480490  50.8634377   0.8934551  50.7621527
  71.2162113  15.5847549  42.6214409  71.1467409  14.7330546  42.1901464
  70.3277111  15.9398568  42.5948763  37.0125723   8.2046854   7.7193195
  37.5019622   7.4479693   8.0419797  36.1020827   8.0155474   7.9461837
  56.6900778  20.1247001  29.5155239  57.5897026  20.1239634  29.1885614
  56.7811537  20.1722145  30.4671955  63.1105566  29.9749160  18.0504656
  62.2112036  29.7167540  18.2523251  63.3752918  30.5200458  18.7913954
  34.4180179  11.3311636  31.6128731  33.9703012  10.9673989  32.3767161
  33.7252641  11.7611849  31.1114717  81.8140602  25.9461904  53.3886051
  82.4030399  25.9575152  52.6341438  82.0473671  26.7297959  53.8863659
 107.2069359  72.3369837  91.9280815 107.3253536  73.2714796  92.0981312
 107.0445728  71.9552517  92.7907276  61.7966747  19.7731626  16.5650177
  61.9716454  20.4714584  17.1958911  61.3030624  20.2007723  15.8652115
  58.6905098  26.9073987  55.4722595  59.4813061  26.3769078  55.5694675
  58.5386562  26.9401264  54.5277500   7.9545081  66.0384846  83.6752129
   7.2297788  65.4330063  83.5190201   8.7318343  65.5618191  83.3840275
  98.4415340  31.3365769  68.1305695  97.9080677  30.5418444  68.1237173
  98.3975124  31.6623473  67.2315884  26.9469643  91.4449692  20.8084750
  26.0891438  91.1161995  20.5396080  26.8107891  92.3817921  20.9500933
  60.2070045  11.0358095  29.7634411  59.2587090  10.9804082  29.8813677
  60.5508614  10.2710974  30.2251863 105.3875160   2.3666622  45.9423828
 105.6472588   1.5243077  45.5692768 104.7063828   2.6899952  45.3526878
 108.3185005  67.4736023  88.9248943 108.0707741  66.9498444  89.6868324
 107.8730392  67.0525265  88.1897163  80.1003265  90.2736092  30.7919645
  80.8984184  90.1156044  30.2876592  79.6502542  89.4288445  30.7989693
  17.7599418 108.0887794  49.9547148  17.0907533 107.4953079  49.6138239
  18.3305538 108.2617855  49.2059135  39.4916558  18.4963393  19.6587229
  39.0214896  17.8175962  19.1744888  40.0656939  18.0127120  20.2527070
  53.0637789  98.9405251  45.5283403  52.9806089  98.4584618  44.7055912
  53.7057066  99.6253681  45.3408337  68.3772135   7.2899693   0.2806827
  68.4702730   7.8823656   1.0267647  67.4966908   7.4616879  -0.0531205
  17.8172362  80.7073021  21.5461993  17.4714303  80.3625393  22.3694754
  17.2185993  81.4170361  21.3134933  72.3340559  29.9101448  50.9605074
  72.7259064  30.6998777  50.5876780  72.3135996  30.0750279  51.9031763
  29.9168110  86.4762688  30.2160859  29.5502281  87.3604393  30.2253985
  30.5101871  86.4550877  30.9668779  21.7761326  83.0585766  51.3829517
  22.2523165  83.8888550  51.3938761  21.5660715  82.8908348  52.3016310
   5.9125882  65.2965498  51.8153811   5.5547810  65.2225637  52.7000999
   5.2499372  65.7873106  51.3292933  50.6189823  45.1513338  23.8242507
  50.3106022  44.7826052  22.9964995  51.0767365  44.4281387  24.2528343
  32.3682427 109.5710087  42.1139669  31.5355682 110.0375557  42.0417309
  32.6788282 109.4942474  41.2118149  18.3597684  97.9861450  24.4425321
  17.4144781  97.8472900  24.3844199  18.4876025  98.8889027  24.1511250
  40.7892418  14.1801047  54.9602175  40.6021595  13.7858868  54.1082668
  40.1548576  13.7789488  55.5542469  78.4897375  18.5543299  19.8247075
  79.3277979  18.1292176  19.6425998  77.8441381  17.8511643  19.7540510
  52.0833683  35.2676916  46.7347050  52.5799942  34.7101593  47.3336649
  51.4241886  34.6856141  46.3566828  12.2407734  93.7505245  33.7409186
  13.0624008  93.5992527  33.2737184  12.4115264  94.5211601  34.2824006
 114.9763680  97.7933407  17.3465204 115.8584499  97.9860878  17.0287097
 114.9370670  98.2061768  18.2092190 111.9919109  22.0583606  25.0605702
 111.5688801  22.6527977  25.6801844 111.4448357  22.1008849  24.2762661
  69.0712690  18.7428260  26.8713427  69.7256374  18.3476210  27.4474049
  69.5782471  19.0984559  26.1414552 101.3634014  52.9732990   9.9052972
 101.8496132  53.5731506   9.3396068 100.8476257  53.5452223  10.4737198
  28.9132905  94.8293972  41.8212271  29.1200781  95.7415771  41.6177511
  29.0068436  94.7689247  42.7719259  87.8052902  27.6746011   4.9080265
  87.5767994  27.8029037   3.9873958  87.6349258  28.5228324   5.3175497
 113.7521839 104.8522758  43.9833164 113.1909180 104.9192810  44.7557926
 114.6414757 104.8174095  44.3356991  65.7141066  14.3793643   9.1905999
  64.7888231  14.1552186   9.2898065  65.7611322  14.8364007   8.3508748
  58.1339407 101.4885426  27.3221755  57.3719263 101.9467354  27.6766062
  58.2449436 100.7297134  27.8949642  90.2997303  17.7965236   6.0985684
  89.5964622  18.1368315   6.6515875  89.9021339  17.7089584   5.2322662
  63.7742805  10.2123451  24.6993351  64.6495104  10.4073370  24.3643999
  63.4851933  11.0300028  25.1044250  29.9331975   5.5168629  33.6380887
  29.5928335   5.1546705  32.8200412  30.8609176   5.2811420  33.6367130
 104.0132427   4.2286748  30.4750586 104.2501068   3.7834820  31.2886500
 103.7096596   5.0924408  30.7542992  55.6806755  92.1395779  17.8236198
  55.0308514  91.4531994  17.6724899  56.3490868  91.7212963  18.3662939
   8.7401396  99.6992397  51.1329317   8.2106912  99.8327827  50.3467464
   9.3886918 100.4027748  51.1072874 114.6522427  11.1500227  61.9503784
 115.0077057  11.8359423  62.5155258 115.1629257  11.2159538  61.1434841
   9.7662389  84.1249275  26.8948269  10.1078248  84.2482567  26.0091972
  10.3791761  83.5148621  27.3051476  40.9817886  10.3937805  28.4157991
  40.2132177  10.3980565  28.9863300  41.2922001   9.4886047  28.4389067
  99.6265697 106.8412399  42.6193333  99.3008232 106.9285107  43.5151625
 100.4803467 107.2738457  42.6317310  49.2043209  23.8378620  14.3807971
  49.1494131  22.9103518  14.6108842  49.7249031  24.2283559  15.0827551
 109.0939140 107.4589539  62.2466850 108.8971901 107.0589161  61.3996267
 108.4239101 108.1340694  62.3541164  61.2272310   6.2277222  44.5521450
  60.9225655   5.3562701  44.8050880  61.4644337   6.6478336  45.3788710
  45.2656651  13.4313989  39.2483425  45.8034611  13.0681753  38.5447264
  45.0446701  14.3136084  38.9498425  20.8605194  99.6389103  58.5803556
  20.4608703  99.8244762  59.4301033  20.2709889  99.0051270  58.1716967
  49.8898935 109.2961216   3.2048050  49.6707582 109.1387653   4.1232002
  49.0591764 109.5450497   2.7996108  44.4738054  15.5448520  35.2550983
  44.3496418  16.4646232  35.0209284  43.5883904  15.2151680  35.4086709
  56.8439102  26.3475442  23.3384132  56.9170475  25.9847927  24.2211890
  56.4496946  27.2104216  23.4659410  30.1983142 104.4722748  26.1118269
  29.5553923 104.5244503  26.8190479  30.2917266 103.5349560  25.9417319
  38.9349771  15.8779442  20.6315136  38.4470987  15.3693640  19.9837840
  39.6173000  15.2815866  20.9397697  94.9143219  42.8931665  90.7366180
  95.1915550  43.7881994  90.5409336  95.0832748  42.4080944  89.9289131
 115.4390621  81.2233257  91.2246799 115.8370781  81.3530350  90.3638744
 114.7094250  81.8424988  91.2469578  47.0807886  19.1196430  31.8793607
  47.7103090  18.5862565  31.3941479  46.2602711  18.6296034  31.8260002
 106.6390228  99.1462612  33.9614439 105.9713173  99.0632915  33.2806230
 106.2253761  99.6815872  34.6386147   8.3878398 104.7236729  61.8741417
   9.2780215 104.8844719  62.1871138   8.0734903 105.5833054  61.5940523
  45.9035492  83.9974022  15.1594508  46.0438013  84.4454288  14.3252873
  45.0120449  84.2366123  15.4128802  60.6219435  15.4183137  50.3187466
  60.8032894  16.3513482  50.2056456  61.2330103  15.1363397  50.9994221
  19.9358082  84.7469234  35.2592802  20.6824708  84.2030239  35.0084829
  19.1780293  84.1687870  35.1711798  25.4655981  76.6040993  65.1285696
  24.7370815  77.0584154  65.5517626  25.9926176  77.3038816  64.7428370
 106.2357616  98.0409336  58.3016443 107.0664406  98.4228325  58.0181599
 105.6760311  98.7951469  58.4862852  36.5493131  94.4848537  48.1414938
  37.2737336  93.9059544  48.3788204  36.4125228  95.0279331  48.9177513
  39.5718145  14.3496490  36.4358616  39.0708637  15.0608134  36.0364580
  39.4657421  13.6138880  35.8328390  68.1732655  21.7846656  36.8525124
  68.8882732  21.8229198  36.2172747  67.8472710  20.8866978  36.7924094
  85.6104469   8.3093190  34.3694711  84.9554157   8.3913463  33.6763334
  86.4091873   8.6742407  33.9885855  95.4660416  24.7727942  71.2055063
  95.8443260  25.1573396  70.4147720  94.6671391  24.3408442  70.9031868
  70.9091616   6.8977535  30.6529331  71.7814207   6.5184015  30.7600975
  70.5312777   6.8816161  31.5322351 109.7297478  21.9602299  20.3783560
 110.0460148  21.8375754  19.4832778 109.2790127  22.8044558  20.3595471
  99.7640324  14.9569690  40.3473282  99.7789669  15.9121656  40.4073906
  98.8346863  14.7351074  40.2897215  57.2984552  20.0566483  47.6241159
  57.0958900  19.7842097  48.5190916  56.5818787  20.6443691  47.3846722
  89.0569019  43.3307076   5.9359312  88.6236954  43.9658070   5.3656602
  88.4772491  43.2549095   6.6938782  68.7686110  21.8158221   6.9522017
  68.4326410  22.2449446   6.1653024  69.6653414  21.5689182   6.7260426
  60.6819868  21.5807199  14.9165082  60.2603531  22.4386978  14.9647486
  61.2837934  21.6509175  14.1754711  61.4285135 101.5644360   7.2907585
  61.7921925 102.1572590   6.6330850  62.1254969 100.9283161   7.4513745
  95.1993942  31.7584419  30.7916355  94.8237228  30.8786798  30.8251119
  95.8760071  31.7044330  30.1167130  38.2331657 106.3883495  37.4584126
  37.7898836 106.5631580  38.2885814  39.0908909 106.0474491  37.7120304
  20.1866436  49.4465733   2.6034439  19.4156599  48.9022064   2.7630603
  20.7970643  49.2077208   3.3009875  45.7447577   4.1497147  25.1785111
  45.9289312   5.0729805  25.3514004  45.3609085   3.8254124  25.9931993
 103.5406399  48.9539003  55.1068306 103.6505318  48.0100536  54.9914742
 104.4109535  49.2681885  55.3518152 104.3391705   7.2392136  24.2433143
 104.5098400   8.1489849  23.9995527 104.7114658   7.1525049  25.1208735
  40.6370974  85.7186222  21.8529415  41.4327240  86.0811806  21.4633775
  40.8958197  85.4728794  22.7411461  93.0890369  28.8375783  27.2658491
  92.6057816  28.7962055  28.0910707  94.0057850  28.9186406  27.5289464
  37.6604342 105.1713657  33.0624342  37.7420545 105.8836937  33.6966014
  38.5070848 105.1496029  32.6164055 102.4067879   9.0924740  40.6092739
 101.8521976   9.7704172  40.2232027 102.5276756   9.3702686  41.5172672
  50.7246399 102.8660297  43.5204697  50.3994036 103.3504677  44.2792654
  50.8082008 101.9641113  43.8299656   4.5564038 103.4224892  25.3583932
   4.4467297 103.7028599  26.2670159   5.4335821 103.0404186  25.3298473
  88.1134415  27.0914197  56.3346243  87.4574566  27.7620816  56.1445427
  88.9522266  27.5275159  56.1846876   3.2863241 100.9763336  39.8542809
   3.8172907 100.2428913  39.5438600   3.3923411 101.6499615  39.1825533
  71.7166519   6.9319439  42.5106859  71.5115118   6.2781054  43.1790018
  70.8627796   7.2378010  42.2047806   1.6138530 104.1736889  40.1656008
   2.0254940 103.3243179  40.0063753   0.8263635 104.1639519  39.6215415
  78.1876802  13.5121620  52.6276016  77.7810812  14.3149543  52.3013592
  77.5079775  13.0985832  53.1597567  59.9618673 100.3897762  31.9163394
  59.3558741 100.3492546  32.6561785  60.6305075 101.0183048  32.1885538
  96.8595600  15.9660864  56.8001223  97.6302624  15.9422803  57.3672915
  97.1904564  16.2825978  55.9595490  53.5393572  26.4013553  54.9114466
  54.2381859  27.0305872  54.7327518  53.9524555  25.7337189  55.4590225
  66.7575693   8.4206682  71.3514614  66.8905067   8.3214879  72.2941828
  65.8065653   8.4391391  71.2443161  43.7178183  97.0659161  23.7460947
  44.5943785  96.8115139  23.4577250  43.1768370  96.2945175  23.5772204
  37.9716301  75.2225065  19.5509970  37.1018457  74.8228788  19.5532060
  38.5162163  74.6081972  19.0587771  57.6569223  30.2218843  21.8223071
  57.0503378  29.8824239  22.4803782  57.2413063  31.0233450  21.5042567
  86.1115170   3.3053902  35.7783699  86.4111328   2.4183837  35.9775782
  85.5487156   3.5395020  36.5163922 108.5574341   5.5863458  26.5401292
 109.0325928   5.2303231  27.2909284 107.7064991   5.1487458  26.5658021
  92.7161789  39.6211910  90.3547764  93.1295872  39.7580385  89.5023727
  92.9757881  38.7351799  90.6074047 103.6421776  12.1491468  41.2422943
 102.7435398  12.4608743  41.1350346 103.6038113  11.5632081  41.9982290
  32.7088380  94.1728592  10.1469922  33.4939361  93.6675835   9.9359339
  32.8257513  94.4257355  11.0627532  85.5199528  26.7326450  54.0518904
  85.6073380  25.9583879  54.6078777  85.6744194  27.4701118  54.6422434
  74.4315863   6.7307019  53.5230827  74.7594166   7.1249294  52.7147865
  75.1071119   6.9216168  54.1738129  52.3209667  92.4951458  40.8264208
  52.0285034  92.2702885  39.9431705  51.5146399  92.5479984  41.3395262
 106.6282654  23.0163455  47.7186775 106.6850376  23.2745910  46.7987204
 107.5174332  23.1295395  48.0545378  52.1334028   3.5434234   6.3528574
  51.7689514   3.7273338   7.2186434  51.4563322   3.8332808   5.7414740
 103.2226467  11.7082667  45.9768724 103.0272007  10.7888818  45.7958746
 102.9722881  12.1685565  45.1758194  78.7179041  17.1588361  73.8164854
  79.3387127  17.4413872  74.4880438  78.5504580  17.9462314  73.2986069
  57.2267294  12.3533249   3.9046282  56.5849352  12.9707634   3.5537702
  57.2778463  12.5648355   4.8367667 113.5363770  63.4225750  81.3147640
 112.6995564  63.5944986  80.8830166 114.0659142  62.9878664  80.6462955
  46.6526031 109.4009781   9.7108912  47.3657179 108.8148880   9.4575340
  45.9484720 108.8152218   9.9889451  99.4787502  18.1373024  40.7990074
  99.2045021  18.9543641  40.3825617  99.7399521  18.3949947  41.6830873
  54.3880367  30.8529115  37.3791575  55.2566385  31.2329841  37.5107408
  54.5335627  30.1273084  36.7720699  51.2683201  24.1854835  56.3511133
  51.6122723  24.7618818  55.6686974  50.4291058  24.5764089  56.5942764
  35.5776882  95.8304882  36.2462020  36.0048580  96.6131783  35.8981156
  35.5467844  95.9750366  37.1919203  83.6167908  18.3320272  13.8596618
  83.3891106  18.2440984  12.9341006  84.0031624  19.2050040  13.9293849
   1.6389582   1.3516916  63.0901098   1.5407179   0.5631855  63.6238098
   2.3071563   1.1220971  62.4443293  79.2203808  17.6279736  64.5968580
  79.4668865  17.6664269  65.5209732  78.7023592  16.8267095  64.5202923
  95.2473354  25.1411438  46.6003942  95.3957081  26.0070014  46.9805384
  96.0165215  24.9851370  46.0524368  55.2599192   9.1369510  35.0290203
  56.0213089   9.7155756  34.9876881  54.5565128   9.6905422  35.3681159
   8.4626144  85.0354671  34.1877460   8.7560105  85.3839207  35.0296068
   9.2105424  84.5347214  33.8620234   6.0787928  47.1839333  69.0424919
   6.9139218  46.9084597  69.4205236   5.7705635  46.4177179  68.5586119
  99.9055767   1.2202496  50.9277773  99.5977116   0.9887548  51.8040562
  99.5710945   0.5224995  50.3643036  43.5456419  25.3536344  32.9516792
  43.9237881  26.1199427  32.5203872  43.3332348  24.7558570  32.2348952
  93.5691738  13.1125653   9.3118656  93.6863995  13.7713611   8.6274111
  94.2901516  13.2697165   9.9215621  47.3685455  99.5043659  43.7692976
  48.0428362 100.0830936  43.4134293  47.7911758  99.0721798  44.5114756
  78.1192780  26.4574552  38.9854479  78.7018490  27.0299959  38.4864116
  78.2597828  25.5877709  38.6110973 110.9580326  29.3424749  31.2118912
 111.0880852  28.4008336  31.3242722 110.0137997  29.4409394  31.0895872
  43.0753851  85.5994606  82.7697754  42.3143721  85.7260704  82.2031593
  42.7426815  85.7492638  83.6547089  50.0955343 103.2904720   0.0371191
  50.8296394 103.8178635  -0.2778130  50.3512669 103.0278111   0.9213356
  23.5387850 107.8832817  11.5312600  24.4176078 107.6737785  11.2150180
  23.6851597 108.3474159  12.3555124 110.6904030   2.5382060  22.5959587
 109.9808025   3.0607137  22.2222042 110.3698635   2.2828916  23.4610009
  83.9099216  38.9374948  -0.1908785  83.7414265  38.7611485   0.7347248
  84.4935513  39.6961784  -0.1877763   2.9592350  75.1290226  92.2899055
   2.4881326  75.4050159  93.0761051   2.6964951  75.7596779  91.6194725
  49.1793108 106.5620327  18.0238223  48.7033081 107.3493481  17.7596557
  49.5134687 106.1978340  17.2041106  88.2242489  19.1663086   7.1500850
  87.7520561  18.3387864   7.0580667  87.5371456  19.8320222   7.1807265
  34.4745302 106.6638374  25.5918002  34.5756698 106.4971828  26.5289378
  33.6389947 106.2557220  25.3647566 105.1614189  23.3097148  66.9605589
 105.5679798  22.4432254  66.9725704 105.4780293  23.7339091  67.7580881
  34.9662042  89.4519329   9.7169900  34.9890757  88.6969566   9.1290194
  34.0390658  89.6829605   9.7741979  13.1744349  76.2132645  77.5839424
  13.8562500  75.6442499  77.9411316  13.2126224  77.0017529  78.1252909
   3.7462637  91.3949680  81.2542725   3.3692312  90.6245804  80.8293343
   3.3088338  92.1369553  80.8367252  84.8207760  10.3298330  20.2281475
  85.4426289  10.7505119  19.6343863  84.8084068  10.8942032  21.0011697
  26.8707228  98.4337902  25.2546287  27.5295925  97.9954910  24.7160983
  27.2267318  98.4010410  26.1425591  86.0268402  29.9109459  80.4330826
  86.9504452  29.9086809  80.6844711  85.7590961  30.8264518  80.5130386
  60.4050350  27.9345036  41.1726284  59.4852734  28.0664706  41.4025307
  60.5399942  26.9906425  41.2571430  47.0171213  97.3561096  52.4089718
  46.0827971  97.3803997  52.6155615  47.0596886  96.9608212  51.5382433
 106.6003323  81.1097240  90.9037590 105.6859875  81.1818886  90.6299210
 106.9470215  80.3795910  90.3909779  31.1397099  93.5239601  28.4504175
  31.4029837  93.0026627  29.2088199  30.3114533  93.1355572  28.1686807
  30.3324866 104.1542816  20.2661037  29.9019551 104.2457390  19.4160974
  30.6441736 103.2493687  20.2805805   8.1469715 108.5204220  35.5805588
   8.0936247 107.5654507  35.5430007   8.2333517 108.7916088  34.6666503
  76.0809469   2.9900536  36.1672354  76.2861252   2.1008578  35.8783317
  76.9307709   3.4276822  36.2173843  70.4251194  23.2204509  15.9376252
  70.3158426  23.9441395  16.5545249  70.3199005  23.6227179  15.0754523
  20.1222682  97.2757435  30.8286166  20.0300264  96.8413734  29.9806499
  19.2441154  97.6000500  31.0283804  52.4515200 108.3839130  30.3734350
  52.2476768 107.9469013  29.5465732  51.8793917 109.1512108  30.3862143
  39.5847464  16.4870858  14.4182909  38.8557816  16.0621083  14.8702145
  39.4497681  17.4220872  14.5725191  90.6607246  23.8382578  69.9011612
  89.9526691  24.3951297  69.5774698  90.5774689  23.8745761  70.8540392
  62.5227261  17.9431272  20.3807211  63.0436087  18.7177479  20.5925560
  62.8859282  17.2516227  20.9340191 111.6434574   3.7768430  28.0254436
 112.3892879   4.0290147  28.5698462 110.8809853   3.9041144  28.5899544
 109.0727425  54.0503550  86.1913490 108.4498119  53.3303595  86.0923767
 109.1293907  54.4397116  85.3187466  18.0761659 108.1378651  15.4839957
  17.6518238 108.9955521  15.5073726  17.4941540 107.5971699  14.9500132
  82.2099495  37.9917598   6.5486372  82.1147919  38.3693361   7.4230587
  81.8620396  37.1039248   6.6319603  83.0143642  14.6542549  33.5331321
  83.5895920  14.4789624  34.2778587  83.0604553  13.8589430  33.0024862
  40.1912498 103.1792068  35.3452373  41.0383272 103.6249447  35.3479290
  39.8717427 103.2774734  34.4483042  81.7001152  10.9471977  43.0212402
  81.4627552  10.8849812  42.0960236  81.3471031  11.7911828  43.3028412
  52.0427084   4.5640680  56.0054874  51.5453291   5.3817904  56.0188675
  51.9750214   4.2279097  56.8991613  75.9622812   4.9904886  41.9073248
  75.2478886   4.5717970  42.3875046  75.9065199   4.6220309  41.0256433
 101.3756275  69.4903803  89.4122601 100.9166050  68.9815140  90.0805283
 101.0577774  70.3852510  89.5322800  63.9465952   3.0277342  34.9038315
  63.4959555   2.4779069  34.2628574  63.3896589   2.9944491  35.6816149
  58.1421709  36.5794683  55.7990313  57.9557419  37.2089553  56.4956141
  57.9739571  35.7252502  56.1968374  52.9124832   1.7647918  24.2194653
  53.1964445   2.6437616  24.4704843  53.6017036   1.4480406  23.6356187
  27.8689361  20.3304982  60.3778648  27.5557280  19.8589969  61.1497593
  27.6581764  21.2471962  60.5552912  72.1837091  10.8092153  25.9814191
  73.0576420  11.1806333  26.1019373  71.7610407  10.9097278  26.8343425
  62.2808409  50.3469276  29.7707319  62.9357719  49.6501064  29.7290468
  61.9008017  50.3712797  28.8925481  91.2590694   5.4127640  25.4641342
  92.1339321   5.6970334  25.7287788  90.9465599   4.8843586  26.1985397
  72.3144436  17.4661446  23.7640333  73.2096529  17.4714613  23.4252071
  71.7624235  17.4976659  22.9826784  84.8563957  22.1355677  45.6495285
  85.2130508  21.3787889  46.1146307  84.2584610  22.5421739  46.2767220
  68.9080381  48.4128761  10.0827646  68.1792068  48.1900978  10.6619048
  68.9989376  49.3620729  10.1664245  36.0148621   7.5349736  10.9651732
  35.3065681   6.9844925  11.2991202  36.8083334   7.1656215  11.3527477
 111.3682079  65.0218296  87.4117279 112.0620537  65.6812143  87.4089146
 110.6786060  65.3974485  86.8643665  38.2502985   8.8878453  32.5314832
  37.4820232   8.4579140  32.9071689  38.6713791   9.3186474  33.2753468
  69.6206331 103.4548569  24.9283528  68.8967323 103.5680485  25.5442977
  70.0060272 102.6109982  25.1641512  74.7782660   8.9761496  45.6018305
  74.0185308   8.7217438  45.0780821  74.4078445   9.2703390  46.4339781
  25.2666497 105.9195805  33.0943155  25.3588557 106.3150024  32.2275019
  24.3564558 106.0873508  33.3385158  77.8527498  10.5546391  19.8960054
  77.7269983  10.1976967  19.0167952  76.9863510  10.5067909  20.3001046
  50.3393984  40.6552505   1.7517537  51.2181044  40.8333874   2.0869768
  49.9574661  41.5212345   1.6088068 103.1176758  98.6538219  76.6530180
 103.1006908  97.8192520  76.1845779 102.2732067  99.0578175  76.4532948
  82.8758430  14.1251981  43.9476442  83.1569958  14.7134984  44.6484184
  83.6908817  13.7797618  43.5834837  98.4176922  24.8065495  67.7881622
  98.2154274  24.5515251  66.8880033  98.6418247  25.7352805  67.7293682
  59.8221636  27.5094843  35.8948278  60.4776049  27.5590301  35.1990008
  59.3985081  26.6610456  35.7648253  78.7913752  19.5640278  43.8298655
  78.2361317  19.3826067  43.0715656  78.6848593  20.5024362  43.9856815
   6.9422245   1.1575500   6.8266344   6.7189425   1.6192278   7.6348609
   6.2897944   1.4552835   6.1926615  72.4362850  12.0388579  69.5715809
  72.0466852  12.6631224  70.1837397  72.6332092  11.2699187  70.1065397
  31.5559721 105.8175278  69.2786074  31.1292791 105.8296776  68.4218597
  31.8488669 106.7188358  69.4131184  77.0515394  13.6624455  35.2107024
  77.6546812  13.5978031  35.9511590  76.3763475  13.0091941  35.3940320
 107.5492191  40.2090120  36.1815596 107.0136833  40.2555466  36.9735646
 107.3999310  39.3262100  35.8430195  47.4343538  94.0758038  65.4903841
  47.4723148  93.1618786  65.7723856  46.5367317  94.1934395  65.1794624
  74.1909742  29.9664259  41.6325140  73.6737967  29.1612053  41.6519785
  75.0953293  29.6679616  41.5361023  53.5082102 109.4260883  76.4065361
  52.6307058 109.3281269  76.0369110  53.8318777 108.5297298  76.4959717
 114.5736122  86.1382389  20.4973173 113.8100338  86.3243389  19.9509192
 114.8114491  86.9858170  20.8732009  84.3853378  60.7461357   8.9831609
  83.7776184  61.2568283   8.4482700  85.1816845  60.6915379   8.4548789
  71.5091658  11.8240476  41.5672493  71.1636972  12.0954692  42.4176693
  72.4096394  11.5552509  41.7492533  97.8618813  29.1550612  15.9560263
  97.6031399  30.0475740  16.1856031  97.9981041  29.1812968  15.0089312
  74.0162468  28.8392973  24.9982595  73.5741377  28.0909276  24.5973682
  74.3522978  29.3439126  24.2575407  78.0090714  32.9738784  22.6748657
  78.2115841  32.0530796  22.8402400  77.9777908  33.3721972  23.5446906
  68.6588335  19.8840284  14.1586459  68.6416626  19.7012758  13.2192099
  69.5860815  20.0072145  14.3617761  48.3737087 106.9354439  53.7677813
  48.3029175 107.4564934  52.9679585  49.3117046 106.9138336  53.9573288
 100.6345367  31.3224173  43.8541698 100.2818298  31.8527412  43.1396198
  99.8897076  30.8032274  44.1573334  39.2057586 102.3160934  58.1940556
  40.0409889 102.2992039  58.6613226  38.9120293 101.4050770  58.1955338
  58.5620403  92.2405910  48.6940765  59.0352440  91.9515800  49.4743204
  59.2317438  92.2885704  48.0118513  95.8848858  32.0986462  18.9583874
  95.1103020  32.1985388  19.5118022  96.4919281  32.7686191  19.2728329
 106.1398697  91.1515903  45.0518990 105.2023888  91.3368607  45.1069546
 106.5613556  91.9612980  45.3399181  69.9681425  32.0545363  40.2626801
  70.1762438  31.4510560  40.9759378  70.8191872  32.2951150  39.8965073
  56.2398958  93.5743809  24.4501472  56.4682770  92.7669430  23.9895868
  55.9511948  93.2832909  25.3151035  94.0758514  10.4820514   6.8474156
  94.7076607   9.8185855   6.5701729  94.2857456  11.2497258   6.3155788
  52.8899765  22.0414424   8.9462000  53.0567789  21.2269115   9.4204873
  53.5559654  22.6478910   9.2700958  67.8252983  16.1434615  19.9867415
  67.2981882  15.7578695  20.6865311  67.2400761  16.1638629  19.2295551
 107.8519630  84.4069195  92.3479366 108.5009480  84.7016430  91.7090416
 108.2009125  83.5795879  92.6795864  82.1858501  41.9894361  23.2925367
  81.4726830  41.8653679  22.6662421  82.9565907  41.6317368  22.8518105
  76.8851233   2.0430568  57.8587437  77.2024441   2.6037762  57.1508360
  77.6794338   1.6845548  58.2546902   5.8206898 100.2238941  29.8050594
   4.9455962 100.5955982  29.9158764   5.8361679  99.9134541  28.8997293
 106.3848686   8.5978138  32.0373249 106.2332630   9.1169745  32.8270841
 106.3356304   9.2311180  31.3212705 106.6953754 104.0566158  66.3948917
 106.3809013 104.6118259  65.6813908 106.3265133 103.1935215  66.2071705
  67.6649809  25.5184460  19.4134557  66.9942141  24.8426986  19.3151283
  67.7850628  25.6008601  20.3595114  10.5280507  97.9968262   9.3414253
  11.0220683  98.7712288   9.6106368  10.5990624  97.9872990   8.3869106
  43.3133554  17.1988094  25.3051472  44.0193748  17.3476815  24.6761751
  43.7592220  17.0968485  26.1460018  61.0709286   8.5277033   6.8566823
  61.3332605   8.9444470   7.6774979  60.5138063   7.7974838   7.1261752
  42.6905584 109.8006725  57.5291777  42.5214148 108.8667679  57.4049139
  43.4802771 109.8312759  58.0692196 111.2430286  73.2836771  46.6263485
 110.4413033  73.7005997  46.3106871 111.7217731  73.9867592  47.0653391
 109.6996975   2.3617528  32.0566869 110.2140045   2.1940041  31.2670183
 109.5627499   1.4961627  32.4416947  68.1341171  14.1043699  22.1267629
  68.3929682  14.5070720  22.9556537  68.9612198  13.9173353  21.6827536
  64.3047047 100.4436970  33.3011389  64.1504812  99.5035362  33.2087779
  64.9835730 100.5102158  33.9726639  83.3043194  11.4294386  24.9121761
  82.9075527  11.5054023  25.7799578  82.8468323  10.6948543  24.5031214
  64.2086935  45.6828737  31.5626097  65.0285816  45.4271078  31.9852209
  63.5713673  45.0358725  31.8649983 101.4777565  15.0425923  29.4542265
 102.4168110  14.8766756  29.5372057 101.2840939  15.6745434  30.1465869
  38.4927344  92.1563244  43.5017681  38.0905843  91.3567829  43.1623030
  38.8996911  91.8885422  44.3257284  91.2728691  18.4228194  52.1415901
  91.3889980  18.7925863  51.2663651  92.0368004  17.8598809  52.2670650
  52.7768755 109.6294117  13.0846536  52.0369196 109.1767025  12.6799893
  53.0554724 109.0480137  13.7921798  51.4733696  27.1248841  19.6132469
  51.9513655  27.4300408  18.8421261  50.9641695  27.8846455  19.8955774
  90.8375168  12.7471650  29.0334988  91.0456944  12.9960072  28.1329608
  90.1990414  12.0395303  28.9449477  66.3347101  23.8142014  28.7484407
  67.0116377  23.1477404  28.8660455  65.5548143  23.4380603  29.1564989
  76.6347504  25.6762338  33.8949013  76.2169218  24.9098420  34.2877102
  77.1589708  26.0520625  34.6021318  92.0710564  24.5429349  56.5420914
  91.8089390  23.9772177  57.2683764  92.9233265  24.2031336  56.2693405
  45.7991362  97.6248074  40.3347635  46.0481977  96.7287159  40.5610991
  45.3418398  97.9494762  41.1104536  84.1087627  15.5790114  45.9499598
  83.5604191  15.1743364  46.6221094  84.9547863  15.7102060  46.3780546
  78.1203604  26.9234514  46.5909481  77.2895575  26.8355036  47.0581341
  77.9001617  27.4184370  45.8018112   1.1445572  60.5313158  88.4346199
   0.7839359  61.3667965  88.7315273   1.1449323  60.5964518  87.4796391
  58.6948586  25.3536057  44.0299511  58.7134123  24.8363590  44.8351479
  59.1051197  24.7901893  43.3738375  74.5789146  11.8607998  59.4615889
  74.5244837  11.7140102  60.4058981  74.6077442  12.8130245  59.3684864
  81.9601154  13.4464097   8.5935456  82.2158527  13.8628554   9.4165903
  82.7708244  13.0659139   8.2556111  63.3517361  18.4530318  41.1611986
  63.3691931  18.9102674  42.0019484  62.5784302  17.8910434  41.2102079
  38.2510924  13.6360538  19.5577896  38.5913920  13.2005227  18.7762904
  38.7036657  13.2099450  20.2856922  11.4795005  98.5895920  31.9899511
  11.6912282  97.8521347  32.5622773  12.0375896  98.4649658  31.2223339
  14.4692647  90.0413990  24.3326163  15.0764585  90.2040577  25.0544834
  14.5387673  90.8205795  23.7809944  70.7905006  36.6534925  11.5634036
  71.6310263  36.2937760  11.2799358  70.9666348  37.0192957  12.4302351
  63.0382586  36.6741228  12.9159296  62.7174330  36.7040253  12.0145929
  62.8769112  35.7737231  13.1978452  80.6729698  25.0616956  30.8091021
  79.7486353  25.3084588  30.8397913  81.1335564  25.8109260  31.1869192
  44.9562788  25.7062888  61.2172174  45.3513002  26.0128474  60.4010010
  45.3430700  24.8425841  61.3608980  98.4502888  15.1819408  33.3890676
  97.9084301  15.9301007  33.6398149  97.8426266  14.4426823  33.3673334
  41.8820095  23.4905028  21.5654540  41.1642981  24.1147852  21.6722107
  41.4674616  22.6320052  21.6512752  77.4036074   4.5772153  52.4355364
  77.0217657   3.7596449  52.7549219  77.9055738   4.9132574  53.1780577
  94.2056370   2.9475707  33.5536528  93.2534504   3.0187178  33.4864759
  94.3584824   2.6007423  34.4326186  71.7083883  12.1750164  37.3013258
  71.6767216  12.6363814  38.1394005  71.9497347  12.8489554  36.6658807
  67.6121616  29.4322467  42.5300789  67.0639086  28.6657548  42.3623276
  67.9864979  29.2739272  43.3967018   9.1674840 100.5109215  27.1069193
   9.9213898 101.0964203  27.1779275   8.7328118 100.5759239  27.9572535
  91.9190311   7.4281150  63.6170816  92.1452427   7.8157598  62.7716255
  91.2170124   6.8090820  63.4165812  61.0314894  10.4572201  27.0218229
  60.4389763  10.7351482  27.7203345  61.7328453  11.1085784  27.0293713
  53.0047798 103.9196873  42.8639317  52.1312332 103.5835934  43.0644035
  53.5704231 103.1479740  42.8913021  13.4574747  58.3478594  71.4662218
  13.8291848  58.6411953  72.2980976  14.1780996  57.8948593  71.0283613
  45.2875328   5.5477482  34.6760225  44.8975182   5.2531421  35.4990244
  46.0367584   4.9667159  34.5445156  14.5215833  21.9828272  15.3554690
  14.6135008  21.1867905  14.8319161  15.4204488  22.2379279  15.5633044
  96.1142445  10.4307985  86.0297871  95.8626270  10.5019903  85.1089954
  95.2975941  10.5605268  86.5119553  48.8031816   5.5758452  21.3400173
  48.1967878   4.8410773  21.4329529  49.3145418   5.5681872  22.1491408
  98.3443642   2.5532940  69.1458321  98.7213993   1.8368354  69.6564817
  98.9679527   3.2725999  69.2456579  26.1306214  92.1246719  41.2114239
  26.7690253  91.9632530  40.5167198  26.3686109  91.5077114  41.9034910
  63.9284420  38.1471753  39.4149804  63.9977837  37.1968412  39.3239355
  64.4852257  38.3572197  40.1647139   6.1867249   4.7865930  33.2747293
   5.3880262   4.7540602  33.8012767   6.4490187   3.8708556  33.1806087
  86.3637352   5.5012900  34.0932178  86.0436344   6.2847835  34.5403290
  86.1150074   4.7783697  34.6691990  54.3755150  68.3298779  17.1417511
  55.1318121  68.2286215  16.5638316  53.6911106  68.6924362  16.5792787
  94.9796486  68.0843115  44.5734406  95.0977135  68.5631275  45.3938198
  95.8443165  68.0955124  44.1630030  76.0923576   3.6749163  60.2493525
  76.2994957   3.1477606  59.4777107  75.7163906   3.0518568  60.8711863
 102.7291965  67.8620911  21.0760021 102.4734497  67.3078537  21.8133259
 102.0474625  67.7173996  20.4198456  53.1382322 106.0687256  41.2538624
  53.5347223 105.3495979  41.7456722  52.2060347 106.0181332  41.4652443
  70.3300476  35.4866362  24.4859171  69.7266245  35.9406877  23.8977432
  69.9428511  35.5927444  25.3548527 110.6484222  16.7170346  45.8890057
 110.5894661  16.1321032  46.6443968 111.2933159  17.3760092  46.1461115
  82.4459553  28.8259482  16.7038774  81.8333530  29.5294523  16.9184577
  82.0803070  28.0513525  17.1311224 100.1740932  18.9968491  23.0433798
 100.3405285  19.8676801  22.6825714  99.6082878  18.5740602  22.3973584
  86.5023899  44.8477650  36.2236905  87.1702766  44.2240715  35.9387970
  86.9729233  45.4616594  36.7875719  93.7124348  42.5842428  56.3270569
  93.6339092  43.3331060  56.9180536  94.3825054  42.8465128  55.6958342
  77.8247833  45.6200695  26.8495345  77.7509975  46.4775801  26.4306521
  78.7480354  45.5508471  27.0925140  86.4635181  40.2458048  15.6168389
  85.7358646  40.1543808  16.2319791  86.3608742  41.1253786  15.2534533
  91.7237473   3.2956302  27.5155306  91.7705345   3.2730106  28.4713197
  92.5452995   2.8987968  27.2260571  65.8438349  18.0271995  24.4601727
  65.8379078  17.8709924  25.4045224  66.7619991  17.9310501  24.2072630
  76.0548067  43.7997532   9.8209494  75.9035444  42.8545952   9.8257303
  77.0063972  43.8902760   9.8710406  83.8891315  41.2477779  21.4356637
  84.6762753  41.6134834  21.0320783  83.7312317  40.4335022  20.9579039
 110.1174927  28.3212161  59.1935825 109.6255779  29.1059756  59.4352388
 109.6371078  27.6017809  59.6033049  73.6288929  20.6829023   6.5489632
  73.8744593  19.9025106   6.0520542  74.3288469  21.3108325   6.3700885
  80.9541607  34.4856524  42.2362947  81.2346268  34.7534323  43.1114292
  81.4251137  35.0718570  41.6440105  89.8309994  16.1235106  38.1519318
  89.2357063  15.3771842  38.2215476  89.7306156  16.5882635  38.9826894
  54.1722250  92.1007156  14.2782319  54.8167086  92.7071285  14.6430933
  53.4447622  92.6598644  14.0055096  14.7675335  59.1706800  73.5361576
  14.7612154  58.5441732  74.2598152  14.8646915  60.0239515  73.9589071
  89.2930698  48.5319376  32.6817703  89.7787380  47.9581833  32.0891738
  89.4154453  49.4093943  32.3193789 104.5999146  17.6313829  16.0796714
 104.3260384  18.0328000  16.9043469 104.2593670  16.7378819  16.1234963
  90.8506680  31.2461114  27.8534794  91.2061596  30.3675556  27.9876113
  91.0957623  31.7269349  28.6440301  16.9845259  13.8875592  13.3995819
  16.4981890  13.0675220  13.3144605  16.8223000  14.1699111  14.2996895
  84.5395374  32.4375701   5.7579583  84.6584511  31.8069911   6.4682114
  85.3712559  32.9093885   5.7148081 107.9772949  44.3002367  47.5307131
 108.8544464  44.2525959  47.1504927 107.6350689  45.1450062  47.2383451
  99.2995358  21.2882209  29.8688388  99.3754482  21.4469790  30.8097243
  99.9626446  20.6231475  29.6838999  92.9849815  31.5870333  66.2861300
  92.6712418  30.8521485  65.7591200  92.4926949  32.3413801  65.9623289
  62.6750708  41.3359833  20.9175873  62.3894405  41.0102415  20.0640416
  63.4251738  40.7865191  21.1448693   6.8894988  96.2052155  87.5514412
   7.7736694  96.0130692  87.2391033   6.3206053  95.6538963  87.0141792
  92.0105362  54.8107767  44.4114161  91.7099476  54.0078211  43.9858055
  91.2455368  55.3860712  44.4050217  48.1862879  28.0718589  20.3457808
  48.0184650  28.3166337  19.4357526  49.0172291  28.4966230  20.5587244
  85.1407051  49.4971371  42.1725845  84.7894287  49.7706795  41.3252306
  85.7906246  48.8280582  41.9577265  68.6394930  26.7674017  28.8784313
  69.1266537  26.2427354  28.2431149  69.1986465  27.5271893  29.0405989
  35.6028247  32.3279095  27.9563189  35.6881928  31.4566207  27.5692773
  35.4319096  32.1624303  28.8834834  44.2410803  15.4545116  11.1960161
  43.6546326  14.6983528  11.1729336  43.6686230  16.2063372  11.0434234
 105.5292892  28.8731599  42.5405598 105.5384159  28.1752610  41.8855095
 104.6261692  28.8927221  42.8571272  16.9371367  85.4467487  25.6283498
  16.9084477  85.5205059  24.6744275  16.5031695  84.6147823  25.8174014
  74.2104721  45.1926470  16.9833183  74.0157843  44.4662857  17.5755382
  73.5794353  45.0959206  16.2701082 104.6896458  58.4414005  90.1961517
 105.4980564  58.7609911  89.7954559 104.1187668  59.2090416  90.2287960
 110.3393173  22.1208882  54.2641687 110.8001423  21.4356256  54.7481966
 109.4253731  21.8364620  54.2579746   7.1055430  29.1262579  48.4697771
   6.4995253  29.6760774  47.9731178   6.8624914  28.2303834  48.2361889
  62.8128052  29.0550399  11.6007125  63.2086802  28.2625628  11.2380874
  63.2641697  29.1884184  12.4342060  76.8954992  53.2157135  32.0461893
  76.6676140  54.1408062  32.1383691  77.3685646  53.1672001  31.2154746
  74.2262220  14.1825676  68.6785698  75.0838614  13.7635255  68.6072206
  73.7062836  13.5757995  69.2055655 101.8907547   3.2595336  12.4294734
 102.6898193   2.9115987  12.0336545 101.7547035   4.1011330  11.9942355
  76.3462019  80.2225590  30.2109861  76.1521721  79.3975067  30.6558132
  76.0637188  80.0798130  29.3076253  72.5183916 107.7245712  21.9431067
  72.8631926 108.3508301  21.3065910  71.5923071 107.9521656  22.0255589
  83.2611561  37.2500324  33.4052873  82.5965309  36.7221379  33.8478255
  83.0143833  37.2201085  32.4809265  70.8073854  30.6962156   4.7160149
  71.0199118  30.5784559   3.7901646  69.8667765  30.8734155   4.7251868
  48.0583763 108.9784336  51.8846226  48.5249043 109.3871689  51.1555719
  48.1362391 109.6076870  52.6016998  78.6842012  21.2937737  19.9112880
  78.5135508  20.3539896  19.8487210  79.0362215  21.4150953  20.7931018
 100.0214291  40.6770086  31.5158176 100.1431179  40.5744648  30.5719376
 100.4998970  41.4769554  31.7334867  85.8433914  34.6085930  39.3342233
  85.9057426  35.3345728  39.9549460  85.6562519  35.0272560  38.4940219
  46.7186308  96.8454838  32.4156022  46.3249540  96.9538784  33.2813406
  45.9834290  96.6234970  31.8442607  98.3623028  49.8418140  49.0625334
  98.8548088  49.0280199  49.1693783  98.8839245  50.4995918  49.5223856
  84.4752598  34.8027468  22.5812888  83.7275410  34.2203927  22.7155066
  84.1259670  35.6804752  22.7356052   1.8030603  41.9516802  50.5606318
   1.3678452  41.1351728  50.3154087   2.5250572  42.0347118  49.9376869
 109.5220947  22.5860190  27.8746104 109.4804955  23.2771063  27.2136283
 110.4198742  22.6237941  28.2044554  58.9890051  98.0817509  52.9825687
  59.7120190  98.2469463  53.5877085  58.8800907  98.9062881  52.5087547
  16.8399978  86.1981297  94.1488838  16.7635095  85.2475166  94.2308617
  17.6598108  86.4117622  94.5944118  79.5461607  12.8914404   9.5300549
  80.4024315  12.9119420   9.1027218  79.5606947  12.0927107  10.0573599
  67.6276779  49.1873121  12.9303420  67.9042721  49.9310064  13.4657371
  66.8731117  49.5129585  12.4396098 103.9060116  27.7192354  23.4368896
 104.4429874  28.2844520  22.8815317 104.5165253  27.3732615  24.0878940
  97.0728111   2.5218561  92.8193474  97.0203495   3.2413530  93.4484768
  97.9999352   2.4749093  92.5859451  85.9286880  34.7027135  62.4173355
  86.4900875  35.1938391  61.8174601  85.0681877  35.1127601  62.3299170
 102.9006004  32.0170879  45.1757479 102.0595646  31.8353939  44.7563744
 102.7200127  31.9506073  46.1134005  92.3840523  72.6811552  88.8454819
  93.2381058  73.0869436  88.9943504  92.5807381  71.8808317  88.3586311
  61.7121267  46.8534994  23.4556293  62.2715807  47.2230768  22.7725077
  61.7836905  47.4706984  24.1837597  92.4937248  21.5766907  41.2982035
  92.7869320  22.1351337  42.0182037  92.1121597  20.8115792  41.7286015
  99.9374104  45.9240675  21.9178128 100.5068493  46.6818905  22.0507812
 100.2938080  45.4897165  21.1428571  86.6999149  25.4346633  47.2861433
  86.6584873  26.3889980  47.2248268  85.9928322  25.1272964  46.7188787
  76.1030579  17.2492564   5.9157729  75.6448746  16.4494205   6.1737639
  77.0078421  17.1073580   6.1940885  17.4653339  39.0042567  17.3722517
  16.7745125  38.7218046  17.9716003  18.2579052  39.0160704  17.9088354
  65.0977182  42.7416611  23.4581280  65.9392071  43.0996132  23.1752920
  64.9287224  42.0199299  22.8525114  83.6298275  23.3841586  22.2153902
  82.9453373  23.9684486  22.5414562  83.6051846  22.6324797  22.8075099
   7.4734467  95.3192425  90.1354599   7.9633713  96.0824108  90.4416752
   6.9636613  95.6439209  89.3932056  84.8254585  31.7688060  25.2502680
  84.2932510  31.4997864  24.5015287  85.0970650  30.9468460  25.6587315
 109.1954994 104.5653439  88.6477184 108.6424923 105.3207207  88.4481621
 109.0192223 103.9457512  87.9397106  69.3986177  37.2970915  51.6774750
  70.2193356  37.6198721  52.0495796  69.6213198  36.4403200  51.3133574
  90.9834671 104.5880413  73.3602524  90.5154133 104.7214699  74.1844797
  90.3543663 104.8396492  72.6841164  64.9636412  26.9032788  46.9114542
  64.2953157  26.9224691  47.5964355  65.7431221  26.5583253  47.3469448
 102.6630211   3.6736554  48.9751339 103.4556675   3.1392863  48.9261580
 102.0824528   3.3023995  48.3107996  71.3025236  16.4279974  38.6729074
  72.0431948  16.1053681  39.1862750  71.5778971  16.3218772  37.7623343
  67.6563549  19.2017555  35.3227234  68.0082464  18.3115911  35.3262663
  66.8075609  19.1220355  34.8874950  71.1634064  46.4950609  50.1690292
  71.0032082  45.5680656  50.3457975  70.5377865  46.7191219  49.4800949
  74.2600727  63.9489079  65.9045172  73.6285400  64.6664381  65.8540154
  74.2715025  63.7045860  66.8299389  92.4411488  68.8425779  30.3211212
  93.2909870  69.0054941  30.7303357  91.8021870  69.1269875  30.9746265
  -0.1685473  90.3687382  42.7967978  -0.1016137  91.3212109  42.8641891
   0.6369554  90.0430202  43.1984282   4.1139901  23.2752609  61.2008142
   4.1735241  22.8238320  60.3588533   5.0094098  23.2702827  61.5390921
  86.2552452   3.4840551  44.1752768  87.0162201   4.0443486  44.3276215
  85.5029011   4.0473929  44.3565750  82.1456718  57.1704292  18.2791030
  82.1993828  58.1095934  18.1021476  83.0418491  56.9166374  18.4997535
  94.4851494  38.2046866  32.7466917  95.1249313  38.7049198  33.2533264
  93.8052940  38.8408399  32.5245881  96.3951874  19.7173476  79.8849344
  96.3413334  19.2341805  80.7094860  95.7139492  19.3299031  79.3353653
  82.4082851  21.3621569  32.1534991  81.6553497  21.3371730  31.5629840
  82.5874996  20.4430985  32.3521113  97.5973034  14.7141039  59.7936201
  98.0798435  14.1610706  60.4080677  98.2097912  14.8626482  59.0731907
 111.1153793  36.7400122  51.5245438 111.5767479  36.2035632  50.8798790
 110.2269936  36.8205118  51.1773777  88.0031681  22.8744578  55.9421778
  88.1710625  22.2176790  55.2663946  87.9262161  22.3703575  56.7522335
  95.9299991  -0.1206600  29.4597745  96.5686604   0.0790681  28.7753391
  95.8649394   0.6868161  29.9696589  96.0403347  20.4363465  48.9829636
  95.7818604  21.1773467  49.5309973  95.2127361  20.0435567  48.7054062
 106.9166565  56.1560202  42.2471523 105.9813786  56.0406065  42.4149704
 106.9637394  56.9143009  41.6648912  63.7936258  20.1796222  21.6097522
  63.6777306  20.3089619  22.5510669  64.6106768  19.6866751  21.5345263
  64.0524864  16.7600918  22.4228311  64.1659451  17.4327064  23.0943584
  64.0553904  15.9347439  22.9076242  51.3831949 104.7917175  73.1916380
  51.7556000 105.6497383  73.3949804  52.1430302 104.2177391  73.0945492
  94.3120575  27.5075889  15.8170557  95.0068092  26.9069386  16.0868216
  94.0888882  27.2318578  14.9280107  84.3717003  14.1537571  79.4037867
  84.4598675  14.7207606  78.6376524  83.4800434  13.8104343  79.3463278
  93.3486557  11.3075221  25.1488948  94.0867138  10.7922029  25.4743958
  92.5997162  10.7138908  25.2029347 105.7999039  21.9865441  35.0502205
 104.9364471  21.9806838  35.4632998 106.2421703  21.2170720  35.4087615
  83.3148956  39.6884155  48.9079762  83.8727474  38.9316559  49.0878582
  83.4069633  40.2433252  49.6824646  75.5407238  22.4855566  53.8676023
  76.0527992  21.7777205  53.4764719  74.7323704  22.5076580  53.3554411
  89.2697144  52.1976948   6.4461529  89.9568272  52.5286770   5.8677357
  88.5061741  52.0968151   5.8777690  47.8288174  16.7546701  30.2410126
  48.3747053  17.4178267  29.8185658  46.9626379  16.8737960  29.8514318
 100.5624771  13.0045366  46.8687916 100.2253342  13.7876356  47.3038960
 101.4627457  13.2297266  46.6341782  95.2451706   9.1602725  19.4217336
  94.7828388   8.3270884  19.5127881  94.6180534   9.8165977  19.7253716
 104.9923801  31.0609841   6.1117381 105.1163578  30.4610777   5.3762305
 104.0695095  30.9643483   6.3466936  74.2272091  32.9716945  23.2641053
  73.5703230  33.5363984  23.6713409  74.7710991  33.5688162  22.7504373
  72.9841137  35.6465077  28.3293033  73.4087181  35.6866765  27.4723721
  73.6957121  35.4559875  28.9404988  84.7104836  44.0666294  15.4066932
  85.0308132  44.9663019  15.3418136  85.2269077  43.5815191  14.7631025
  93.3734894  13.8492155  30.0564456  92.5757122  13.8022590  29.5295954
  93.1660748  13.3553076  30.8497047  38.8571620  15.8868659  43.8357496
  38.8385177  16.3875175  44.6513653  39.7487450  15.9992313  43.5060692
  71.3176584  54.7016144  24.6045256  71.6255188  54.1858768  23.8592291
  70.7593060  55.3748417  24.2156291  68.0919695  33.6943746  37.3884916
  68.1372213  32.8440547  37.8256893  68.8674307  34.1635418  37.6963472
  93.7910557  39.9765730  56.6151810  93.7601185  40.9259367  56.4969397
  92.9534531  39.6650720  56.2722111  78.3049774  41.4515448  44.6706057
  78.4058714  42.2347641  45.2115488  78.6495113  40.7409000  45.2114487
  67.8688765  35.6799340  45.6475639  67.1515512  35.2610993  46.1232233
  67.9652643  36.5360284  46.0647535  81.3777924  40.8926344  37.3972154
  80.9914112  40.0170708  37.4153376  80.6616402  41.4757204  37.6489401
  92.4595070  68.4353352  36.0967112  92.4677563  69.0213203  35.3398848
  92.2374630  69.0017080  36.8357348 107.0376396  93.5441685  77.9539633
 107.6822186  93.8780117  78.5779095 107.3201084  92.6473618  77.7745581
  76.7282915  50.6902695  53.6274481  76.8457127  50.7527161  54.5753670
  76.1842251  49.9124241  53.5042334  90.7968807  26.9446206  24.2634296
  90.4768944  26.4266300  23.5248303  90.6263161  27.8521228  24.0112782
 109.8259449  13.2200074  55.9666586 110.2404976  13.6822724  56.6951418
 109.4614124  12.4280965  56.3619089  95.9395218  53.2533121  26.6534996
  95.6242943  53.6479616  27.4665904  96.4161491  53.9577579  26.2144065
  85.0651073  35.1401806  31.1020827  85.8133507  35.1725125  30.5059981
  84.3584538  34.7615170  30.5791211  97.8538799 103.0170441   8.1789225
  98.1472301 103.7259865   7.6065767  97.8629017 103.3986092   9.0567374
  74.1626358  12.4077678  55.3128719  73.5921288  13.0221283  55.7747269
  73.7233782  12.2557425  54.4761086  98.6506557  27.5845361  29.5483541
  98.2498455  26.8898392  29.0258789  99.0488148  28.1695819  28.9038181
  80.8996391  28.7646699  31.2398314  80.9918404  29.3349981  30.4766440
  81.7238808  28.2794237  31.2771893 111.1084366  14.6440899  42.5540161
 110.8642101  15.4842341  42.9422760 110.3082180  14.1203344  42.5935173
  85.1322174   6.4046127  37.8564334  84.6225452   5.6454241  38.1394410
  86.0398293   6.1688995  38.0485702 102.4827290  29.4633651  37.2485924
 102.3633003  30.3351665  37.6253271 101.5940762  29.1561222  37.0693254
  16.7103302  89.5759201  34.0830469  17.0342886  90.4044437  33.7297273
  15.8584440  89.7936344  34.4613624  87.4593735  37.3090482  24.3197870
  87.8248596  36.4272499  24.2484760  87.6484394  37.7157879  23.4741807
  72.4571657  25.1336694  55.6934929  73.2642126  25.0201058  56.1955023
  71.9408798  25.7547045  56.2072992 115.1371098  13.2002890  51.9849491
 115.1630116  12.3350501  51.5763855 114.7839737  13.7752676  51.3060331
  10.7253766  48.1903791  52.6377392  10.1110029  47.6684189  52.1216583
  11.3768291  48.4898376  52.0035744 113.2870102  16.2307620  34.0624881
 112.4791908  15.9404099  33.6389899 113.0281258  16.9995880  34.5705438
 103.4459400  45.2188778  44.1995525 103.3247757  45.0096273  45.1257086
 104.3740940  45.0517797  44.0356827  75.8010006  34.9670267  41.9748640
  75.6432247  34.0239835  41.9300985  74.9402761  35.3456402  42.1538639
  85.4729939  61.3749456  31.0369301  84.9445057  61.5573931  30.2599835
  86.0886478  60.6986427  30.7544208  86.7164803  35.9871125  16.5670395
  86.6379356  35.5949593  17.4366820  87.1474457  35.3148866  16.0392070
  69.3254805  36.3941407  26.7205024  69.5764446  35.5919576  27.1784878
  68.5987949  36.7460966  27.2345877  91.5670204  28.7427926   6.8190145
  91.2531281  29.2780781   6.0901976  90.9666634  28.9409900   7.5377113
 102.2540092  53.4696007  17.7517807 102.5552177  52.6838017  18.2078755
 101.5817738  53.1533432  17.1481967 113.3890915   9.6048826  35.1058769
 113.1455040  10.0616956  34.3007565 112.6211548   9.0763736  35.3230977
  49.6018314 107.8718376  63.1556034  50.3775787 108.3005619  63.5170412
  48.8922071 108.1224346  63.7471008 106.6921902  31.8664241  32.8975368
 107.4877930  31.9710827  33.4193563 106.3779640  30.9884143  33.1133819
 110.8418274  53.3315802  40.0512218 110.0130844  53.4194613  40.5220556
 110.7291698  53.8672733  39.2660022  85.5359745  29.0709019  26.7571306
  85.4682732  28.8959336  27.6957631  86.4310837  28.8186717  26.5304255
  93.7238216  45.1170874  57.4568939  93.2463741  45.7052851  56.8718290
  93.7958336  45.6029606  58.2784605  39.6981454  12.7477694  22.1772766
  39.1362214  13.0728030  22.8807163  40.4628897  12.3894429  22.6278305
  39.5420980  99.4544792  72.4985552  39.3209386  98.7877083  73.1487417
  39.0685344 100.2352428  72.7855492 104.8160744  41.5338230  63.9070892
 104.5845795  40.8181000  64.4990158 105.6449032  41.2607670  63.5137463
 107.2666168  19.9946582  20.1407504 108.0029678  20.6059718  20.1229620
 107.6591682  19.1536021  20.3747678  51.0555935  14.0797389  17.7070987
  51.0123158  13.3338320  17.1087825  51.0460138  13.6873662  18.5801303
  67.7446651  54.9672174  54.1420794  68.5833693  55.4273510  54.1749907
  67.9643106  54.0913153  53.8246107  92.7561665  61.8752146  73.3068800
  93.6626244  61.8629789  72.9996014  92.2360039  61.6854334  72.5260830
 102.8995323  38.1684971  17.2948933 102.6118660  39.0722394  17.4242258
 102.6238728  37.7132177  18.0904830  18.4202325   9.8164833  71.5747309
  17.6959741   9.3207181  71.1927605  18.6497569  10.4600739  70.9043980
  73.4566116  14.5192528  63.7920904  74.1940308  14.4302011  63.1883430
  73.5851049  15.3743374  64.2026377  72.1634054  21.5972686  62.1107578
  72.5158596  22.0028210  62.9029274  72.8236341  21.7694759  61.4394379
 113.9159775  61.8375683  39.3254304 113.2181835  61.7143631  38.6818933
 113.8418198  61.0808897  39.9069595  89.7831249   5.0351006  57.4243021
  89.9118614   4.1434702  57.7478027  89.3285370   4.9236479  56.5893364
 100.1547623  18.4510553  59.7446060 100.7590389  18.1803429  59.0533829
 100.7196903  18.6580431  60.4890823 106.7267895  27.0145273  48.9948225
 106.0641193  27.2561216  48.3477259 107.4918365  27.5406146  48.7620735
  86.6601372  33.9833808  52.5807762  85.7514668  34.2644858  52.6880884
  86.5983009  33.1368017  52.1383810  97.2253704  20.1394606  21.2406564
  97.6652241  19.4508541  21.7392421  97.0085526  20.8059382  21.8925977
  55.2061319   8.7788254  52.8035593  55.6582403   8.3194977  53.5112667
  55.9090090   9.1674125  52.2827959  79.7035599  57.8155947  11.5608561
  78.9454412  58.1565332  12.0354605  79.3937063  56.9988060  11.1695993
  82.9158497  30.7434940  54.1293907  82.0761585  30.3165984  53.9593840
  83.5354424  30.2891827  53.5584784   5.2643591   9.0880793  32.5672340
   5.9477091   9.7517478  32.4733829   4.4679025   9.5188135  32.2568202
  99.3626213  15.7797885  18.3189344 100.1147461  16.2772250  17.9978502
  99.6829224  15.3445899  19.1090226  88.9686584  14.0970314  49.7652197
  88.3923149  13.6815083  49.1238117  89.8523903  13.9237261  49.4408417
  98.3030510  25.8678222  39.5610428  99.1751480  25.5627584  39.8112679
  98.3993149  26.1479640  38.6508322  69.2271185   5.6710118   8.8780010
  69.2434549   5.6803602   9.8350155  69.8827124   5.0177807   8.6336315
  75.2289581  50.6589460  47.8491545  74.7642803  50.4175520  47.0478821
  76.1404657  50.4221058  47.6780272  91.8841934  76.6712427  87.8683662
  91.6401577  76.4911890  88.7762547  91.9022942  75.8104992  87.4500084
  95.6020927   9.7713804  26.2333608  95.6971455  10.2745438  27.0420766
  96.2578773  10.1415586  25.6424761  98.2375145  15.4961801  13.3242810
  97.6220322  15.9620523  13.8903058  97.6979351  15.1615179  12.6079762
  95.7408619  33.3634520  40.9849977  95.4109764  32.5081277  41.2603664
  95.7818985  33.8756633  41.7925787 105.6179714  35.8435440  28.2912278
 106.1799908  36.3604856  27.7140498 106.1089993  35.0360966  28.4433889
  81.8296814  51.8823862   1.0619985  81.7776108  51.5718412   0.1580726
  81.9119263  51.0848522   1.5848824 111.3039589  14.7674143  39.7636795
 111.1144924  14.7320879  40.7012749 110.5476952  14.3506587  39.3506312
  61.6635275  28.8884854  61.3593960  62.3611212  28.7781143  62.0054722
  61.9816732  28.4286833  60.5824804  98.5953808  40.2938557   4.1177794
  99.5234871  40.3669548   3.8952857  98.4334850  39.3515444   4.1633084
  98.6063671  29.4099712  64.9649239  97.7392101  29.2163348  64.6088552
  98.6021233  30.3569865  65.1041174  15.8069921  34.9655914  17.1761143
  15.8667898  35.3367233  18.0564082  15.0291681  35.3741646  16.7962599
  93.0880642  16.0268271  27.9848218  93.8606453  15.8946741  28.5342598
  93.3477497  16.7100072  27.3667169  69.9099970  29.8282862  27.3270774
  69.3108797  29.2703962  26.8310428  69.7453356  29.6021414  28.2424879
  35.7143593  60.6726074  92.3335552  36.6373968  60.7955503  92.1119308
  35.2956843  61.4954185  92.0807266  91.0098743  46.3283443  47.5927877
  90.9340000  45.6077480  46.9673157  91.9264984  46.5983820  47.5370264
   6.5458101  20.5840278  51.8692112   7.1398038  20.0818014  52.4270391
   6.0646600  21.1460400  52.4765587  27.0775557  97.7311993  42.9158068
  27.9691720  97.8267002  42.5809526  26.8465257  98.6038303  43.2341814
   6.9737339  99.9059105  84.6561527   6.8585646  98.9556599  84.6572113
   7.6186776 100.0682449  83.9677334   8.1856549  46.6716385  30.5085993
   8.2230335  45.7479048  30.2604961   7.6857555  46.6803646  31.3248444
  77.1843576  22.9619312  55.7721853  76.6535139  22.8141785  54.9894905
  77.4205923  22.0836759  56.0706663  90.1733017  41.2136602  41.5482616
  89.8999691  41.1556387  42.4637747  91.0655212  41.5582705  41.5860605
   3.2696894   0.9768783  42.4473000   3.4620735   0.4647871  43.2327843
   2.7264351   0.3988178  41.9116211  72.4318409  39.7128987  45.4443550
  72.2523594  40.5568647  45.8587694  71.5889359  39.2593336  45.4497814
  80.4815292  57.2337532  35.8190393  79.6834850  57.7590132  35.7603025
  80.2201653  56.4551449  36.3106585  77.3121691   8.6933571  40.7593584
  77.0107412   9.4904268  41.1953115  77.2560930   8.0159241  41.4332819
  47.3621321 106.7494678  14.7986257  47.4022007 107.4801922  15.4156065
  46.4474630 106.7230606  14.5177090  22.0111346  17.9611051  44.1688395
  21.1918163  18.1415176  44.6297073  21.7377424  17.6764035  43.2968092
  80.9544945  58.4759855  45.8284330  81.7520428  58.9468384  46.0701895
  80.9088993  58.5555220  44.8756313   5.9120613  49.7196579  16.7114031
   6.3472599  50.5485678  16.5120530   6.6156042  49.0707302  16.6990554
  89.5918179  70.8212280  57.1903992  89.9025536  70.4830360  58.0302191
  88.8203812  70.2913713  56.9894695  98.9073086  66.9242382  51.4035320
  98.8034344  66.9148636  52.3550320  98.8987637  67.8526735  51.1708021
 106.8564987  14.9297833  32.9746628 105.9137726  15.0628543  33.0736136
 107.1507645  14.6476662  33.8407159  84.7117233  41.1458826  32.9831314
  84.6483326  40.5696726  32.2214270  84.0782356  40.7898521  33.6061621
  79.7312689  43.1432581  38.2804298  79.2388391  43.1459761  37.4596167
  79.1118526  42.8111553  38.9302468  13.9023805  57.7420235  27.7517247
  13.6313486  56.8246031  27.7184463  13.2478023  58.2042885  27.2282076
   2.2972962  57.9992628  25.3823638   3.2381165  58.0986166  25.5280256
   2.0752738  57.1708918  25.8075023 104.3632221  30.1616669  18.0567908
 104.6358585  30.6978226  17.3121846 105.1833534  29.8769546  18.4599710
 108.1478786 106.8910313  94.2238712 108.5394096 106.0320663  94.0654182
 107.9737091 106.9049358  95.1649857   2.4296615  40.2717113  42.8189945
   3.1994089  40.0625229  42.2898817   1.8765961  40.7964754  42.2402239
   5.6970710  42.1128225   6.9063842   5.3554273  42.1209192   7.8005016
   6.5303171  41.6463995   6.9725829  41.8968582  75.7513571  76.6490459
  41.1310196  75.8789730  76.0891914  41.5759611  75.2174330  77.3758078
  86.0441685  42.1429729  30.2912736  86.6512775  42.8115892  30.6084394
  86.6086483  41.4509392  29.9467754 112.1501255  43.6004162  33.8317347
 111.9272804  42.9460335  34.4938183 111.6462994  44.3750238  34.0814853
   2.7616283  20.8710647  27.3663926   3.6398268  20.5742502  27.1278548
   2.1932518  20.5074120  26.6874695  93.9227009  59.3035650  27.0462942
  93.3411026  59.3790960  27.8027821  94.7757339  59.5927858  27.3701835
  95.5258751  32.1496010  58.5656500  96.4048100  32.0730591  58.9369297
  95.3519821  31.2898016  58.1825876 105.8278847  98.8058758  64.9409914
 105.2773190  98.1707859  64.4829893 106.5734386  98.9421654  64.3563509
  95.3127289  54.8351717  28.8176394  95.8063126  54.6031904  29.6042752
  95.1807308  55.7806253  28.8878369  63.2742262  42.1344805  25.4316831
  63.7773657  42.5729036  26.1178803  63.8403416  42.1687460  24.6605968
  69.5219707  55.0324154  38.0419230  68.5751629  55.1457739  38.1252313
  69.8804188  55.4154539  38.8425612  22.4619770  60.5084372  43.4433317
  21.8196702  60.7066202  44.1247988  22.8355622  61.3587523  43.2117414
  75.7518625  58.6173964  17.0666409  76.6613913  58.4393883  17.3060155
  75.7987976  59.3924761  16.5069258  97.9472542  41.4447737  50.2381992
  98.1184864  40.7540560  49.5980310  98.1164455  42.2585773  49.7635174
  94.4894028  48.7900925  33.9909792  94.2223358  48.9397335  34.8979068
  95.3711987  48.4238529  34.0582895  72.3213387  61.8111753  47.1533537
  72.5191402  60.8765554  47.2132587  72.8432035  62.1194363  46.4125013
  57.9812288  13.7171566  41.2984705  58.2403278  12.8566968  41.6281748
  57.8742886  13.5901773  40.3557730 114.8065758  29.5597482   7.8093463
 113.9302254  29.6383333   8.1862479 114.7986317  30.1536942   7.0587474
  88.0424404  56.4416933  50.9297514  88.8458347  56.9370699  50.7704020
  87.5352001  56.5424347  50.1242781  76.1468410  50.7938004  33.1198120
  76.1258554  51.6923141  32.7904677  76.9039679  50.3980780  32.6880765
   0.9831480  30.1598525  27.2456837   0.7418341  29.3464661  26.8025112
   1.0193542  30.8121443  26.5460873  97.6429558  23.3143926  46.5969086
  97.6387405  22.3658848  46.4682627  98.3424282  23.6305499  46.0250568
  98.4839153  66.7118740  78.0656004  99.3618870  66.8610382  78.4165049
  98.0059052  67.5165558  78.2661867  97.3618603  48.4075832  32.3652887
  96.5651894  48.1750298  31.8883657  97.9025745  47.6186419  32.3274636
 106.3870144  50.0126171  30.0482464 105.6191254  49.8222923  29.5094037
 106.5481091  50.9466028  29.9142528  82.6416492  65.2137136  34.7239351
  83.1088734  64.8510885  33.9713097  83.0753613  64.8265266  35.4843402
 106.4654541  52.4782133  29.2336297 106.3966179  52.4523926  28.2792568
 106.9372368  53.2904434  29.4178462  34.5167565  25.8965921  77.1976852
  33.6313343  25.5836201  77.0124674  35.0727987  25.4214787  76.5801764
 111.9751835  43.9800358  13.7326479 111.7279243  44.7273397  14.2772841
 111.2810326  43.9220619  13.0761218 101.5032768  40.0781965  49.9359846
 101.9083118  39.2355919  49.7305727 101.7670250  40.2570200  50.8385849
 108.8330841  57.3221588  33.0728364 108.9697361  56.4941645  33.5332561
 109.0013313  57.1155834  32.1534610 110.9902000  54.8371267  51.0814762
 111.1272049  55.6135464  51.6242743 111.0524940  54.1033506  51.6929770
 102.0976830  44.3127489  42.0139885 101.1623669  44.5065737  42.0761490
 102.4607563  44.6149969  42.8464842   1.0330986  44.3034315  31.4716458
   1.5798767  43.9028215  30.7957935   1.0063694  45.2315664  31.2390876
  53.0012083  23.6533785  31.8351340  52.5784492  23.2051086  31.1026287
  52.9596663  23.0254316  32.5563741  97.3097134  36.6246796  34.8704934
  98.1257725  36.9116116  35.2803040  96.6217613  37.0433760  35.3878355
  84.8040962  56.3606501  36.8242216  84.8463058  55.9138393  37.6696825
  84.0467358  56.9413662  36.8977690  69.8217535  72.3079062  18.6097360
  69.6767569  73.2530499  18.6534250  70.7646227  72.2040558  18.7379897
  91.5515995  61.2983751  26.9666004  91.2576866  60.4005480  27.1206880
  91.6846275  61.3477182  26.0199738  11.5137422  65.9404850  34.8372960
  11.4433634  66.5387535  35.5811763  12.3036754  65.4297876  35.0145650
 112.5975227  43.1539345  39.2757106 112.7553654  42.3112154  38.8501072
 112.2014141  42.9269075  40.1170158 101.9010162  45.8904743  24.5286059
 101.7363358  46.1546040  25.4337835 101.7031288  44.9540901  24.5125604
  71.5893745  49.9791145  57.3094940  71.4228201  49.0430832  57.4205875
  72.4222994  50.1289129  57.7567387  61.9561625  44.3110657  32.1929431
  61.5659761  43.4785748  31.9265962  61.2087345  44.8936796  32.3276496
  68.2526588  46.4054060  18.5822201  67.6199150  45.7185173  18.3723366
  67.7384567  47.0750141  19.0332770 116.1283779  38.0339098  30.2173996
 115.9113979  38.8020945  29.6891522 115.5672455  38.1078100  30.9893489
  86.1243057  29.1367531  55.4936123  86.1944866  30.0374269  55.1772404
  85.6862164  29.2140579  56.3411617  71.1177111  67.3532724  39.7893596
  71.9732141  66.9967461  39.5501137  70.9441710  66.9955826  40.6600904
  82.0071888  63.6652946  39.1108441  81.2783718  63.3597755  39.6509600
  82.7470589  63.1187344  39.3755770  15.8809829  12.1499968   6.2370282
  15.4848659  11.8400049   5.4226398  15.6943953  13.0887163   6.2519789
 111.3043404  28.8605928  47.7313185 111.8091679  28.9466190  46.9226217
 110.9871006  27.9575562  47.7207136  83.7633705  80.0389194  35.9695530
  83.7741852  80.4804325  36.8187737  84.5287323  79.4643784  35.9885526
  72.4606609  58.2385969  39.4422460  73.2354736  57.8503132  39.8486114
  71.9483232  57.4891376  39.1388273   3.4867114  83.1628323  71.5628052
   4.1710874  82.5096893  71.7086172   2.6700136  82.6997185  71.7492485
  87.0921516  59.8039818  13.6835742  86.1668873  59.8200035  13.9282250
  87.0863152  59.7291899  12.7293181  68.9684343  39.6896338  19.4062829
  68.1564379  40.1847553  19.2978907  68.6830425  38.8196874  19.6855259
  86.2320423  63.2897091  38.4597254  86.1723232  62.7600241  37.6646829
  86.7665291  62.7661562  39.0567541 103.1229115  35.1439023  49.5502472
 103.6539745  34.3492055  49.4986773 102.3005867  34.8570967  49.9474382
  99.6405506  34.4133568  13.3904290 100.4178333  34.8209047  13.7724853
  99.0318298  34.3243337  14.1237533 100.4838181  72.7538109  15.8913743
 100.0106525  72.3574162  15.1597893 101.3618374  72.9185724  15.5476046
  94.6915722   4.7524649  58.3698940  94.3302631   4.3943271  57.5590754
  95.2874088   5.4439569  58.0817080   1.0862659  53.9977217   8.4875721
   1.7887785  54.5461416   8.1383663   0.3090328  54.5555544   8.4565634
 108.9252090  41.3323259  31.6673160 108.0905342  40.8641243  31.6853642
 109.5155525  40.7510948  31.1878371 110.0692654  85.7283497  28.1998467
 110.2232456  84.8263264  27.9189849 109.1763115  85.7227516  28.5445619
 109.4893265  42.8038406  37.2709370 109.2096901  42.3922300  36.4532495
 109.1513920  43.6977720  37.2168922 106.2117481  44.9353075  36.7102814
 107.0842743  45.2018309  36.4206386 105.8064175  44.5551157  35.9309268
   4.2204401  49.7192478  38.0210733   4.8590961  49.0353918  37.8193474
   3.6544797  49.3293953  38.6873603  95.2036858  47.2365332  38.9757729
  94.7873116  46.9040442  39.7709537  96.0649967  47.5381517  39.2645836
  56.9248295  65.8159113  31.9311643  56.9400883  65.0298452  31.3851857
  57.8009987  65.8585119  32.3142338  91.1261749  46.5480280  60.4266644
  91.2566853  47.0631361  61.2228203  91.9634533  46.6027880  59.9660206
  77.1835041  75.8365154  44.0942526  77.0126486  75.0264359  44.5746708
  77.9348469  76.2261963  44.5413160 100.3626537  55.1516294  11.3464928
  99.6410275  55.2011108  11.9734180 100.7104778  56.0426807  11.3108444
 103.9783287  51.1895609  49.8033142 103.9647007  52.0090580  50.2977562
 104.8970985  51.0702038  49.5627975  72.3061752  27.7229404  27.0643806
  71.5636206  27.7310109  26.4604163  72.9405689  28.3228016  26.6720200
 113.4430504  47.5531960  53.2940483 112.8315353  48.2342911  53.5740280
 112.9544353  47.0435953  52.6476812  93.7866020  18.2596815  13.1846595
  94.4845867  18.9117301  13.1224060  93.3807945  18.4237516  14.0359139
  80.2973747  13.6352360  15.1907313  79.9386454  13.2811499  14.3769944
  80.7629871  14.4273841  14.9225163 100.4780006  39.7808433  28.9459968
  99.5382118  39.6138310  28.8742995 100.8891010  38.9921832  28.5920978
  11.0916781  38.8681126  58.3898640  11.5150738  38.0242038  58.2324266
  11.5317011  39.4721270  57.7917194  67.1915627  14.9396110  90.9071732
  67.3805666  14.3263936  91.6174316  66.6885519  14.4262218  90.2749920
  99.8717499  35.7875443  64.9443579  98.9230728  35.8966446  65.0103378
  99.9886703  35.0982523  64.2905712  93.9325047  51.3042498  49.7245359
  93.1395054  50.7873583  49.5823812  93.8068008  51.7039585  50.5851507
  73.9089251  54.1067505  22.0637107  73.2126951  53.4940577  22.3005843
  73.9578533  54.0562725  21.1090946  66.5898991  57.3142767  24.8308682
  66.1192608  57.0820665  25.6313729  66.1845016  58.1323671  24.5434380
  89.4679356  10.4457235  28.4129763  90.0279999   9.7811896  28.0117846
  88.7084866  10.5008316  27.8329515  31.4516664  49.1837025  20.4952264
  30.8855987  48.7389231  19.8643780  31.9678569  48.4812927  20.8906960
  90.1621723  50.5358553  23.0293369  90.8111382  50.7974195  23.6825323
  90.5059147  49.7210169  22.6631308  97.5465107  24.5600438  56.3323402
  98.2805157  24.4096708  56.9280386  97.6704311  23.9184976  55.6328440
  71.1746359  27.1131015  39.5261836  70.2307749  27.0058584  39.6439171
  71.2592745  27.8713489  38.9481473  88.9537621   3.0293044  27.1611929
  88.8190079   2.9013327  28.1001806  89.9046421   3.0695021  27.0589709
  86.6382694  66.1120415  38.7533808  86.7023182  65.3419828  38.1884527
  86.1158657  65.8186626  39.4998789  72.5578117  10.1262808  20.5020022
  72.1923542  10.9732950  20.7574224  72.9692793   9.7927201  21.2992883
  84.2000771  68.0760050  46.2451792  83.9104939  67.2321272  46.5919495
  84.4174290  68.5920954  47.0214748  88.6565018  43.8215494  43.3563805
  88.4470844  44.1618729  42.4865770  89.5748138  44.0559387  43.4905720
 111.5367794  40.6876087  21.3292885 112.1443176  41.2498188  20.8486152
 110.6971836  41.1446047  21.2795711  15.3536177  66.8051529  20.3886747
  15.3645575  66.9884062  21.3281059  16.2285948  66.4655828  20.2006817
 106.3040924  57.2144890   3.2179025 106.9832897  57.0257902   3.8654402
 106.6466045  57.9575348   2.7211118 109.1282368  45.7873917  36.8925691
 109.6247673  45.7007551  37.7063131 109.5910740  46.4656258  36.4006257
 110.5394840 106.6845417  90.3489399 110.8917999 107.2064686  89.6280479
 109.9674988 106.0450935  89.9244690 107.7536678  56.0856915  75.1350832
 108.3814335  55.4961157  74.7173023 107.1571159  56.3386059  74.4305372
 108.7628460  37.4465656  31.9397235 109.3073463  38.0397606  31.4221644
 107.9809093  37.3109126  31.4045620  87.0227528  50.7259655   1.8107779
  86.1915970  50.9183598   1.3767244  86.7732334  50.4358339   2.6881585
  98.1502628  41.7030430  52.7935982  98.6073017  42.5375271  52.8984022
  97.9225540  41.6697073  51.8644762  71.4898252  52.5026178  52.6514673
  71.6701794  52.5238085  53.5912848  72.0227766  51.7791796  52.3215628
 114.8120043  52.8444433  14.5810580 115.0881112  53.1953907  15.4277182
 113.8963481  52.5977039  14.7111583 103.6284256  40.0214005  28.9038396
 103.5471725  39.3091083  28.2695889 103.1934834  39.6924090  29.6904922
  93.6005688  62.0323706  30.6914210  93.7761402  62.4442577  29.8453975
  92.6498508  61.9230938  30.7119012  87.4659443  58.1361914  26.1049533
  87.5724602  57.2480392  26.4456439  87.3429298  58.0182600  25.1630473
  82.4979305  51.6541338  48.1299925  82.3753071  52.5659990  48.3940029
  83.1607819  51.6914892  47.4404526  80.5063629  10.3135037  18.3287930
  79.7936726  10.9166682  18.1178379  81.3016319  10.8348846  18.2195604
  79.6423817  12.4651229  71.4689398  80.1167107  11.9385743  72.1123600
  79.0853071  11.8369675  71.0092449  95.2482700 107.9621887  35.6803942
  95.7421589 107.6231766  34.9338222  95.8318424 108.6065960  36.0809159
  94.7152424  29.6006441  34.4511628  95.2076054  30.3180885  34.0523100
  94.3228626  29.9859285  35.2346349  84.8135376  45.0997210  60.1692200
  85.5309868  44.6312380  59.7425842  85.2359962  45.8411503  60.6028652
  72.8681898  31.9804502  30.0019336  73.7575483  31.7484045  29.7346735
  72.3463869  31.8864250  29.2049909   8.4609812  36.0721755  43.2633305
   9.2839837  35.9871292  42.7820158   8.0374372  35.2193022  43.1661320
  85.4063797  30.6422949  43.0983067  84.5475197  30.3749275  43.4255695
  85.2131653  31.2848973  42.4156952 110.6062889  59.2566061  31.3753963
 111.3175201  59.1210556  30.7492971 109.8102856  59.0692377  30.8778954
  29.2064166  84.4306087  11.0199142  29.4923878  84.5549202  11.9249010
  29.9308896  83.9654922  10.6015456  95.1234722  15.5890620  60.2014685
  95.9723091  15.1963222  59.9978685  95.2682686  16.5311825  60.1138592
 115.7625939  85.8053589  27.4249434 115.0471001  85.3783131  27.8960419
 115.7169624  86.7212772  27.6992464  83.4500313   7.2296906  18.9978504
  83.7076187   7.6260328  19.8301935  83.9380264   6.4069617  18.9631522
   0.2220784  78.0348730  22.8388715   0.8526574  78.5233068  23.3680511
  -0.4868163  77.8227997  23.4461069 116.2222256  38.4054613  53.0501795
 115.3093622  38.4934258  52.7760029 116.4941760  37.5539875  52.7077389
  64.7841835  76.6231060  27.8922796  63.9807224  76.1184311  28.0187130
  64.8135424  76.7948484  26.9510722   3.4355405  87.7693558  94.7107410
   2.7860498  87.1739483  94.3367195   4.2666304  87.3025131  94.6236610
  80.4981995  31.4122891  24.6945667  79.9481297  32.0913672  25.0850916
  79.9111700  30.9375978  24.1060948 102.4503613  12.1447670  35.9336042
 102.2468567  11.5498710  36.6553497 101.5960026  12.4008334  35.5861259
 104.4642067  69.8519230  32.7052212 105.2921581  69.4167376  32.9085517
 103.9624786  69.8044014  33.5190010  93.1712914  31.8935061  55.9317827
  92.8856659  32.0939064  55.0404406  93.3714581  32.7467465  56.3166809
  73.1255436  63.9693117   9.1671604  72.2411871  63.6223030   9.2843163
  73.0584955  64.5432091   8.4040236  60.2688122  96.4818096  35.0450540
  59.7119999  97.0107555  34.4737244  60.4692698  97.0569801  35.7834554
  81.6149902  33.4600282  27.6635075  82.2041988  33.8830686  28.2880926
  82.1577454  33.3028913  26.8908739 101.0413170  64.3143129  28.2373333
 101.2853432  63.8130999  29.0154529 100.2293968  64.7577906  28.4829807
  96.9929314  33.3081841  25.8992434  96.7927647  32.4304843  25.5739594
  96.2052536  33.5729575  26.3743186  79.7607470  14.4938505  31.2729383
  80.7048416  14.6298730  31.1928248  79.6584845  13.9958596  32.0839739
  87.1864223  57.2674656  23.4937882  86.4881039  57.4103451  22.8549075
  87.5060272  56.3849688  23.3059359 116.1526394  46.9267845   7.4517077
 115.6790257  47.6651096   7.0685583 117.0764065  47.1425676   7.3240089
  57.7606964  37.1960092  20.7809520  56.9498253  37.2320819  20.2735877
  58.3081484  36.5654635  20.3130460  73.8642979  19.9169827  39.5527387
  73.9996767  19.5899415  40.4420900  72.9134655  19.9817002  39.4634938
  76.9551086  51.9572067  40.1467228  76.0342789  51.7237711  40.2642441
  77.3842955  51.1321926  39.9200368  93.0366611  72.8648043  50.0419712
  92.1297073  72.9057026  49.7386742  93.1467438  71.9643021  50.3472662
  74.7697878  22.5752091  39.3738461  75.5130243  22.9293203  39.8621392
  74.4712496  21.8318605  39.8978162  10.5511403  72.8100061  93.1673813
  10.1398003  72.9931593  94.0120697  11.1406851  73.5500765  93.0225945
  82.9816914  75.6217003  40.8096075  82.0562363  75.6026983  40.5658627
  83.2456112  74.7016621  40.8198547  61.3209629  32.2462130  36.6500425
  60.4308319  32.5890398  36.5702796  61.8753958  33.0256200  36.6869617
 112.7888680  10.4798925  38.0151510 112.7779102  10.6805015  37.0792723
 113.3738804  11.1360359  38.3939171  89.1403961  35.4588890  18.7936831
  88.4509563  35.0358868  18.2818437  88.9928150  35.1569271  19.6899366
  -0.0288421  70.7379007  45.8997011  -0.4994305  70.0906515  46.4249086
   0.6967255  71.0175323  46.4579010   2.1864332  76.4164543  43.2853794
   2.3027466  75.6893587  42.6738024   1.2448654  76.4372969  43.4564018
  96.9636345  47.0284653  62.9875565  97.4462795  47.8339195  62.8017378
  97.4024200  46.6575241  63.7531328  91.1845589  58.3970308   3.1796572
  91.9812012  58.7736893   3.5534549  90.9170532  59.0224648   2.5062281
  96.7865849  29.5381308  38.8829875  97.0337963  30.0486088  38.1119275
  96.7995358  28.6293149  38.5827899  77.7865076  78.7028074  47.2018147
  77.7008629  77.7728271  47.4116516  78.2545519  79.0748835  47.9492950
 101.4040756  55.0775099  68.2464266 100.6398392  54.6756077  67.8333378
 102.0633125  55.1070547  67.5530529 103.8833904  46.4777517  35.7497621
 104.4374561  46.8515015  36.4350009 104.4949722  46.2270594  35.0574136
  82.7271938  58.1319952  37.3754764  82.0564461  57.5053596  37.1040630
  82.3683739  58.9861488  37.1348548  72.0824623  19.4302869  20.7528019
  71.4241743  20.1233411  20.7021189  72.4298191  19.3643713  19.8632908
  83.4392929  35.8163404  28.7402749  84.0105438  35.2477503  28.2239437
  83.6999702  36.7041206  28.4950733  77.9776812  91.1091232   5.6859100
  77.8074932  92.0497322   5.7362074  78.8033962  91.0404110   5.2066308
   6.9390113   0.3691376  57.0939493   7.0912750  -0.5266963  57.3948240
   5.9916790   0.4214944  56.9672680  83.4548664  12.9709542  62.8803015
  83.3871555  12.4331141  63.6692095  82.6628590  13.5084391  62.8881502
 100.8553600  57.8051376  37.7495813 100.0671768  58.2044125  37.3813653
 101.5446377  58.4517860  37.5979829  81.0800934   8.6357564  92.1858501
  81.3537407   7.7917224  92.5449562  81.0515213   9.2203635  92.9432392
  85.0281715  72.9977322  32.0714164  85.7148838  73.5937071  31.7723179
  85.1179981  72.2277451  31.5099168  75.2870321  31.3826656  46.8620062
  76.1019182  31.8769217  46.9508839  74.6390057  32.0350337  46.5960884
 106.1440849  61.7595530  24.3133855 106.4057732  62.5242138  24.8262668
 105.6370354  62.1209002  23.5863638  89.6491814  19.3645322  56.4866304
  90.5655956  19.1484880  56.6590595  89.1695118  18.5655856  56.7053413
  87.1665668  49.6243525  60.7547283  86.8618774  50.5290699  60.6848717
  87.9748249  49.6824884  61.2642002  97.8460217 100.7828331  51.0502386
  98.1326103 101.5693665  50.5860519  97.4752331 101.1101151  51.8697739
 108.9686680  52.1303415  68.7046242 109.8660469  52.3773766  68.4812307
 108.6714554  51.6081238  67.9595137  80.4526997  80.5120754  57.0934296
  79.9066782  81.0853004  56.5553808  79.9853468  79.6767950  57.1039248
  72.3331594  51.9300556  17.9169452  73.1707001  51.7059040  17.5113440
  72.1026278  51.1575794  18.4330511  90.4423714  29.4147587  23.3752871
  91.1114788  29.7908282  22.8033638  89.7051334  30.0220704  23.3129644
  82.6193047  13.7589920  12.9628789  82.7892113  12.8928089  12.5926244
  82.3967648  14.3029666  12.2073638 103.0049038  55.5063772  29.0410757
 102.0636272  55.6797028  29.0550447 103.0817890  54.5821190  29.2778635
  69.1575480  14.7104943  33.8127160  68.2358170  14.7360480  34.0696025
  69.5341635  14.0071273  34.3415523  97.3792744  24.8248363  34.4606566
  96.6977596  25.4293585  34.7544646  97.0192814  23.9551568  34.6346974
  88.2212639   8.1377119  40.5879307  87.8006172   8.9562589  40.8511209
  89.0461445   8.4106660  40.1863050  89.0612793   8.3152884  30.8885121
  89.8019981   7.7132928  30.9604120  89.3980408   9.0490854  30.3743529
  93.1111717  23.7785673  13.3403111  93.0528450  23.2888317  12.5199509
  92.7290916  23.1946588  13.9955187  89.9203014  51.0932493  40.6812716
  89.2549133  51.2527943  41.3506269  90.4007244  51.9188547  40.6195450
  40.2423382  97.0996189  43.3777857  39.7958040  96.4971828  42.7828741
  40.0668097  97.9680443  43.0154943  56.8987322  65.1581430  18.9410257
  56.0770130  65.2488899  18.4585643  56.6504049  65.2649689  19.8592591
  74.9988461  19.6453917  46.9357777  75.9321117  19.4367313  46.9771338
  74.9621201  20.4913974  46.4895058  93.0206776  51.1513901   6.6005617
  93.7685776  51.0507011   6.0117060  92.7733994  52.0724344   6.5183401
  91.8904209  28.9489222  29.6691704  91.4233208  28.1618500  29.9494576
  92.1750450  29.3616652  30.4845643  99.5828438  15.2707708  20.9380722
  99.1841698  14.5864201  21.4756203 100.4755211  14.9627912  20.7815504
  97.5677395  44.2413664  33.2343435  97.9166603  45.0524044  33.6040759
  97.5644684  43.6259031  33.9674377  98.4763432  92.1548748   5.6881315
  97.6914215  92.3701000   6.1919254  98.1488323  91.9391060   4.8149687
  97.4821568  31.0101128  36.5772653  97.7839279  30.7746243  35.6999302
  97.0662403  31.8650222  36.4660525 109.1265869  42.1276903  21.0122776
 108.2155418  41.9770384  21.2643385 109.0932178  42.2680473  20.0660133
 100.6904316  37.7835917  10.6802166  99.9617290  37.7002215  11.2952483
 101.4611626  37.8982091  11.2361693  77.2145796  50.8480835  11.9364572
  77.5288296  51.7308903  12.1317303  76.4326668  50.7466698  12.4791920
   3.1637022  32.6157165  42.6294374   3.4521559  32.8754258  43.5044098
   2.4843395  33.2508278  42.4028683  94.3985653  50.0009060   4.2268491
  94.1424656  50.8532906   3.8745946  95.3346825  49.9352169   4.0381530
  87.6975441  15.7482028  61.8306732  87.8214264  16.3461518  62.5677872
  86.8563461  15.3255737  62.0038652  58.5653019  67.5620842  22.9843497
  58.5140181  67.0425272  22.1820641  59.3190956  67.2044516  23.4535241
  15.9568751  87.3164749  75.9163189  15.8516526  87.4748707  74.9781990
  16.7311656  86.7572594  75.9794331  90.5206680  70.4556227  59.5530224
  91.0036659  69.7650814  60.0070047  90.9539318  71.2662792  59.8201275
  73.0913734  38.2090163  47.8056240  73.1014490  38.6935067  46.9801521
  72.7216244  38.8235617  48.4395409   5.3731155  48.4072065  42.1060562
   5.9114391  48.6676168  42.8534698   5.9053594  47.7618313  41.6408253
 106.5093613  48.7490559  84.3330574 105.9511375  49.5186758  84.4439793
 106.4207935  48.5202742  83.4078312   8.0572081  76.3462162  32.2660899
   7.2304529  75.9238577  32.0330191   8.0062175  76.4655018  33.2144594
  94.3341637  33.6013961  23.1347990  95.2331638  33.5943532  23.4633994
  94.1010666  32.6764488  23.0550027  83.7542725  64.5249367  29.6012282
  82.8031445  64.5651722  29.5014191  84.0770435  64.2953777  28.7298203
  14.2299020  65.2080154  49.6236515  14.7435129  64.4900656  49.9937677
  13.6062014  64.7791147  49.0377569  74.6005869  57.1530581  40.7625628
  75.4519796  57.3533010  40.3736353  74.8105097  56.6832113  41.5696621
  37.9078817  49.6220493  30.7916665  38.1181002  49.7859526  31.7110014
  37.1911335  48.9882183  30.8191872  74.9844742  70.2229118  41.8935823
  75.0121450  70.4754543  40.9707117  75.5904818  69.4847965  41.9581890
 111.8899918  78.3175230  44.2264128 112.5552750  78.8362265  43.7741089
 111.2393665  78.1220198  43.5520983  93.6504269  47.3461342  48.7694502
  94.3260670  47.4476624  49.4398499  93.7497330  46.4444447  48.4639549
  11.1475408  20.2173185  16.1683857  10.6884956  20.9659600  16.5492356
  11.2699354  20.4538536  15.2489817 116.0633087  45.0326586  41.1696005
 115.8639526  45.8436537  40.7018661 116.7670059  44.6296453  40.6610584
  98.2444954  61.9579268  27.2807622  98.0165577  62.4937868  26.5210724
  99.1286564  62.2394323  27.5158191  24.4188786  13.8573468  33.3863473
  23.7507915  13.1729567  33.3475661  24.6102428  13.9526594  34.3193674
  98.7099075  59.3130207  31.3073301  98.5622883  59.2528915  32.2511673
  99.6055412  58.9984226  31.1844635  89.0800381  41.7061949  55.8519745
  89.2505074  42.6147318  56.1004448  89.9400616  41.3560152  55.6196833
  89.0523815  80.5324554  62.6388073  88.6645222  80.4993916  63.5132837
  88.4024620  80.1161861  62.0726347  18.6926603  36.7270398  39.3206167
  18.3142757  36.4247322  40.1462460  18.6875522  37.6816988  39.3901467
  15.2263463  64.4037151  40.2345276  16.0024941  63.8527250  40.3356791
  15.2457440  64.9864864  40.9936285  77.3411179  45.9667492  55.9336710
  78.0563021  46.1463165  55.3233433  77.7779150  45.7493401  56.7571831
  19.3505299  32.6262236  22.8479624  19.4989955  31.8108416  22.3690677
  18.3998263  32.7374220  22.8426290 108.8800716  82.9952335  23.9607906
 108.3700848  83.5013962  24.5932031 108.2262421  82.4996758  23.4676600
  78.2971191  47.7399921  47.2525215  79.2205429  47.5040865  47.3412037
  77.9325485  47.6140976  48.1285763  87.3992062  48.2271528  41.5127134
  87.6573849  47.7070570  40.7517433  88.1657124  48.2099724  42.0857811
   8.6925441  18.1330001  34.9264717   9.0705085  18.8583267  34.4292021
   8.9713991  18.2900786  35.8285785 100.2968216  57.7210379  26.8718505
  99.6004963  58.0570364  27.4361777 100.9704971  57.4149895  27.4790764
 102.7418327  15.2983606  94.2069626 101.7931747  15.3090155  94.3340969
 102.9482841  14.3823946  94.0209007  92.8982353  48.0579329  31.7762280
  93.2522297  47.9387426  32.6575398  92.5073814  47.2116899  31.5586400
  39.2302346 104.0769005  90.1663876  39.8999381 103.8033676  90.7932091
  39.1193366 103.3212566  89.5893764 113.4971428  58.8374376  38.9458466
 113.1468391  58.9204645  38.0589271 112.7239227  58.7292290  39.4996071
  14.7315383   1.7285132  66.7968225  14.1685283   1.1409710  67.3008490
  14.3404138   2.5942314  66.9142342  93.7533665  51.5582895  33.4588122
  94.0327930  51.6713428  32.5503135  93.8617420  50.6224203  33.6280370
 105.5477333  61.8728638  80.4546165 105.9418201  61.0553551  80.1503086
 106.0805511  62.5594711  80.0534916  88.0238819  78.0010939  48.4781122
  87.1672440  77.9687786  48.0522633  88.6354256  77.6919889  47.8097534
  12.1646333  55.5524111  27.2899055  11.5847278  55.4351044  28.0423546
  12.5856829  54.7002554  27.1768665 100.7968616  71.2353039   6.6751951
 101.0829735  72.0517349   6.2655520 100.9439087  70.5670929   6.0057896
  92.3327446  73.4396362   2.9639882  93.1661510  73.3147669   3.4179345
  92.2568512  72.6782608   2.3888488   2.7917933  26.4755464  56.8722153
   1.9768253  26.1329293  57.2391939   3.2060871  25.7175517  56.4598608
 112.3614025  36.3496709  41.9068861 113.1479359  35.8224916  42.0471382
 112.1655369  36.7211699  42.7670383  14.6734035  91.6544247  72.9731274
  14.5868802  92.5224972  73.3670807  14.4948566  91.7945385  72.0432234
   4.1783357  78.1885433  32.5945115   5.0602484  78.4709978  32.8367543
   3.6204448  78.5121965  33.3017850  85.8487034  46.5361834  14.7499990
  85.8598518  46.8990183  15.6356955  86.1112595  47.2658873  14.1889107
   3.2696345  97.2633839  87.5088310   3.9882499  97.3006725  88.1400394
   3.0312783  96.3370800  87.4717045  66.3539648  32.5090742  48.2852793
  66.1054182  33.0137944  47.5108671  67.0805693  33.0004930  48.6684036
  86.4255047  87.5028133  17.3154640  85.9890556  88.0950451  16.7030895
  86.2723637  87.8927612  18.1761146 100.1095390  16.0578394  55.0908804
  99.4325733  16.7015648  54.8821497 100.9338093  16.5111291  54.9138546
 102.1806335  79.0708637  31.6355062 101.2988567  79.1311932  31.2680078
 102.1522236  79.6215200  32.4179387 107.2028542  53.4493113  20.1950049
 107.9086685  52.9497099  20.6054401 106.6876030  52.7938986  19.7247040
 112.7694225  41.4987278   9.7979438 113.2011700  40.8248949  10.3230894
 113.0558205  41.3238335   8.9014971  53.6400223   2.5331482  87.1421146
  53.3465624   3.4438199  87.1139717  53.4955597   2.2073926  86.2537193
  72.6722288  77.7146101  25.0690293  73.5737944  78.0264187  24.9903846
  72.1802902  78.2432842  24.4407558   0.5389872  78.1353474  20.1815510
   1.4718208  78.3463478  20.1424098   0.2870029  78.3302736  21.0841799
  78.1392527  10.8417118  95.0399399  78.3018303  11.7083728  94.6675110
  77.6114559  10.3924882  94.3797398   7.6232535  80.3451157  51.9166613
   7.6679844  79.5613575  52.4643421   6.8347210  80.2231407  51.3879156
   1.1613839  27.3539186  21.2018085   0.2754355  27.3708510  20.8398128
   1.6869099  27.8473186  20.5720377  97.8422928  50.3600454  46.2686205
  97.3640442  51.1466122  46.5309668  97.4832249  49.6659088  46.8213224
   6.3537580  64.2861986  11.8288374   6.0378885  64.4405985  10.9385467
   6.7626876  63.4215593  11.7913091   2.7909461  57.0725918  42.4492693
   1.8909276  56.8930674  42.7212429   3.2797235  57.1416426  43.2693672
  98.9189816  35.6142235   2.0601119  99.8352146  35.3576016   1.9557796
  98.5002804  34.8509359   2.4579991 102.7938557  26.3451838  44.3095827
 103.6350632  25.9112477  44.1670799 103.0251408  27.2139001  44.6383238
 106.8123913  74.3874359  43.4459019 106.8021584  74.9317503  42.6585960
 106.0345650  74.6575975  43.9339828 113.5896301  54.9171877  25.1901531
 114.5137596  54.7617292  24.9951243 113.5270977  55.8642054  25.3145432
  92.9754543  64.4791603  49.2445374  92.5172901  63.6418295  49.1724586
  92.2781754  65.1244211  49.3614960 109.0482903  61.7763042  54.8386860
 108.9620590  61.0562658  54.2139101 108.7159443  61.4197159  55.6624699
  97.2837257  92.5780010  34.6564865  96.8891621  92.9502869  35.4451251
  96.5833950  92.6012897  34.0043998  23.8986993  56.2053776  22.2654510
  23.0184722  56.2579298  21.8930626  24.0352654  55.2717686  22.4265385
  95.4601002  57.4129152   1.3441971  94.5670509  57.5271082   1.6692643
  95.3661537  57.3807192   0.3921618   5.1857013  57.9928207  25.9600663
   5.7257265  58.2463121  25.2115035   5.8036149  57.6086235  26.5820050
 109.7045708  73.4938383  41.0627699 108.7482643  73.4878111  41.1035967
 109.9085712  73.1850338  40.1800156  21.2405062  70.4458094  14.2863452
  20.4917955  70.8986330  13.8982499  21.9508410  71.0866165  14.2543876
  90.7006359  66.4722872  37.6504278  91.0565662  67.0924711  37.0141029
  90.5492115  65.6726074  37.1466231  97.7989674  38.6544037  28.5098290
  97.3756218  39.4244719  28.8893056  97.1650887  37.9477406  28.6325359
 101.2687588  88.5042667  47.8436136 101.5212345  88.1192207  47.0044327
 100.6255722  87.8935337  48.2035351  14.0877926  76.5489054  12.5036585
  14.0325332  77.4949121  12.3685694  14.5181978  76.2190628  11.7148709
  90.4344559  59.4885969  17.9950058  89.7810173  59.1510773  17.3823643
  90.7560349  60.2910852  17.5841188  71.6418362  14.3377602  92.4789333
  72.4823236  14.7958028  92.4818134  71.0440922  14.9368799  92.0317268
  94.6012497  51.5572596  30.6938696  94.9946308  51.0087538  30.0151753
  95.1414299  52.3473740  30.7062149  77.6756477  44.5751619  34.4320679
  77.9638433  45.0185061  35.2299523  78.4519339  44.1072893  34.1243148
 107.3062038  50.2616358  46.0526323 106.7821598  51.0604239  45.9930277
 108.2093811  50.5719757  46.1172915  24.2139578 100.3664398  90.0497246
  24.5290065  99.5357609  89.6934319  23.9659667 100.8785248  89.2799854
  72.0935202  82.2788048  19.4787443  72.0817995  81.3688660  19.7755599
  71.1775684  82.4799919  19.2869568   2.8561372  77.9046726  16.3934362
   3.1198126  78.7824011  16.6696632   1.9309297  77.9934168  16.1646414
 106.0309315  47.5575399  37.3207498 106.4726830  47.8313589  38.1245589
 106.2711620  46.6367865  37.2171640  65.6466913  20.9717607  91.8394756
  66.4017153  20.5722213  92.2713757  65.6988001  20.6653810  90.9341335
  87.1584511  41.1390448  34.2871261  87.5795937  40.6624460  33.5717750
  86.2509155  41.2458372  34.0021753   8.2206565  72.3753881  17.7543724
   9.0983576  72.3962212  18.1357360   8.3022118  71.7955112  16.9971931
  78.0055761  39.4506073  22.5511813  77.7692318  39.0468669  23.3862662
  77.5715017  38.9090729  21.8919778   3.8770369  62.8228807  17.7209783
   4.4766989  62.6103210  18.4361386   3.2619107  62.0898485  17.6983142
  90.7367039  61.2252998  13.9498913  90.9588718  61.5676785  14.8157132
  90.6350136  60.2829838  14.0838206   3.0801246  51.2306929  52.8839874
   2.2296312  51.6286850  53.0697107   3.3300367  51.5866184  52.0312881
  74.0698624  47.6962662  39.9829364  73.8648558  48.1373119  39.1585064
  74.3581295  46.8217468  39.7214937 108.7233925  71.5779066  31.6347480
 109.1680717  71.1421394  30.9077001 109.2682457  72.3413849  31.8257189
 107.8055954  80.2124786  18.3642554 107.0551682  79.7510719  18.7386692
 107.4296761  80.7639980  17.6781499   3.8232794  65.6464195  40.5326748
   3.6180654  66.5041399  40.9047461   3.9367360  65.8122492  39.5968008
  95.9118271  65.1210213  42.5220442  94.9571896  65.0743484  42.5742531
  96.2170601  64.6708155  43.3096790  73.9556408  91.6320038  60.2129602
  74.7412157  91.2121296  59.8625278  74.2375231  92.0102978  61.0458279
   2.6131141  76.4006472  51.2946606   3.1993160  77.0623016  50.9274864
   1.9395518  76.2795258  50.6254244   5.8716768  29.9945879  17.7292812
   5.3052533  30.4003882  18.3855748   5.3524929  29.2704105  17.3796415
  93.0369759  46.4110804  11.2993681  93.3158016  45.8380842  12.0136213
  93.7545300  46.3721657  10.6670475  15.2290583 105.8445835  84.1102982
  16.0635948 105.5977440  84.5088577  14.5749831 105.6419849  84.7791576
 108.7747002  68.0979824  51.5170956 107.9930878  68.6497116  51.4867973
 108.6446476  67.5403309  52.2841311   1.5197587  73.9643335  30.5150104
   0.7355383  74.2674160  30.9725785   1.1863378  73.5329628  29.7282529
  16.3463044  78.9006948  91.0509872  16.5324068  79.5491552  91.7300320
  16.5026510  78.0573416  91.4758968  81.3471413  52.4098206  35.8535981
  81.3913345  51.4536428  35.8528876  82.0262718  52.6805162  36.4714479
  74.1056061   6.7180318  79.0402699  75.0039244   6.9764084  78.8341284
  73.5846281   7.0638210  78.3155298  16.4167070  56.9297981  25.3404403
  17.2899437  56.6183186  25.5784965  16.2523866  56.5466356  24.4788027
  71.6110992  48.6792135  32.1639419  71.6089678  48.5211897  33.1080055
  70.8330154  48.2233238  31.8430328 115.0757027  84.2296696  36.2377930
 114.6786785  83.9909649  35.4001641 114.3322945  84.3631744  36.8258095
  25.7590818  66.7243099  19.9346030  26.1893582  66.2082815  20.6163740
  25.7934141  67.6245499  20.2580523  91.5064716  62.4025297  47.8954315
  90.5971432  62.5386381  47.6293230  91.4962769  61.5686464  48.3652973
  96.4717770  82.9814434  43.3156633  95.6189060  82.6148891  43.5490799
  96.5644646  82.7961445  42.3811531 105.0705433  62.7304220  53.3470154
 105.4639053  63.1071091  54.1341639 104.2355251  62.3700428  53.6455011
  31.5633011  52.7925825  30.7925868  32.1238065  52.9197264  30.0271463
  31.5394545  51.8438053  30.9170389 107.7765846  26.3997722  23.8904476
 108.4923077  26.9600415  24.1905642 107.8018093  26.4695525  22.9361272
  85.1508808  84.2626762  19.2837119  85.0685596  84.3867874  18.3381701
  84.4841576  84.8374462  19.6596730  93.1117630  48.4026146  21.0465837
  93.8571167  48.0420637  21.5268898  93.0415154  47.8532457  20.2658820
  97.4232006  65.3500462  21.3937807  97.6093769  64.7867203  22.1449351
  96.4675713  65.3792858  21.3473558   2.0267983  81.1350822   3.5551524
   2.0975894  80.1983070   3.3716533   1.7568126  81.5225029   2.7225420
  98.4646988  57.6513386  52.7369356  98.7924099  58.4403801  53.1685114
  98.9122772  56.9315910  53.1817579  14.9623907  43.1759024  40.1089621
  15.7699072  42.9488611  40.5700445  15.2387679  43.7933254  39.4317341
 115.0101471  63.4455252  41.4452028 114.8680401  64.3161297  41.0736132
 114.4021130  62.8798103  40.9693003  91.6628170  79.8016357  16.0251200
  91.7798328  80.6471062  16.4583826  92.5177288  79.3767023  16.0942888
   0.8014149  28.2222009  50.9848309   0.3159577  27.5991154  50.4441547
   1.0597425  28.9156866  50.3777266 106.6635227  55.6945276  53.7476969
 105.7742596  55.8781576  53.4448338 106.8722725  54.8388433  53.3729267
  63.7902832 109.6734810  50.4145861  63.1735897 110.3834820  50.2362204
  63.3591795 109.1448212  51.0860777  82.4494171  46.0151911  59.0711641
  82.4984646  45.1984215  58.5744619  83.0391121  45.8801889  59.8129606
 105.2346706  25.0934887  45.1428223 104.5828438  24.8166299  45.7867956
 105.7155609  24.2937565  44.9297476 100.6733036  32.2670484  27.2551537
 100.2897453  31.5257001  27.7236843 100.8125496  32.9310179  27.9304194
  98.7890244  68.5096836  24.4042850  99.0858841  68.3268595  23.5128355
  99.0743065  67.7501822  24.9122262  10.5771780  30.6193089  53.4929609
  11.1116743  30.5767202  54.2858887  11.2085414  30.7482839  52.7851677
  20.4827118  77.7264690  22.3373246  20.2675939  77.8001595  21.4075255
  19.7735906  77.1998835  22.7062225  17.1519816  61.9392967  63.4126520
  17.3515594  61.9060802  64.3482256  16.5463388  61.2117290  63.2709694
  87.4164391  45.8067608  23.8091421  86.5808392  45.6180859  24.2362380
  88.0313587  45.1870680  24.2016697  13.7397122  50.5820084  37.9010916
  14.6953642  50.5639219  37.9524183  13.4934735  51.4110661  38.3112907
 102.7412415  51.5573406  54.7728395 102.8968334  50.6215334  54.6452045
 101.8250561  51.6836548  54.5261002  83.0241680  50.1733065  34.4604421
  82.8035164  49.3047190  34.1241479  83.6334610  50.5322361  33.8153362
 111.1460686  53.6466312  43.6041164 110.3989506  54.1215467  43.9681149
 110.8038616  52.7739048  43.4105396   1.5476452  54.9727297  14.7008991
   1.5655185  54.1129923  14.2804706   1.5387730  55.5949020  13.9735377
  96.8325710  76.2882137  27.8732181  97.5110149  76.3075399  27.1982551
  96.3737202  77.1225691  27.7755499  56.8623686   7.9526532  -0.0083241
  56.3377762   7.9220021   0.7917344  56.4574766   7.3049378  -0.5851782
 104.3343735  41.7316818  20.9140062 104.7777557  41.1450291  20.3012395
 105.0446320  42.1635580  21.3886046  28.8062549  34.0360141   4.5528674
  29.4764519  33.5983896   4.0279332  29.1669774  34.0489030   5.4394037
  10.9443355 101.4852333  14.8171782  10.2421069 101.3866425  15.4601312
  11.5913284 100.8251572  15.0660241 114.9976349  66.3715601  14.5639527
 114.7803116  65.4394054  14.5737410 115.9410095  66.3992500  14.7236657
 109.2776108  25.9565592  36.3252330 110.1580334  25.7266903  36.6223001
 109.1449547  25.4284430  35.5380058   5.9357315  20.2911091  34.8670769
   5.1078838  19.8623323  35.0839901   6.4070892  20.3365612  35.6989360
 113.8343334 102.3249340  18.1976986 114.2600346 101.7909718  17.5269568
 114.3055534 103.1578159  18.1755316  77.5222969  80.5961704  50.3000736
  76.9180679  79.8552227  50.2538729  78.2426977  80.3544044  49.7179985
 104.1425133  89.1876793  27.5864482 103.9095592  89.9255085  28.1499839
 104.6125412  89.5852089  26.8534493 113.2878399  62.2750139   7.3946834
 114.2389297  62.2639513   7.5020778 112.9530334  62.5377560   8.2520640
  18.5142910  81.9416618   4.6446070  19.4540966  81.8713474   4.4771162
  18.4307122  82.6961613   5.2276796  90.5760288  63.9581776  18.2231259
  90.5666256  64.5563316  17.4758947  90.4291725  64.5216465  18.9828420
  90.4898834  90.2707958  80.2739334  90.2743340  89.7269535  79.5163012
  90.2157497  91.1525059  80.0216198  70.6183958  88.2221699  32.4260426
  71.5381384  88.3132076  32.6750803  70.6414509  87.7540398  31.5914440
  10.5303895  83.7461090  45.7403898   9.7044426  83.5421562  46.1790752
  11.0693979  82.9657555  45.8698034 104.8705387  41.4921618  54.9900675
 103.9640999  41.5921879  54.6992302 105.3640556  42.1125841  54.4536400
  18.8001502  85.8537674  88.6378384  18.0147362  85.3464317  88.8426781
  19.4907594  85.1979160  88.5422039   3.3466160  84.5806122  37.8484559
   2.9286689  85.3777313  37.5226402   4.2483225  84.6365070  37.5321770
  66.6466904  58.9153910  62.1993351  65.8399200  59.1845369  61.7601156
  67.3072290  58.9130497  61.5065718  15.2334714  78.8678074  64.6208143
  15.4897285  79.2122364  63.7652826  14.2818809  78.7788534  64.5679474
  94.2066574  79.0776443  64.0077162  94.0587234  78.8053226  63.1020737
  94.0688419  80.0248241  63.9985657   3.7454671  61.3346767   9.1884834
   3.5370126  60.8052254   8.4187663   3.6758566  60.7259464   9.9238980
  81.7857647  62.5993299  68.6386824  81.2380219  62.4858236  67.8619385
  81.7575550  61.7493391  69.0779448   5.2682596  62.1413898  57.4667072
   5.2037930  61.4028263  56.8612337   5.6288445  62.8534698  56.9383574
  14.1281116  38.9013290  40.8007812  14.6762753  39.5569324  40.3695822
  13.4598517  39.4114065  41.2584686  23.1548262  49.9708319  40.6441832
  22.8923631  49.0555000  40.5466604  23.8515973  49.9516106  41.3002110
  12.4862719  72.1067762  26.8955064  12.4306798  71.9739008  25.9492064
  12.3818171  71.2307739  27.2669148  98.8217354  64.3068504  66.6569567
  98.8072395  65.1252604  67.1531677  99.5026398  63.7829113  67.0789623
   6.1335021  48.7730551  79.4605064   6.4917320  48.1907463  78.7905645
   5.9719974  48.2027197  80.2120876  14.8402095  78.4850931  27.6048827
  14.7543335  79.1158390  28.3197379  14.2685688  77.7594757  27.8557444
 106.6146851  80.0123501  47.6175737 105.7097435  80.1407623  47.9018593
 106.6079140  79.1650534  47.1722841  22.3704457  59.6424866  54.2125511
  22.7779293  58.9225864  53.7309599  21.4709067  59.6699047  53.8864994
 113.6232758  73.0629921  18.4910405 114.0733814  73.6886120  17.9233801
 112.9152203  73.5683393  18.8904214  96.1734676  96.0576248   4.8669714
  96.4693832  95.1483440   4.9103108  95.4647446  96.1096668   5.5082482
  20.3766322  98.6572552  93.4171581  20.7358694  98.4213543  94.2724514
  21.1447120  98.7647438  92.8561497  18.5304511  80.6251621  37.7015948
  19.0991926  80.7121468  36.9366121  17.6436627  80.6192303  37.3413134
  15.6884539  73.4952879  24.9129438  15.1052988  72.7433872  25.0169063
  16.0273659  73.4140778  24.0214419  94.0629387  62.8788757  61.1019516
  94.3498611  63.4888601  60.4223776  93.7109470  63.4391689  61.7936182
 108.6720562  25.0114274   5.3383172 108.4887218  25.6894183   4.6879703
 109.5328331  24.6715379   5.0938493  86.8969345  60.1528835  55.4035330
  86.4959717  60.6401396  56.1232805  86.1735439  59.9749804  54.8024559
 113.1389141  88.3782482  52.9099369 114.0534496  88.6406803  53.0147743
 112.6552582  89.2035866  52.8762484  66.4820623 109.4717503  40.0441074
  66.9806719 108.6819839  40.2536154  67.0591259 109.9736691  39.4685197
  87.3226929  71.2106705  61.8824387  86.3973331  70.9937763  61.7688370
  87.3176670  72.0847178  62.2726345  99.9262428 100.1818180  27.0870948
 100.8782864 100.0892258  27.1226048  99.5995617  99.5411968  27.7188516
   7.1157038  42.5344753   1.6211072   7.4066043  41.9038820   2.2798645
   7.6724488  43.3005238   1.7605297  93.3939648  78.8218784  54.7905636
  94.1242218  79.1125584  55.3368759  92.6857567  79.4334650  54.9921560
 101.9115257  51.4499855  15.4872501 101.8853283  52.4066257  15.5067539
 102.8036976  51.2293100  15.7547724  88.9625263  41.6705465  27.9534316
  89.2418194  42.5183105  27.6077080  88.8042927  41.1351633  27.1758962
   5.6903815 107.2647095  88.1968117   6.5954542 107.5456810  88.3314514
   5.6430447 107.0473671  87.2658157  94.6914577  15.7350791  83.9995289
  94.5528793  14.7880542  83.9864254  93.9029789  16.0981250  83.5961246
  74.4406557  54.8047590  28.5245562  74.6268988  54.6872759  27.5930285
  75.3030682  54.8637772  28.9356494   6.8429178  41.1908054  25.1825738
   7.2195840  40.3958082  24.8053026   6.3902396  41.6115761  24.4516397
  72.7818060  57.1569920  61.7566824  73.0143642  57.6871109  62.5189972
  71.9677734  56.7205095  62.0078087  72.6127720  29.5135117   8.6315387
  72.9323578  28.6432934   8.3931738  72.9474354  29.6574068   9.5167094
  41.0101223  27.4302983  30.1195526  41.9082546  27.2230649  30.3777218
  40.5047989  26.6563129  30.3681898  81.2882614  74.0794706  27.4684095
  81.3693237  73.6799955  26.6023374  81.4888096  75.0044155  27.3252630
  19.4587421  65.0358868  35.1423931  19.5535684  64.4119930  34.4226742
  18.6344302  64.7922277  35.5635476  85.6303883  37.5720167  26.5973115
  86.0926437  36.8851471  27.0776939  86.0796070  37.6178288  25.7533097
  99.1838074  83.1018066  24.2151785  98.8845062  83.6851406  23.5177779
  99.4173908  83.6885738  24.9344659 108.3650017  30.7610941  18.8877487
 108.2396793  31.2017441  18.0473006 109.2612171  30.4268527  18.8516486
  11.0808456  47.5902319  19.5032334  10.1476371  47.3774672  19.4939089
  11.2747669  47.8565884  18.6045229  82.0444965  89.4551086  41.6090727
  82.9260921  89.8138809  41.5075588  81.8921280  89.4578934  42.5540590
 107.7766132  45.8003187  16.7323565 108.0769634  44.8915195  16.7217231
 106.9493103  45.7848024  16.2511504  90.6563377  72.8692865  24.1985250
  91.2359619  72.1079159  24.1743374  89.7743511  72.4981689  24.2232370
  92.2663498  84.1453171  56.5449572  92.4865913  84.4095898  57.4382019
  91.4345074  83.6796665  56.6311693 101.3188076  50.3714037  50.0012732
 101.3486862  50.3662300  50.9579945 102.2376060  50.3656960  49.7329187
 108.6817646  58.0317163  35.7125068 108.5357666  57.1509409  36.0576987
 108.7870121  57.9050112  34.7695851  17.7648640  57.9708529  39.2772913
  18.3670962  58.7009382  39.4205523  17.5389183  58.0254173  38.3487415
 113.0817890  43.9299631  23.7084270 113.7248516  43.2689047  23.4520984
 112.2521591  43.6055374  23.3581519  19.7121429  55.5574274  12.2809482
  20.0883460  55.5463362  13.1610513  18.8513923  55.1513815  12.3832691
 113.2005882  25.0303221   0.9661064 112.9689217  25.3822374   0.1066186
 112.7200794  24.2045140   1.0242396   9.9755913  87.1357632  20.6537652
   9.1380656  86.7567539  20.3870583   9.7496212  88.0025387  20.9912038
 111.5945244  77.1457434  41.3734341 112.3621464  76.7956781  40.9212923
 111.4410591  77.9960775  40.9615946  19.7061765   5.1868665  45.5327606
  19.7123551   4.2798829  45.8386612  20.6228352   5.3793436  45.3354740
  18.4473729  67.2855568  49.3435383  18.4736180  66.6943026  48.5912323
  17.5633276  67.6522827  49.3292189 111.7257214  87.9390621   6.7180878
 111.1366844  88.3836937   7.3276502 111.1804390  87.2713089   6.3021421
   8.4792066  67.6738405  16.4409399   8.7191862  66.8472910  16.8598187
   8.6286479  67.5217009  15.5077982  44.5333719  91.4252090  13.8101268
  43.6552715  91.7335320  14.0339673  45.0846386  92.2050953  13.8742232
  29.4970512  91.2601566  19.5372057  28.6006784  91.3537312  19.8596859
  29.9954081  91.9193554  20.0202513  97.8167152  73.4240532  30.1225638
  97.4482632  72.7854490  29.5121026  98.6774635  73.6332130  29.7598028
 110.3282452  44.4070911  58.1742668 111.1608124  44.1011715  57.8144312
 110.4699230  45.3376532  58.3480835  70.8598804  74.6356535  28.5950661
  71.5077734  74.1189194  28.1160522  70.0902271  74.0686941  28.6442852
  87.1646309  60.1736879   7.0590770  87.7106094  59.4878244   6.6747290
  87.7358818  60.6075191   7.6928753   9.1721487  69.9160051  78.3718967
   9.2978001  70.0710058  79.3080711   9.2215359  68.9647150  78.2778835
   2.0718007  45.5557919  15.0407898   1.9448353  46.5031910  14.9903250
   2.1836333  45.3785372  15.9747624 112.7731323  51.0658026   6.6435546
 113.3127499  51.5423107   6.0126936 113.3968735  50.5369139   7.1410042
   9.0924251  96.2193298  22.0423985   8.6074913  96.2096405  21.2171865
   9.0177757  97.1214771  22.3534942  99.0491676  66.4251137  32.7837729
  99.7076225  66.1877775  32.1308279  98.8249016  67.3328161  32.5787997
  98.6670303  89.2415237  38.1539750  98.6020374  88.5919571  38.8540268
  97.7673912  89.3534374  37.8468084  54.6933699   1.1287586  91.8464661
  54.7578430   0.4710770  91.1539841  53.7813568   1.4179873  91.8179226
  11.9506371  78.6499596  51.9597530  11.0786963  78.2554817  51.9413471
  11.8217373  79.5322847  51.6117334   0.7245107  81.6368389  33.3854032
  -0.1178976  81.2932301  33.6829066   1.0287386  82.1846771  34.1089749
   6.6073865 104.1505241  51.0081768   6.1587179 103.4770107  50.4969931
   5.9455800 104.4639015  51.6246510   8.3895260  67.7165174  52.0396233
   7.7351141  67.6359224  51.3457346   7.8770781  67.8282070  52.8403425
   2.5322482  20.7288218  54.7232676   2.7130017  21.3519669  54.0195274
   1.9318286  20.0939012  54.3326235  88.7312603  62.1975708  28.3720565
  88.1509495  62.4565554  27.6562381  89.2328167  61.4623594  28.0197239
 113.6887741 107.7242947  79.8023987 113.1414032 107.0635319  80.2266788
 114.4064236 107.8722286  80.4182816  78.3529377  87.0124531  53.6686516
  77.6770020  87.5749207  54.0467596  78.9738989  87.6206207  53.2676888
 109.0237617  69.8161793  64.3408775 109.6730995  70.4735994  64.0910912
 109.5311260  69.0144444  64.4675255 105.3282928  23.9218426  89.4219398
 105.5818367  22.9999924  89.4682217 104.3953609  23.9247036  89.6361256
 108.5236645  58.1804371  27.6974940 108.9451313  58.9916658  27.9812360
 107.6654434  58.4562826  27.3756361  77.1082306  32.9051924  94.0445042
  76.6114855  32.4461222  94.7218037  76.4765930  33.0481458  93.3396435
   3.3204663  55.5996275   7.0957655   3.1069052  55.0760555   6.3234359
   3.2707348  56.5059662   6.7919391  99.7764969   1.7991380  91.8888187
 100.4171562   1.0930869  91.8035126 100.2856922   2.5486010  92.1974373
 114.1310501  75.9178495  30.9680986 114.7831821  75.4417229  31.4821696
 113.3586884  75.9509182  31.5325403 102.7698135  69.3700361  12.9327488
 103.2305527  68.5847950  12.6372147 103.4360409  69.8791361  13.3944702
  92.2671604  80.8668423   0.7966474  92.4560642  81.8021679   0.7209866
  92.7655792  80.5830574   1.5629846  25.0384974  87.0727634   7.4492508
  24.5143151  86.3481331   7.1081221  25.6750512  86.6554451   8.0296612
  24.9665165  49.3724632  13.4537923  25.6506228  48.9385843  13.9636743
  25.4178357  50.0900364  13.0092382   8.5573399  80.8460712  25.7927299
   9.1601592  81.0722065  25.0844193   8.5771346  79.8897266  25.8279276
 110.9214401  54.4213772  71.0758877 111.7896366  54.2646265  70.7045507
 110.3881454  54.6966743  70.3302097 105.1771641 108.3148193  13.0990267
 105.6777477 108.3376980  12.2834730 105.8301353 108.4545612  13.7848413
  98.2715988  72.0059156   1.3155523  98.4004402  71.3319874   0.6481297
  98.8729191  71.7636299   2.0197812 107.5451660  81.1625290  22.3282242
 106.7480659  80.8623886  22.7650023 107.8856659  80.3831100  21.8891382
 108.7054157  86.8128014  48.6929321 108.1297970  86.8576622  49.4563961
 108.5431480  87.6303482  48.2222605  90.4215050  75.3523588  16.0405135
  90.3515816  76.2771416  16.2773979  90.6479836  74.9117756  16.8595576
  94.9177837  99.1075897  17.5413823  95.5558681  98.4606457  17.2404695
  94.0791512  98.6468792  17.5154805   8.4955841  79.7711992  37.7600145
   8.9450681  79.8603535  36.9196296   8.0380368  80.6038666  37.8764319
 103.8154125  63.8723755  45.5495787 104.3019295  64.0950680  46.3432741
 104.2263412  64.3962193  44.8618603 110.0357342  90.1189804  44.2425251
 110.7421684  89.4761181  44.3050385 110.3825569  90.8988571  44.6758032
  27.1635199  44.5980787  19.4758189  27.1508765  44.5676613  18.5191858
  26.9513416  45.5067062  19.6893835 111.1218262  66.3926077  57.8274298
 110.9482479  66.8273449  56.9925022 110.5532742  65.6225967  57.8192806
  89.6666336  87.3602009  25.1164365  90.2778053  86.8202496  24.6152759
  88.8075542  87.1546173  24.7477317  97.6794529  82.2362709  50.6798172
  97.8065395  82.2241783  49.7311687  98.5099125  81.9213581  51.0367584
  90.2038383  50.6529570  19.8748708  90.1433563  50.7923460  20.8199334
  89.9436188  49.7402763  19.7502410   2.7749091  51.6421938  74.7130537
   2.4315603  51.2208796  73.9251184   2.6930809  50.9762716  75.3957510
 105.1683998  43.5761547  34.6190810 104.2848110  43.6473942  34.2579246
 105.7218838  43.3846426  33.8619757 104.4956589  72.1248484  56.0238791
 104.6717739  71.9837952  56.9541025 103.6029339  72.4692774  55.9986591
  75.0953817 107.8684998  39.1096401  74.9385786 107.4560356  39.9590611
  76.0062695 108.1599331  39.1494060  96.2914658  62.7755117  46.9301367
  96.0979080  62.9233217  47.8558350  96.9255543  62.0584631  46.9295502
  56.4711475   2.0155746  60.4691887  57.3822451   2.2922955  60.5669832
  56.3314009   1.9816361  59.5228529  82.8606701  41.6307783  93.8162136
  81.9535923  41.3964272  94.0124989  83.0953121  41.0770988  93.0714989
  97.0336437  82.0140743  20.2729845  96.9158554  81.4385414  19.5172596
  97.3092651  81.4291954  20.9788084 107.2833824  34.2138052  38.7719440
 106.7140102  34.0579295  39.5254350 108.1275940  33.8429713  39.0288877
  65.8010340  24.4146633  81.7851257  65.5872726  24.7131538  80.9011269
  65.1871490  24.8828149  82.3509884  93.5524178  58.2176924  12.6304054
  94.4248104  58.0190849  12.9705834  92.9527473  57.8392124  13.2733524
 115.0658703  68.6303949  22.7250075 115.6454086  68.0683231  23.2392454
 114.3492126  68.8455057  23.3219695 105.4877377  78.6001158  18.0090129
 104.7496223  79.2066097  17.9491389 105.1291561  77.8291035  18.4485483
   4.8350874  54.7892904  14.6305346   4.3994024  54.0264320  14.2504621
   4.3121761  55.5350780  14.3362594  28.0939651  71.7537642  23.1225109
  28.1428146  71.6643858  22.1707463  28.8985729  72.2139120  23.3614755
  23.9886475  63.0838585   2.6269481  23.1830716  63.5616541   2.4294901
  23.6910152  62.2712946   3.0360752   3.0444327   4.4590989  65.3113604
   3.7298501   5.1217479  65.2257347   2.8985584   4.3858850  66.2545443
  20.7872105  61.8790960  19.3626857  20.7432890  62.8240347  19.5089424
  21.5613770  61.7575359  18.8130307  32.9692531  82.0745945  15.6696105
  33.4777999  82.8804207  15.7604456  33.2224512  81.5450668  16.4257348
  75.3844452  66.6700506  27.6216602  75.4629278  67.4074888  28.2268476
  74.5934057  66.8579197  27.1164942  20.2626586  61.4746189   4.2129263
  19.7314775  60.9756565   3.5923487  20.3551698  60.8950996   4.9691218
  98.5225105  85.1458549  37.2216558  98.0435181  85.7802677  36.6884422
  99.1927528  85.6645203  37.6666307   9.0613216  65.2382898  10.2905250
   8.2305974  65.3755951   9.8352480   9.5667911  64.6770573   9.7025210
  12.9015470  67.5166130  52.1469975  12.5514042  67.8747511  52.9626942
  13.7259936  67.9845190  52.0143938   0.4913054  71.2395573  19.0076530
   0.4814098  72.1965027  19.0274715   0.6527051  70.9828472  19.9155533
  99.6098709  69.5495462  60.1972628  99.0436840  70.2244759  60.5716133
 100.2501392  69.3657207  60.8846426 107.8031921  95.0151348  36.1883378
 107.2125340  95.5105686  35.6209874 107.7742195  94.1227436  35.8433270
  11.9116855  44.8329306  53.8653660  11.3527989  44.1183567  53.5599804
  11.3037992  45.4658413  54.2476368 108.3322906  67.9142332  17.8673160
 108.5231113  67.3436165  17.1228611 107.6620483  68.5155344  17.5425839
  93.8065624  85.9649372  52.4801016  94.5439339  86.0290718  53.0870581
  94.1824055  85.5851936  51.6858959  32.0239758  81.9491959  88.4258080
  32.9015183  81.6067600  88.5957718  31.7063761  82.2306633  89.2837906
 108.3041000  32.0343256  91.0569477 107.6296902  32.4962831  90.5589485
 109.1054726  32.5315952  90.8933449  14.7350621  44.6276045  53.0680227
  13.8129079  44.3934393  53.1730461  14.7597277  45.1499414  52.2662830
  86.1812210  69.7081709  24.6482062  86.0781765  68.7607956  24.5582604
  87.0405388  69.8180485  25.0553179  92.1795368  14.5541930  82.1251106
  92.5706005  13.8172543  82.5943851  91.6952515  15.0354981  82.7959538
  65.4585409  75.3615570  49.3179464  66.0214424  75.4805422  50.0829363
  64.9222517  74.5980358  49.5316315 114.3549156  43.3554459  15.1349854
 113.7534142  43.5004663  14.4046438 113.7953186  43.0505657  15.8492255
 101.1293793 103.6910820  34.6380949 100.2548313 103.9552689  34.9237752
 100.9716320 103.0303764  33.9636898  11.5137994  52.0987606  40.9160662
  12.1142662  51.3919878  41.1530209  11.8255687  52.4021578  40.0634336
   9.6512049  56.0634756  65.9947538   9.5025462  56.7074394  66.6871738
   8.8164842  56.0158920  65.5286980   1.2274858  60.9221649  27.8866673
   2.0721042  60.6161070  27.5562406   0.7215554  60.1220465  28.0283737
 112.8566170  67.8001165   5.7325900 113.0611801  67.3677540   6.5617144
 112.2181988  68.4743261   5.9651744  60.0988154  19.5131039   1.5228904
  59.7975688  20.2825045   1.0396541  59.6313719  18.7803101   1.1219657
 114.4489288  49.8875141   3.7519518 113.5576153  49.6572065   3.4897485
 114.3795776  50.7869339   4.0720576  63.6176872  33.4311461  82.0683670
  63.5856342  33.7897825  82.9552650  64.5337725  33.5221529  81.8061829
  14.2117500  83.8856697   1.7739224  14.0247262  84.0620804   2.6959488
  14.9001670  84.5102501   1.5454111 111.3608742  51.5062046  75.0299358
 110.6242752  50.9598064  75.3039789 111.7418003  51.0392618  74.2862320
 111.5291691  84.7682667   9.0120846 111.4012623  85.3718376   9.7439158
 112.4627590  84.8309135   8.8103145 107.0028877  71.2516546  10.9627116
 107.2100258  70.3283167  10.8185887 107.5760078  71.5162086  11.6822708
  69.7070646   5.0589287  16.3750315  69.8918724   5.9053111  15.9679484
  68.7527847   4.9869257  16.3552868  72.4786949   3.3484033   1.9582835
  72.5833893   3.8528088   2.7650338  73.3034420   3.4735155   1.4888510
  87.1529961  15.1112604  23.4887767  87.6950645  15.3288722  24.2470932
  87.0393181  14.1622174  23.5400510  66.1599112  21.6395116  45.0860167
  66.5913153  21.9091702  45.8968210  65.4677773  22.2877812  44.9559164
  70.8847284   9.8519623  30.9198356  70.2784491   9.8957956  31.6592503
  70.8135653   8.9508814  30.6048441  71.9843292  99.9110699  23.7312508
  72.1441221 100.8163929  23.4646225  72.7212000  99.4205189  23.3670855
  76.1022902  99.8049545  39.9018931  76.4463234  99.2939186  39.1692853
  75.5464077 100.4674721  39.4916439  72.0380783  91.0640240  31.9819951
  71.1104107  91.2997341  31.9715452  72.0488405  90.1457310  32.2519135
   9.9206066  59.3887329  95.1232243   9.3726307  58.7639570  94.6482372
  10.8086467  59.0419149  95.0375748  10.2462041 107.0135212  24.2425728
   9.6235502 107.7196121  24.0694404  11.0472202 107.4617577  24.5140314
  63.8057184  47.7013636   9.7230077  64.6384525  47.2448015   9.8427379
  64.0281534  48.6292267   9.7993016  82.2077274  77.9788065  89.1676712
  83.0428123  77.5121069  89.2002583  82.3879147  78.8215446  89.5842743
  99.5579243  20.6308055  45.5615377  99.7193718  21.5377045  45.3013468
  98.6049652  20.5425549  45.5437231  84.8909187   4.9718875  18.9851737
  85.0057411   4.0582180  18.7239170  85.7397175   5.3790194  18.8119352
  88.5266876   4.3034700  32.4888182  87.7366352   4.4783485  33.0001473
  89.2418957   4.3754905  33.1208944  11.8280482  76.9852066  93.9875317
  11.0479438  77.1662188  93.4632206  11.5923226  77.2649193  94.8720837
  49.5078802  21.9957328  43.7500906  48.9853096  21.7023468  43.0037165
  49.5329475  22.9488206  43.6650658  49.8003626  16.8084645  13.8624895
  50.3390074  16.6858435  13.0807912  49.4520617  15.9373474  14.0524185
  84.4152355  12.4857652   7.2746539  84.7719669  11.9241166   6.5865231
  84.6744251  12.0584011   8.0909956  32.5818300 108.4878159  51.8598747
  32.2452760 108.3609200  50.9728241  32.8871417 107.6206875  52.1265316
  88.5964584  22.8846169   1.3747045  89.0237999  22.3382497   2.0343222
  87.6759529  22.6242113   1.4078011  35.3549623   0.4923117  37.8936434
  35.4759264   0.5093987  38.8430142  36.1492801   0.0764716  37.5584316
   7.6569211   7.1657473  15.5337179   7.6966852   6.2296623  15.7296669
   7.1652788   7.5425363  16.2634778   6.6635489  17.7956522  53.7098694
   6.4906335  17.8789377  54.6476316   5.8292425  18.0100691  53.2925081
  62.6461554  17.8611183  27.0467639  61.9542599  17.6603723  26.4165187
  62.1953583  17.9104221  27.8897238  76.2736654  19.9754655  23.5290527
  77.1012640  19.6537960  23.8865995  76.2805700  20.9141374  23.7163496
  78.2930231  24.0250397  37.9060316  77.4425411  24.0551639  37.4678493
  78.7306118  23.2625103  37.5274849  95.3415871  55.9366512  93.2719326
  95.2562618  55.9307575  94.2253017  96.2318134  55.6247854  93.1091976
 100.9359074  16.5698004   0.8440632 101.5711021  16.3293552   1.5185511
 100.1459408  16.0804367   1.0736598  77.7850294  22.9687738  28.3258843
  78.0354357  22.7008271  29.2100430  77.2551203  23.7553787  28.4550476
  53.5535240   8.6786634  38.3477283  53.5166645   8.8750762  37.4116206
  53.6387157   7.7261752  38.3894324  49.4608593  35.4955077  13.5604131
  48.9452171  35.1841140  12.8165185  49.0824318  36.3484144  13.7738919
  37.5132132  85.5085754  32.9950714  37.1256375  84.8495483  33.5710001
  37.5226164  85.0961113  32.1313500  71.4516163  95.0571251   6.5214437
  71.6413021  94.2780685   7.0442450  71.8467712  94.8754120   5.6687629
 116.2962289  72.0861340  86.1514091 116.7785099  72.0720530  86.9781208
 115.7047526  71.3355541  86.2063599  95.5320358   6.8976140  25.7360220
  96.4318371   6.6792983  25.9787560  95.4398346   7.8224230  25.9650660
  33.8028216  89.0505600  35.6570196  32.9407072  88.6347103  35.6494999
  34.1444683  88.9095497  34.7740531  99.5478630  19.9902320  37.1384215
 100.0734711  20.6786466  37.5459170  98.6432838  20.2840972  37.2461390
 109.6364403  29.8029327  22.2993064 109.4237614  28.9281440  21.9741201
 109.3850040  29.7828913  23.2226753  49.5586443  25.1931310  50.2167654
  50.1731396  25.2814579  49.4881868  48.7282372  25.5200744  49.8706913
  18.0514598  95.1014709  34.6368122  18.6616087  95.2077579  33.9069819
  18.2634747  95.8198452  35.2328134 106.3453102  28.5448432  29.1109514
 105.5576420  28.3132935  29.6030784 106.1359882  28.3201528  28.2043481
  88.4588528  75.7030392  58.8600492  88.6035061  75.0561571  59.5505905
  87.5693321  76.0217857  59.0129852 111.5078449  91.5768242  85.6682205
 111.8391800  91.5508556  86.5658665 111.4810658  90.6594944  85.3961658
 105.8992481  55.0577879  63.4415340 105.6891251  55.1661539  64.3690777
 106.5690994  55.7193708  63.2688189 112.2607899   5.5325329  25.0037217
 112.5352097   6.0871977  25.7339764 113.0541325   5.4144752  24.4813180
 103.8543415  18.9071298  13.5347331 104.0965939  18.4575331  14.3443036
 104.3725967  18.4744644  12.8561771   3.2049078  58.0115700  91.5979767
   3.6496231  58.4906340  90.8987236   2.5856560  57.4418640  91.1417007
  10.4731393 106.8272018  31.3725138  10.4117560 105.9612274  31.7756820
  10.1168084 106.7073727  30.4922295  38.0653119  76.9441271  93.3098507
  38.6800790  76.2327909  93.4895611  37.2082019  76.5827084  93.5356236
  66.7976379   2.4241287  35.3008509  66.0239267   2.6245680  34.7741389
  67.3196507   3.2260281  35.2744770  53.5364819  96.4664268  18.4771490
  53.9372540  96.4286900  19.3455899  54.1845703  96.0672665  17.8967309
  54.7651052  39.0531325   1.8601319  54.9698544  39.0924668   2.7943498
  55.5862379  38.7877607   1.4459400  83.0834293  17.5827789   3.1382015
  83.2123852  16.8205285   2.5737771  82.6004791  18.2047749   2.5940403
  56.9352293  20.3337169  22.6741123  57.0894003  20.0056624  21.7881989
  57.1267509  21.2699723  22.6195312  26.1639905  76.8216038  24.7740507
  27.0258927  76.4086962  24.8275781  26.3203430  77.7345228  25.0156355
 114.2218494  60.9412956  30.3878117 114.0781116  61.3069487  29.5149589
 114.6072292  61.6604900  30.8882856  24.6491790  64.8163843  94.1891956
  25.0922847  65.0874949  93.3852196  24.8554730  63.8855505  94.2741680
   9.7789168  83.7910652  84.9081898  10.7247961  83.6680412  84.9882507
   9.4260359  82.9032326  84.8494244 104.6424484  10.6720066  31.1010265
 104.1455173  11.4559817  31.3348699 104.0054417  10.1057744  30.6653142
  82.2038555   4.3414795  18.9674783  83.1139374   4.6055111  18.8323474
  82.2062111   3.8996276  19.8165905  47.6210356  97.7971268  37.3529601
  47.8480339  98.3105087  38.1282949  48.2339001  97.0619488  37.3646283
  68.8941622  47.2400665  16.0973668  68.6361837  47.1373177  17.0134020
  69.3869114  46.4443779  15.8966112 102.0403767  63.1223726  92.0715809
 101.1049271  63.1602049  92.2709084 102.4450684  63.7107658  92.7089691
  49.9306822 102.9225922  48.8379908  49.3160439 102.7872372  49.5591927
  50.0878572 103.8667774  48.8312626  25.2563453 107.7337170  25.0488710
  25.4741931 107.0091438  24.4625616  24.6813774 108.2966995  24.5305133
  96.0549831  39.9599981  30.5305219  95.5895519  40.7963324  30.5181408
  96.5128517  39.9531221  31.3710833 106.9979286  13.7945831  50.6634855
 106.9391155  12.8939259  50.9822178 106.9405746  13.7158918  49.7112513
 115.5483242  11.0579586  48.4478664 116.1782213  11.7708719  48.5537815
 115.1310458  10.9776402  49.3055725 100.9035587   4.0462103  93.3627605
 101.2307644   4.4978762  94.1406822 100.2096272   4.6151549  93.0295944
  51.6277218  22.5726104  29.8408604  51.4759254  21.6281080  29.8076344
  50.8962774  22.9500866  29.3522549  84.1787052  29.2368031   4.9142784
  84.4957161  28.3551455   4.7182894  84.9429512  29.7994208   4.7892678
  46.3458395 108.8922882  42.9825401  46.4469481 108.0496216  43.4251785
  45.8669710 109.4356441  43.6083889 100.4981327  25.3813362  43.2609415
 101.2063980  25.8212924  43.7310886  99.9040604  26.0877037  43.0072498
   2.4729873  85.0508118  41.5469599   3.3986321  85.2217579  41.3732052
   2.0210381  85.8315086  41.2268162  32.0473599  96.1586857  34.7597575
  31.7830682  95.3728104  35.2380776  31.6941571  96.8833256  35.2758694
 104.1268921  23.6185217  40.5754948 104.0514183  24.0505147  39.7246599
 104.7605610  24.1492605  41.0582113  89.8578167  19.8450589  28.7606096
  89.0162086  19.4996297  28.4629369  89.7207451  20.7904506  28.8212490
  49.4577551  40.4568100  32.6843572  49.6006155  39.5124292  32.7473307
  48.6122179  40.6000233  33.1095529  51.6523266  93.7831783  32.9764915
  51.2673664  92.9157925  33.1017113  50.9087944  94.3842030  33.0230117
  69.2107534   7.8425717  42.4887228  69.1967726   7.5730932  43.4071016
  68.3475113   8.2281208  42.3390770  98.1601334  55.7800674  93.2316780
  98.9453220  55.4403687  92.8023624  98.0459976  56.6562796  92.8636265
 107.1478939  32.1258450  20.9341002 107.4264908  31.6052675  20.1806974
 106.7687988  32.9171228  20.5514717  95.5068874  25.3546286  22.5672293
  95.8922958  24.8640347  21.8412781  95.4921722  24.7332382  23.2951617
  38.1355023  96.2716866   6.8763846  38.5228920  95.5709457   7.4009144
  37.7704358  96.8788433   7.5200546   6.4041996   9.3379354  39.4799733
   7.1597010   9.6635789  38.9906812   5.7613349   9.1141993  38.8069940
  67.2185898  42.4802065  25.9839392  67.3534107  41.5505266  25.8002186
  67.1898603  42.8931952  25.1208925  30.3393626  46.6710234   3.9240190
  30.3153706  46.1268997   3.1368798  29.4189215  46.8160248   4.1430974
  74.2013836  40.3244591  42.0307970  74.2725992  41.1163473  41.4978075
  74.8331833  40.4541731  42.7380705  97.5585079  48.3280993  40.4526663
  98.3800697  48.8130283  40.3745079  97.3459435  48.3657551  41.3852072
 109.2852974  80.4489040  80.5660725 109.9562645  81.0709286  80.8473587
 108.9698696  80.0531673  81.3785553  87.7691460  28.2264090  33.3991194
  87.5378609  28.3028316  32.4734306  87.9434490  27.2938371  33.5262442
  98.1120110  27.2099900  37.1844721  98.8352776  27.7305770  36.8350458
  97.5603390  27.0257783  36.4242387  75.8528996  23.0681252  23.4490991
  76.0152769  23.9572954  23.1340694  74.9315786  22.9065442  23.2458901
 102.7064991  15.7829046  40.1788425 101.8210030  15.4504454  40.0318575
 103.1924629  15.5243540  39.3957615 108.7089252  79.3550873  83.1146526
 108.4089375  79.7271204  83.9440060 109.3248081  78.6679840  83.3692169
 112.6838207  87.8917408  83.0168819 112.6441860  87.4191952  82.1854115
 113.6074734  87.8608036  83.2661629 100.0256729  22.1180844  22.1348715
  99.1778755  22.1738935  22.5757265 100.2800274  23.0292106  21.9886398
 110.4132652   9.1605496  10.3835964 110.6713581   8.5401714   9.7018683
 111.2162876   9.3187380  10.8799458 102.5284004  12.5784349   5.5661392
 103.3218670  12.1296811   5.8581489 102.0506287  12.7697122   6.3732165
  68.0782557   7.8667206  38.6807632  68.6920214   8.5073161  39.0401506
  67.2157574   8.2590044  38.8165903  76.5365982  99.5204449  44.4148636
  75.8713675  99.4705486  43.7284136  76.3175344 100.3138638  44.9034595
  75.5936575  27.8386641  32.5955439  76.3646221  28.1727242  32.1370149
  75.8892965  27.0218086  32.9975080 107.1829033  35.3907633  14.0830493
 107.0234680  36.3075185  14.3074894 108.0521107  35.2048922  14.4382453
  94.7764778  30.6333017  41.0191011  94.9276733  30.7395649  40.0799131
  93.8273430  30.5390930  41.0997438  17.7765775  62.3340034  54.7657490
  17.7872407  63.2720280  54.5754051  16.9383633  62.1881199  55.2043200
 113.6516571  33.2602859   1.6258858 113.8825798  32.4625921   2.1018994
 114.4382954  33.8036060   1.6731320  87.9528809  24.6402287  26.8377090
  87.1458721  24.8833704  27.2914100  87.6648331  24.0672660  26.1270928
 104.0512753  11.3058901  50.1407671 104.6441841  10.6673646  49.7445726
 103.9203739  10.9888959  51.0344172 108.1624508  50.3925514  54.6942949
 108.3444309  49.6336031  54.1401148 107.2299576  50.5655575  54.5648479
  81.7487335  40.7583141   8.8189369  81.2147713  41.4044046   9.2812014
  81.4102936  39.9128580   9.1137177  21.8237185  69.0727520  92.2008801
  21.3185143  69.8218155  91.8848038  21.8110061  68.4510565  91.4731598
   1.4771929  20.5947137  38.4723830   2.4009156  20.7006359  38.6998677
   1.2144291  19.7843671  38.9088750  94.0657139   2.7990970  26.2502074
  93.7578011   2.0226079  25.7827806  94.2883396   3.4223533  25.5586743
  59.1720581 106.4903164  35.7562923  59.5087671 106.1682129  36.5924191
  58.5920286 105.7942772  35.4475355 105.8571434  11.4961588  15.3952670
 106.5441895  10.9252965  15.0513101 105.5127335  11.9475710  14.6246529
  98.9859104  37.5541091  17.5865769  98.9226818  38.4161162  17.9978895
  98.5460281  37.6584601  16.7428708   6.3114148  85.2630806  82.1259594
   6.2812394  84.8600674  81.2582588   7.2391266  85.4482174  82.2719288
  75.4994631  44.4823694  27.4573040  75.9450293  44.0056610  28.1576228
  76.1829567  45.0255060  27.0647860  65.8202314   7.4707109  35.0727797
  65.9121561   8.4234458  35.0639606  64.9037838   7.3206460  35.3047991
  90.4449463  63.4120989   9.5835018  90.4081535  63.3976460  10.5398858
  91.1273003  62.7789545   9.3604636  60.7207251  32.5866342  82.6850796
  61.1824656  33.3127975  82.2658920  60.9947014  31.8126583  82.1930122
  73.6285305  88.1528950  10.2585256  74.3959332  88.4866524   9.7938401
  73.9406729  87.9866982  11.1480069  94.8841667  31.4236689  25.5845070
  94.7767067  30.9315586  26.3984561  94.3967628  30.9189892  24.9333739
  21.4669991  90.2849197  74.8127985  21.3285351  90.6693459  73.9471960
  21.4255214  89.3401527  74.6646976  77.1062851  31.7408848  11.7383683
  77.8611994  32.3144174  11.6064787  77.4791145  30.9299397  12.0842004
  16.2228501  71.4359188  85.4187679  16.9692039  71.0235119  85.8536339
  16.0430384  70.8726692  84.6660137  39.0417027  53.2136774   1.0873741
  38.2982492  53.2313967   0.4847195  38.6492658  53.0640745   1.9475162
 112.8087425  28.4468317  16.0358000 112.3076153  29.0638590  16.5690720
 113.4482765  28.0715513  16.6410995  95.0986862  13.8440776  14.6567261
  94.3413448  13.3838928  15.0185323  95.0941563  14.6947455  15.0955606
   0.1862012  34.5890021  10.3403640   0.5438481  34.6680593  11.2247121
  -0.6931724  34.9617624  10.4034317  99.4922733  28.3840156  25.0056148
 100.1641750  28.0053091  24.4387269  98.7666702  27.7609801  24.9662256
  98.9139175  24.9591708  11.0208642  99.4549179  25.5869341  11.4998841
  99.5081139  24.5727682  10.3775561  66.5094757  92.5908184  38.0883837
  65.6305313  92.4227905  38.4281802  66.7898035  93.3901882  38.5340929
 115.7356607  19.3366611  17.8245473 115.5457324  19.1878617  16.8982542
 116.4990712  19.9140978  17.8227603  76.9833994 109.2246151  61.3848400
  76.5838575 109.0692806  60.5289984  76.6094780 108.5485840  61.9499826
  97.2686386   6.4944130  46.7703056  97.1404839   7.4037921  47.0401907
  98.0928612   6.2360424  47.1827698   9.4431072  10.3346634  26.8778348
  10.2832818   9.8760784  26.8715429   8.8125610   9.6835935  26.5700173
  66.7211771  31.0019326  27.8971505  66.8457985  31.9455266  27.9987884
  66.7663717  30.8547592  26.9524121  94.2836329   0.2839650  12.4853516
  93.4039161   0.3791321  12.8504097  94.5526835  -0.5997669  12.7360833
  68.4856176  96.9783401   8.9429998  69.1890335  96.7609501   9.5547056
  67.9306841  97.5919628   9.4244134 106.4747143  28.6894226  22.5686622
 106.7170906  29.1161728  23.3904696 107.1878052  28.0738306  22.3990417
 105.8767986  26.8892264  40.6833172 106.5486336  27.1849942  40.0689888
 106.2960815  26.1830878  41.1750555  95.7622623  29.8582101  65.3811502
  95.9288597  30.6963468  64.9498701  95.1638508  29.3999910  64.7910881
  41.5049887  39.2286420  28.6527705  42.3738480  39.6239376  28.5816097
  40.9596682  39.9161220  29.0351653 100.6140518  12.6527035  41.6670370
 100.4321003  12.7738750  42.5989389 100.5622196  13.5336888  41.2963486
  73.7025642  26.6412044   5.1665926  74.0002537  26.2286925   4.3557602
  73.9546299  27.5600076   5.0744396  99.1389751  33.8205647  36.5380812
  99.3166065  34.6444678  36.9918060  98.4464359  33.4075594  37.0538783
   9.2877829  43.7875605  33.3294177   8.3932132  44.1233730  33.2727981
   9.1931146  42.8386736  33.2464004  89.6710110  37.2642183   4.4490331
  90.0635910  36.8525863   3.6791813  90.3686714  37.8110766   4.8102015
   1.2773597  50.5099344  26.3867640   1.2368526  49.5650721  26.5345168
   2.2039323  50.6875658  26.2250805 100.4529667  17.2331667  25.2935743
 101.3135719  16.8665242  25.0906920 100.3560162  17.9668272  24.6864724
  80.6487179   6.6829497  10.9327376  79.8863935   6.9216281  10.4053557
  80.8682537   7.4820554  11.4117610   9.1945726  24.2281842   9.5177156
   9.1171086  25.0003362   8.9573473   9.8769206  23.6995077   9.1040319
  37.4198151  56.3103008  81.2846661  37.8831172  56.3846827  82.1189690
  37.5017667  55.3867817  81.0466957  98.1278419  42.3866510   2.2228077
  98.3163071  41.8707609   3.0067557  97.5815868  41.8137264   1.6846687
  29.0691900 107.8309250  23.7399840  29.2537546 108.3374119  24.5309544
  28.6587143 108.4578800  23.1444478  70.3440475  25.5970216   7.1579671
  70.4447937  26.5205216   6.9272512  69.4499874  25.5300617   7.4932343
  85.8609962  29.5273280  13.9576483  85.5712128  28.8731480  13.3217955
  86.5201092  29.0744925  14.4837070  74.6492577  11.8787599   1.5856256
  73.8800383  11.9953978   2.1432367  75.0314045  11.0502172   1.8749554
  78.8139963  23.8606119  16.7772150  78.2905674  23.0778909  16.6051662
  79.3710279  23.9509583  16.0040486  98.5651112  98.8244247  34.9399185
  97.7824593  98.6147881  35.4495573  99.2528725  98.2792473  35.3220105
  84.2606831  29.5304155  51.9835901  83.3801842  29.3737626  51.6424036
  84.5438004  28.6786103  52.3160124 111.4692974  83.0402660  87.9073334
 111.4969349  82.0871449  87.8235149 112.1605682  83.2454872  88.5368252
  87.9707050  12.5227368  23.7419224  88.1164646  11.5965748  23.9348149
  88.7758064  12.8068495  23.3091187  68.8019896  99.7719765  27.8377628
  68.8066626 100.2356720  28.6751366  69.5079184 100.1783371  27.3350120
  52.2903156  85.0004005  81.2964916  51.5440083  84.5316505  80.9229469
  53.0012131  84.8551559  80.6721878  79.8525858  28.8008094  14.9244285
  80.3916168  29.5387459  15.2092433  79.6747875  28.3102751  15.7269228
   9.3655252  84.9523830  82.4667835   9.3702662  84.4594383  83.2872868
  10.0880218  84.5813370  81.9602776  74.5275593  25.5367684  43.2406759
  75.1165247  25.5375957  42.4861240  74.7704840  24.7528243  43.7332678
 114.0408707  11.8562937  40.0543928 113.9865112  12.7360082  39.6810579
 114.7842503  11.8969452  40.6560326   0.3609238  49.3204069  20.6393504
  -0.5793609  49.4894457  20.5799365   0.7554970  50.1884556  20.7232380
  10.4204011  32.7818823  11.7413378  10.1772356  32.8021097  10.8157599
  10.3646338  31.8574977  11.9834805 108.9099979   3.9528391  37.9318404
 108.3458805   4.6228528  38.3179569 109.7158718   4.4182602  37.7078438
  99.7662830  20.2813292  55.8606434  99.3163490  21.1199331  55.9632874
 100.6545448  20.4457808  56.1771441  68.4950113  17.6817489  23.6004901
  68.8024807  16.8057919  23.8337207  69.1736650  18.2698929  23.9317775
   9.3161587  41.2011647   0.3118385   9.6512656  40.3150677   0.4488433
   8.5335736  41.2488389   0.8609546 103.5985756  87.6499367  90.8875942
 104.3321609  87.9162979  91.4417934 103.6647511  86.6959858  90.8448219
  15.2723861  34.3825793  39.2180991  14.7778130  35.1431537  39.5233154
  14.9068427  33.6465168  39.7088361  14.6853566  24.5194221  24.6017838
  14.5085752  24.1280961  23.7463045  14.6679270  25.4629874  24.4417572
  19.9608648  93.1505108  82.1708679  20.2496219  93.7472916  82.8612995
  20.6117105  93.2544899  81.4767265  65.8640480  32.7661967  35.5998325
  66.4306355  32.2634006  35.0146794  66.4613533  33.3475471  36.0704613
 106.6996574  18.6821663  26.8834090 106.0455036  19.0055478  27.5028729
 107.5393295  18.9281046  27.2716165   1.0441720  24.2584634   2.5145531
   1.4530632  23.4072542   2.3580813   0.3432517  24.3105483   1.8647611
  44.4595003  37.0162511  10.7645977  44.5079708  37.3807406   9.8808384
  45.2846336  37.2740626  11.1755979  91.2915039  48.8749599   5.2188361
  92.0849228  48.5597086   4.7860050  91.5949631  49.5789194   5.7920587
 114.4608593  56.7540789  28.4575891 114.5449924  55.9067678  28.8948750
 113.9033127  56.5781450  27.6996803  45.5669403  20.1361465   5.3050971
  44.9320126  20.6199741   5.8333105  45.1209974  19.9873936   4.4712859
  92.9422951  24.6048713  42.0660162  93.0321884  25.3973341  42.5953102
  92.3418331  24.8531461  41.3631344 112.7330780  17.5055838   7.7673596
 113.5156536  17.7161193   7.2579783 112.1271992  17.1271861   7.1302080
  77.0363331  37.0805526   0.3139505  77.3460150  36.2139964   0.0504975
  76.8973541  37.0083618   1.2582520  98.8111973  12.6836479  27.5784445
  99.2357445  11.8806672  27.2764206  99.4965649  13.3500445  27.5291848
  86.7821026  25.4994416   6.0005224  85.9095287  25.6882262   5.6552428
  87.3522758  26.1384606   5.5729896  61.2119341  85.8168888  24.0415072
  62.1624613  85.7560158  24.1364956  60.9042072  86.1141491  24.8977637
  12.3009026  67.5308800  90.9761524  12.5531530  68.2711744  90.4242802
  13.1082380  67.2812605  91.4257431  89.2681503  36.7414403  13.1406760
  88.8045692  37.5628734  13.3037186  89.2936230  36.3074565  13.9934587
   5.9409225 103.7857914  72.7118635   5.1926953 104.1794014  72.2630215
   6.3977504 104.5264244  73.1106091  97.5191975   2.6187319  12.3494196
  97.4258423   1.6862580  12.1544600  96.6892433   2.8619224  12.7596223
  79.5142651  42.0380640  21.8306065  79.1502619  42.2078085  20.9617448
  79.0321922  41.2741184  22.1471858  54.9859715 103.7943649  24.8202634
  55.6995392 104.3697929  24.5447063  54.3904734 104.3663025  25.3045154
 112.5274086  18.9304292  23.8960695 113.4365177  18.6341727  23.8513851
 112.4931908  19.4813251  24.6781015  86.6291714  29.8903680  18.9761412
  86.4412880  29.1267705  18.4303844  87.5848579  29.9283290  19.0141022
  98.1240749  24.8701906  30.7929587  98.8302326  25.4015446  30.4252195
  97.5199318  24.7362161  30.0626874  71.1703730  35.4202700  20.9784460
  72.0649672  35.5782986  20.6768537  70.9498978  36.1974621  21.4918637
  80.8504772  84.3810654  81.7837715  81.0233116  84.5915890  82.7013969
  81.6845798  84.0473747  81.4533806  55.9556866  15.8902371  15.2026439
  55.2517605  16.4246011  14.8349786  56.6671419  16.5097976  15.3645277
 101.8539906  58.8430929  18.5785198 102.6150036  59.1879797  18.1114602
 101.8191242  57.9192686  18.3303988  13.8723779  39.8221111  27.7647018
  14.0634882  40.4541826  28.4576631  14.5235896  39.1309166  27.8847218
  97.1518612  26.6414237  20.0143671  96.8001461  26.6766858  19.1248250
  98.0906105  26.4972544  19.8952079  81.2225819  10.0929344  28.9361763
  81.6022205  10.0437188  29.8134923  80.4544353   9.5231628  28.9752936
  91.6987133  29.1319752  44.1079092  91.4187622  29.8251891  44.7056723
  91.1765575  28.3711052  44.3622065  60.1126623  17.9603672  32.1806622
  59.7426414  18.3774257  31.4025998  61.0574055  17.9616797  32.0267367
 112.3610306   1.1843533  66.1340570 112.9529572   1.0818250  65.3888464
 112.4142551   0.3492816  66.5988731  98.4452057  76.3746643  83.0577374
  99.0429115  76.1805534  83.7797451  97.8712368  75.6101465  83.0098248
  63.3236742  14.5886981  24.1856861  64.0859222  14.0493643  23.9751482
  63.5719490  15.0525081  24.9853563  12.1214271  40.6192636  36.6629887
  12.6601791  41.3984728  36.5258336  12.5432765  40.1613426  37.3900247
  65.3056192  62.4616528   0.8184771  64.6604252  63.1674433   0.8611088
  65.3635788  62.1355629   1.7165512  14.3102586  78.2347012  93.1113911
  13.3830404  78.0400610  93.2478237  14.7512710  77.8384352  93.8628674
  45.3631067  96.8282127  29.8880506  46.2014198  97.2386837  29.6759725
  44.8596764  97.5197887  30.3176069   9.8420167  25.3945971  54.1613531
  10.2939165  26.2095308  54.3802166   9.7386926  24.9452829  55.0002050
  93.3177376  43.5571146  21.4497924  93.2876492  43.4667063  20.4973483
  94.1607094  43.9757347  21.6241384  99.4099236  29.2885804  27.6756620
 100.1731110  29.7723269  27.9915237  99.5825005  29.1504860  26.7443323
  71.1638308  96.4061832  64.6560955  70.2632952  96.1023045  64.7697639
  71.0763073  97.3246384  64.4011116 115.6246948  28.8532901   2.2079264
 114.9989128  28.5379982   1.5558377 115.8372307  28.0794573   2.7296963
 100.6751060  28.2810402  12.8069866 100.8780575  27.4943447  12.3008716
 101.5193272  28.5644269  13.1580138  90.6022930  69.7230196  43.5361576
  90.4708099  70.5000162  42.9928112  91.4955139  69.4411373  43.3388519
 104.3291187  40.1193619  38.4244704 103.6931038  40.6695223  38.8816786
 104.7693825  40.7152653  37.8184175   1.6008474  59.2492867   2.3448969
   1.1385572  59.7640705   1.6834483   0.9225872  58.7001753   2.7381861
 104.2363071  88.6280918   9.7311646 104.2378902  89.0774345  10.5763412
 103.9437199  89.2924404   9.1072541  73.7870407  72.3861504  46.3443089
  73.2341862  71.7659903  46.8196869  73.8966513  71.9940567  45.4780054
 100.2103519  50.1366329  19.6373963  99.5906925  49.4080687  19.6754062
 100.3506088  50.3797626  20.5525184 114.2084026  46.8378925  15.7339144
 114.8842239  46.6238356  16.3770974 114.1830444  46.0787296  15.1514542
 115.7176304  40.9247303  15.0386941 115.5812263  41.8508434  15.2385581
 115.8787346  40.9044886  14.0953660  14.1172719  55.7241583  79.6416330
  14.1234016  56.3177395  80.3925419  13.2056546  55.4420662  79.5667553
   1.6569276  22.5535393   7.4035197   1.1631253  21.9536066   6.8445295
   1.0161396  22.8696275   8.0404735  42.6463556  92.7512360  89.8725128
  42.3685074  93.6667156  89.8421764  41.8298817  92.2522068  89.8485374
   9.2275023  44.1338682  27.1167397   8.5038197  43.5113144  27.1870303
   8.9721078  44.7184324  26.4030933 111.0880089  18.0604553  51.7618895
 110.4963779  17.8132677  52.4725914 111.4924717  17.2367704  51.4895248
  99.3366528  65.1259232  45.9574080  98.5434246  65.5784369  46.2442160
  99.9612427  65.8284712  45.7770157  95.3530693  42.0496416  34.8615479
  95.6516075  42.3543024  35.7184553  94.4558525  42.3755455  34.7907162
 114.2990208  49.2613697  41.7979002 115.2497959  49.2662907  41.6873169
 114.0112305  50.0986147  41.4339924  87.2288895  14.2634451  45.5707216
  86.8492222  15.0356114  45.9900570  88.1662655  14.3282568  45.7533550
   2.9943267  35.5367398  28.6710286   3.4431177  35.6203580  27.8297043
   2.9616845  34.5938063  28.8323998  91.4580154  85.5063915  38.1670523
  92.1398830  85.4537773  37.4973416  91.0050869  84.6647835  38.1143498
 101.1042595  61.1848593  20.0241542 101.3732910  60.4842138  19.4300580
 101.2442112  60.8236170  20.8994555 116.2411629  29.9594522  21.9734716
 116.8549638  29.4128513  22.4640918 115.5368629  29.3620849  21.7217875
   3.4924981  42.0367336  27.8446913   2.8932846  42.7205944  28.1438780
   2.9514015  41.2486506  27.7960467 102.3015690  35.0788856  32.1918583
 101.6177654  35.6801915  32.4869537 101.8308258  34.2818046  31.9483447
  13.7769842  29.3249011  45.5680227  13.0281627  29.4393563  44.9828768
  14.5224631  29.6632099  45.0719976 115.6962013  97.0620632  84.3298244
 116.2847042  96.3874817  84.6686840 115.7369518  96.9598293  83.3789730
  16.9081795  49.9310112  24.0730882  16.0153508  49.6111822  24.2026877
  17.0143425  49.9662638  23.1224465   3.0099720  48.9395285  22.1545029
   3.8026240  49.2359924  21.7072415   2.3871435  49.6571398  22.0389557
   5.7947183  35.6555367   2.1702975   4.9401751  35.7146955   1.7431115
   5.6007445  35.7270622   3.1049043  21.3692760  15.9373188   5.1329213
  21.2195802  16.1806190   6.0465008  20.5529761  16.1645973   4.6876895
   1.3116680  42.5993967  22.2013640   1.7117693  42.5776815  21.3320637
   1.8081151  41.9579506  22.7096105  47.5492954   5.2038932  91.0683346
  47.2073364   4.5783961  91.7071152  46.8082237   5.7780254  90.8749008
 101.9663620  47.9779911  32.8202581 101.9746208  48.9339447  32.8684378
 102.5337791  47.6970863  33.5381460  74.7293139   6.1411107  25.2869868
  74.9026871   5.6474245  24.4854593  74.5225668   5.4725593  25.9400773
  11.9938660  46.9916105  16.8134809  12.7662134  47.4455881  17.1505511
  12.1536338  46.9131041  15.8729804  81.2983227  28.8385296  22.2394633
  82.1062851  29.2569232  22.5367475  81.1760521  29.1611171  21.3465929
  11.2023830  26.4251947  45.2231741  10.3030288  26.1459064  45.3946161
  11.2292218  26.5800428  44.2789650  14.6705151  30.9005332  27.9315972
  15.4484379  30.3667355  28.0932355  14.8241484  31.2937880  27.0725393
  80.2854061  17.0668066  11.4891946  81.0325909  17.6065123  11.7473829
  79.6258259  17.2329867  12.1626675 108.9318752  13.2736611  42.4036837
 108.2425499  13.3551109  41.7445707 108.8728237  12.3657513  42.7010775
 100.9105968  18.4685957  12.0619476 101.6620064  18.7133622  12.6020467
 101.2920570  18.2164967  11.2210155  75.1072073  45.3399134  60.3097439
  74.5267487  45.7990026  59.7026730  74.5371532  44.7182941  60.7623625
  87.0816994   8.2148558  21.8357563  87.9038906   8.1473261  21.3502932
  86.4111900   7.9390877  21.2107778   4.8077971 107.4348831  72.7177191
   4.3356735 107.2053909  71.9173050   4.1304940 107.7615452  73.3099937
  98.7202835  53.8139534  17.1183205  99.2310333  54.5849752  16.8715537
  99.0479469  53.5772514  17.9859853  33.4860516  94.9936199  83.9214802
  33.9476037  95.7749176  84.2260742  32.7487373  95.3334427  83.4144115
   7.7522629  60.8075333  52.0287991   7.6664323  60.4979181  52.9304647
   6.8526292  60.9682465  51.7440844  52.4899578  92.3558807  85.7207012
  52.4933815  92.5422382  86.6595840  52.4033308  93.2144260  85.3064251
  17.6591849  89.9116230  23.4681916  18.3940172  90.5145264  23.5811925
  17.3900509  89.6922016  24.3601847  98.4949493 104.0085506  35.0653315
  98.2205677 104.1712475  34.1628480  98.1042862 103.1629372  35.2856922
 108.7636662  13.1869400  13.8252771 108.8165760  12.5271237  13.1338465
 108.8110542  12.6853371  14.6391451 103.0038071  22.1012402  22.7048874
 102.2681808  21.9170332  22.1208048 103.5574245  21.3226318  22.6456976
   5.7005894   1.5374789  73.0525351   5.4228681   1.7303732  73.9480162
   6.4938945   1.0118903  73.1557608  85.1884747  35.4022908  19.3898487
  85.1418209  35.3667855  20.3452516  85.4064465  34.5079827  19.1272962
  20.9796786  49.8560619  47.2877979  20.3848648  49.4345903  47.9081106
  21.8474174  49.7486877  47.6773214  85.7343197   2.3706117  62.9190636
  85.9059143   3.1473917  62.3867130  86.5307426   2.2546536  63.4372330
  46.9901466  85.7336712  86.6505337  46.0472059  85.7899857  86.4958858
  47.3304844  85.2662945  85.8876705  98.2078648  34.1947246  15.7010198
  98.1641865  33.2465672  15.5772364  98.1851482  34.3136072  16.6505373
  26.1635518  29.8168921  30.4896545  26.4590621  30.3650498  31.2165856
  26.5828586  30.1966023  29.7174907 114.2376614  50.2478123  65.0294304
 113.3274460  50.0271177  64.8318577 114.3800640  49.9083185  65.9130001
 111.9146252  83.6129284  20.5128479 111.1073780  83.1984520  20.8174920
 111.6918373  84.5402908  20.4316592  92.8690052  83.7175083  25.6840062
  92.8541374  84.4114113  26.3431764  92.3943424  84.0851307  24.9384999
  71.3083744  20.4332471  14.8306990  72.2571898  20.4866362  14.7161126
  71.0464764  21.3205624  15.0762904 108.1286812  45.1492691  20.7909012
 107.5220490  45.5066061  21.4393926 108.8727856  44.8368263  21.3056087
  57.5588226  35.6273198   1.1160657  57.4289894  35.1102638   1.9110674
  58.4379339  35.3928185   0.8187424  91.7453861  20.9602284  20.5339456
  92.6309490  20.7229161  20.2587938  91.8710423  21.4597273  21.3407564
  99.5122337  30.7976437  13.0537677  99.9056816  30.0154018  12.6670825
 100.1414776  31.0788846  13.7179852 108.9334869  61.5747738  20.6387210
 109.3070221  61.6695786  19.7625315 108.5590553  62.4338579  20.8337045
  70.6308508  49.4332886  16.1435795  70.0912046  48.6541319  16.0096991
  70.8534622  49.4134235  17.0743215  61.6045713  47.8797960  11.3436592
  62.2351789  47.8362656  10.6248629  61.5815115  46.9901991  11.6962540
 102.0670319  26.6438532   7.2517037 101.9066525  25.8264136   7.7231950
 101.7442322  26.4768815   6.3661784   4.3420163  90.0663757  77.7354956
   3.7157306  89.7986221  78.4080362   5.1869965  90.0755215  78.1851101
 104.4585228  62.9127884  34.0572858 104.8097229  63.0683041  34.9340439
 103.5384369  62.6929188  34.2033553  82.8779793  57.5162125  28.6776447
  82.2204971  58.0829954  28.2742786  83.4506798  57.2612619  27.9542851
  92.9304981  47.0622683  27.9515052  93.8289547  47.2840023  27.7068949
  93.0201435  46.5552902  28.7584567  84.7339439  19.8970008  56.8372059
  85.2771473  19.8031092  56.0546827  83.8369370  19.9242127  56.5042353
  91.8474865  21.9315505  15.4462290  92.4217033  21.6976547  16.1754763
  91.7897701  21.1332440  14.9212480 105.0322151  66.6808653  20.0421643
 104.1547394  66.9558430  20.3079581 105.3084564  67.3420477  19.4075286
   3.4051773  59.7433090  22.7458429   4.3266922  59.8626804  22.9756117
   3.1411013  60.5834103  22.3707104  94.9604797  32.2869039  43.9390612
  94.0137672  32.4014306  44.0218115  95.3264713  33.1389046  44.1765022
 105.9328938  14.1497111   3.5316700 105.9900856  13.1983292   3.4431666
 106.1160088  14.3156719   4.4564176  88.7263966  54.2868662  24.5650291
  88.5933304  53.3427763  24.4800782  88.0039024  54.5816469  25.1194191
 110.9996891  24.4433737  25.9369326 110.7689571  25.2191114  26.4480305
 110.1595879  24.0932751  25.6404686  96.2742233  50.9771681  41.2596464
  96.7191219  50.8312845  42.0945215  96.9814205  51.1519194  40.6387091
 105.4373169 103.9888668  68.6738253 104.8264599 104.7257996  68.6766052
 106.0350132 104.1759300  67.9499483  77.2271585  95.4262543  26.5938759
  76.4727736  94.9469471  26.2512231  77.9861450  94.9671078  26.2342119
 102.8742027  16.7049396  24.4522858 102.7445602  15.8320057  24.0815926
 103.7636566  16.6855097  24.8054385  68.3455420   6.3196975  32.1438766
  68.1725693   6.5137279  31.2226462  68.2189560   7.1556818  32.5925827
  45.6490040  89.3388367  68.9225864  46.5270042  89.0203190  68.7130737
  45.0839424  88.5742950  68.8111782   3.1602570  40.2600718  34.2049003
   3.8552618  40.8613110  33.9371061   3.5319167  39.7782326  34.9437714
  94.5528030  20.0146842  38.7904429  94.3562984  20.8893490  38.4549165
  94.4742870  20.0994372  39.7406459  95.2253342  59.0689135  10.2973580
  94.4303322  58.9230156  10.8101118  95.1887989  58.4083080   9.6056259
  13.3249319  80.6703091  91.7714310  13.8027620  79.8895264  92.0512390
  13.8894844  81.4004230  92.0252895 103.9234829  53.3893061  12.6934195
 104.2281151  52.6246166  12.2048724 103.9526939  54.1058207  12.0593929
  18.5652399  79.7364616   6.5849471  18.4679627  80.3484249   5.8553767
  17.6678205  79.5373011   6.8517900 109.3807411  30.8524036  12.4911010
 109.5611000  29.9939680  12.1079743 108.4550190  30.8174348  12.7320516
 102.1980381  24.7183442   9.2446178 101.9934082  25.0813794  10.1063406
 101.3502789  24.4499707   8.8903254  16.8445015  49.5661879  42.2274256
  17.5942874  49.0436268  42.5120020  16.1275542  49.2860794  42.7964211
 111.1603165  30.0835848   4.8214465 110.4766369  29.4626832   4.5698667
 111.2631416  30.6495929   4.0564001 115.0674725  56.4671421   9.0632141
 114.7465134  55.8163548   9.6874642 114.7535038  57.3036528   9.4065982
  16.5438783  58.7047863  20.9169412  17.0743442  57.9086065  20.8863330
  15.6738913  58.4240055  20.6331873  16.0094333  29.0564251  52.0175457
  16.0890770  28.2971931  51.4400864  16.2710977  28.7307954  52.8787804
  18.4526289  43.6607265  38.3110499  17.5113773  43.6967659  38.1408191
  18.6182356  44.3982792  38.8982654  84.4773769  37.8794813  15.7148302
  83.9546967  37.1186471  15.9681439  85.3570366  37.6839805  16.0376477
   8.2887447  87.7844334  93.0260277   8.1119782  88.1958389  92.1800137
   8.3612984  86.8507862  92.8278446   4.8073354  46.0900545  37.7159476
   4.9176934  45.4616070  37.0024300   3.8638180  46.1071014  37.8763103
   8.4528536  47.6166296  23.2200646   8.7947965  48.4346676  23.5807800
   7.9251838  47.8881216  22.4690056 105.0327396  15.4901361  25.8367848
 104.7669315  16.1618352  26.4647937 104.7537136  14.6657896  26.2353206
  93.2377434  33.8972402  26.0373044  93.6330795  33.2259440  25.4811573
  93.5194111  33.6704087  26.9235563   6.2042117  79.0656281  42.1566439
   6.2636870  78.1855583  42.5283623   6.8596715  79.5727444  42.6356459
  98.8837147  58.2887888  22.9804778  98.9733219  57.9033709  22.1088958
  99.1005707  57.5757456  23.5811234   6.0167396  50.3986931  24.2069125
   5.2794087  50.0828648  24.7292399   6.6492796  50.7148123  24.8520446
 108.2260227  43.7460661   8.0935490 108.1587219  44.7005320   8.0671507
 108.3299828  43.4878683   7.1777111 115.3625774  90.4008865  61.5429306
 114.4610977  90.1511097  61.3400126 115.2822304  91.0175705  62.2705793
  77.1227741  41.0950565  16.3127732  76.5050650  41.7449570  15.9776688
  77.9671907  41.5458155  16.3145852 110.2688503  38.7668896  13.6191952
 109.4415188  38.3293056  13.4185207 110.6562710  38.2383537  14.3168962
 112.7898979  69.6074200  46.8189383 113.6684036  69.4244576  47.1520805
 112.4055672  70.1967764  47.4679232  83.4520912  38.4668756   3.0035979
  82.8932190  37.7038646   3.1509387  83.9781570  38.5358739   3.8002986
  60.9242201 101.6446686   3.4793273  59.9875975 101.8206310   3.3898517
  61.2645864 102.3984814   3.9611501 100.3925514 107.9842758  18.4344363
  99.8872566 108.7702274  18.6422372  99.9909210 107.6459599  17.6341426
 111.9513321  55.6243753   1.2056966 111.0722828  55.4481888   0.8703342
 112.0295525  56.5781116   1.1832312  85.6215763  56.8384552  43.4933329
  85.7187080  57.1072054  42.5797844  85.5444145  57.6603413  43.9778709
  76.0513306  39.9256802  39.5881987  76.5041161  39.0855980  39.5141745
  75.2721977  39.7326970  40.1096773  10.4465568 108.0114937  85.6933689
  10.0240338 107.3091316  86.1877346  10.7805192 107.5824928  84.9055576
 105.3323174   6.7640519  26.9507432 105.7275200   7.6329738  27.0215964
 105.4228115   6.3876623  27.8261685  88.4194851  14.8918927  10.1560509
  87.6957226  14.5342612  10.6703472  88.9306355  14.1253281   9.8965520
  99.1351509  48.3139515  29.0695381  99.9343681  48.6032963  29.5097089
  99.0325928  47.4001932  29.3355560  63.6770201  76.3275194  88.2003307
  64.2684841  75.8485842  87.6198006  64.1440058  77.1383476  88.4020996
  60.7830429  36.7359805  34.5775247  59.9886370  37.1848369  34.2882514
  60.5709553  36.4146280  35.4538703  89.8790741  30.4374576  33.3541989
  89.5981598  29.5259070  33.4341502  89.0742588  30.9205461  33.1667757
   5.9120762  28.6789012  34.8860788   6.3089412  29.4141150  35.3531909
   6.4644814  27.9288864  35.1064348  22.1481997  66.1127532  94.5168446
  22.9003149  65.5210030  94.5364211  21.6162306  65.7998407  93.7851851
  67.1527863  37.8557587  20.2489400  67.0933676  36.9038177  20.1682377
  66.5546083  38.0733228  20.9638381  97.4302769  32.6038647   8.2771105
  97.2562504  33.5197616   8.4940863  97.6733112  32.2021222   9.1112405
 109.8121929  39.4667745  19.3808985 109.3008137  39.8301768  18.6579466
 110.6738853  39.2939520  19.0016246  44.7185564  99.6347427  73.3628702
  43.8971853  99.2112446  73.6123419  45.0935888  99.9361706  74.1903496
  55.3112888   9.8004818  89.0770817  54.5089149  10.2322280  88.7837887
  55.9505892  10.5088770  89.1526031  77.5353527  67.8860617   1.2634400
  77.6671171  68.6927223   0.7652784  78.3628130  67.7521038   1.7256024
  93.2806969   1.6736105  74.7596884  93.2912827   2.4221881  75.3561401
  92.9503822   0.9489314  75.2906895  80.8397198  60.8265114  34.2302990
  79.9458981  60.5531311  34.0239596  81.0709000  61.4374065  33.5305834
 104.4779491  47.0543957  21.9839478 104.5347500  46.4673996  21.2300014
 103.5512161  47.0476818  22.2234416   7.1496230  75.8214855  24.8759031
   6.6552919  75.2572393  24.2813468   6.9291008  75.4998684  25.7500672
 115.4854202  57.9180956  56.5937471 115.9557915  57.1866894  56.9937801
 115.4185772  58.5701036  57.2913456  91.8657303  38.8315845   5.1455945
  92.2149086  38.9083052   6.0335237  91.5002823  39.6958184   4.9564338
  63.0376244 105.5988884  67.4359417  63.7566233 105.1294804  67.8589535
  63.4472895 106.0490417  66.6971827   9.0063906  87.7084255  80.9344387
   8.3447462  87.1033955  81.2697029   9.6709496  87.7418995  81.6225338
  78.4710073   1.5699655  83.5599613  79.0820551   2.2867575  83.7304497
  78.9742327   0.9453925  83.0375576  97.9851627  86.7438984  26.0420942
  98.0573177  87.0655251  26.9407511  97.2039986  86.1907387  26.0476732
  17.9998732  49.9258804   7.2969556  18.3138669  50.7883453   7.0253092
  17.8669465  49.4502020   6.4770210  97.1013641  88.4102058  28.5935926
  97.0718670  89.1712856  28.0138373  96.1876488  88.1376839  28.6777687
 103.9824009  21.7467451   5.7771033 104.5727444  21.1448860   5.3237933
 104.5626354  22.3892498   6.1854440   2.7657515  70.3623104  35.5691957
   2.3682107  70.9294462  34.9084759   2.0615998  69.7689152  35.8305073
 115.9669971  50.0752115  48.8648796 115.7284355  50.7615519  48.2417774
 115.4928112  50.3024864  49.6647072 113.3184814  23.5342431   6.4228392
 113.4551525  24.2419958   5.7930446 113.0956650  23.9803815   7.2398746
 101.1841679  41.7611790  21.3905787 100.6894302  42.5051594  21.0471272
 102.0662403  41.8764353  21.0371661   1.6621357  50.5639791  32.4148798
   1.5164863  51.0706520  33.2138181   2.5256604  50.1690865  32.5357795
  11.5487611  79.5159388  21.3761282  11.8879628  78.6896276  21.7202020
  11.3405800  79.3269396  20.4611588   3.6334085  95.1446438  94.4910717
   4.4341084  95.3831100  94.0239143   3.7761745  94.2383099  94.7638798
  25.3852701  46.0609055  13.7614262  24.5279717  45.6352520  13.7520432
  25.4502678  46.4493704  14.6338379 110.4373360  50.5179977  16.8687940
 110.8342648  49.7283030  17.2362971 111.0398674  51.2223482  17.1077096
 106.3825417  23.5107708   5.6260914 107.1846867  23.9914155   5.8304977
 106.3017654  23.5733438   4.6743608  94.4770718  58.3442783  16.2476635
  94.4670486  58.7351465  17.1213651  93.5536289  58.2765198  16.0049832
  29.0457201  31.9551325  89.2704391  28.7325215  31.9802403  88.3662796
  29.6664357  32.6814222  89.3291569   9.4486874  56.8744230  24.3764853
  10.2149177  56.3008785  24.3893647   9.1992122  56.9615221  25.2964878
  67.7070999  84.0374184  94.4174576  68.0527306  83.5700989  95.1779747
  68.4795332  84.2410946  93.8901138  99.6917343  30.0721431  38.7021232
  99.2485809  30.5719447  39.3877244  99.3080616  30.3928614  37.8859329
  20.2738261  93.1062889  87.4685192  21.1114693  93.3384037  87.0676422
  19.6438074  93.7084484  87.0726585  72.3624325  18.0128622  92.7220726
  72.2476196  18.4059989  93.5872269  71.5961027  18.2993650  92.2251892
   8.5837352  37.7104521   8.7879324   8.2381320  37.8886366   7.9132670
   7.8239679  37.7847862   9.3653929   3.3426055  59.9438190   4.2516124
   2.6450279  59.8741579   4.9033523   2.9977062  59.4906473   3.4822527
  91.1957455  62.6740551   1.1006347  91.9454670  62.7408361   0.5092881
  91.4014435  63.2747316   1.8169501  39.6774721  19.1100907  88.5637474
  39.0278387  19.8074818  88.4751320  40.2736235  19.2430246  87.8267574
  69.5368528  71.4628029  42.2852325  70.0278330  70.7004881  42.5919104
  69.9276018  72.2024107  42.7505589  11.8791509  88.4571838  71.9112492
  12.4372208  88.3265400  72.6778746  12.1706963  89.2908001  71.5420294
  23.1533718  98.4722042  92.7051544  22.9250765  98.3989525  93.6318493
  24.0896010  98.2755756  92.6728630   8.8773370  27.4317503  25.5140066
   9.4645649  26.9015336  26.0527706   9.2388415  27.3663735  24.6301103
  36.5350723  53.8238430  31.3034439  35.9319711  53.1276655  31.5639067
  36.2803340  54.0380621  30.4059768 110.1869774  37.4490261  54.2520142
 110.0341702  38.0008674  55.0190544 111.0511684  37.0654368  54.4012594
 109.2593670  56.2044668  13.1400979 109.9361420  55.5283594  13.1072414
 108.7577534  56.0806084  12.3343217  88.6166668  52.8700733  29.2864561
  88.9235401  52.2332239  28.6410999  87.9881191  52.3852062  29.8213005
  11.4933479  54.5043373   2.8060013  12.0903027  55.2268744   2.6115364
  11.0871887  54.2961550   1.9646187 113.0858803  55.3818369  32.9954100
 113.7255383  55.9015322  32.5086093 112.3664570  55.2481604  32.3783255
  13.5518467  92.6005173  12.0874465  14.3152356  92.0618534  12.2955537
  12.9002047  92.3565865  12.7447820 101.2022305  65.4377937  14.4028842
 102.1522331  65.3217888  14.4190228 101.0778522  66.3730574  14.2415023
  27.6471114  48.5835266   6.0281199  27.8595376  48.4239531   5.1085317
  26.9645047  47.9438210   6.2307513 105.3567505  63.0146980   7.7821290
 104.5104694  62.7020121   7.4623364 105.9695530  62.8123522   7.0751917
 107.3795605  74.5601416   3.2347450 108.1040192  74.5215273   2.6103315
 106.9581699  73.7034416   3.1659856  89.9677849  63.3669233  12.4037981
  89.9256611  62.5964832  12.9702628  89.4521427  64.0300751  12.8626812
  95.0993538  50.1284695  47.4226904  94.9793911  50.7883930  48.1055832
  94.6836185  49.3413448  47.7745914  86.5041828  20.6113410  17.2668302
  87.3770714  20.5407810  16.8804216  86.6639519  20.8759928  18.1727350
 102.0632362  30.8067870  10.9983015 102.2256470  31.4649844  11.6740477
 102.5383091  30.0322294  11.2992978   0.3111276  54.1191006  12.3154533
   0.6727393  53.4102631  11.7834592  -0.1981594  53.6742592  12.9929328
 102.2176838  83.3359432  46.2684965 101.6612911  83.7373734  45.6010294
 101.9363403  83.7398720  47.0894241  -0.0237502  55.9826469  37.4579954
   0.7835255  56.0242891  36.9453645  -0.2216091  56.8953800  37.6677799
  94.2482948  14.0090621  91.1988640  94.5220757  13.3050978  91.7868328
  94.2440796  13.6074126  90.3300190  30.3404069  56.7863512  13.7420464
  29.8068547  56.8725729  14.5320594  29.7404933  56.9898748  13.0244708
 110.9002304  42.8584623   6.2705904 109.9895573  42.7493143   5.9967381
 111.1666298  43.6947155   5.8885688  85.8445930  28.5890985  29.4530916
  86.7958546  28.4951115  29.5032120  85.5701923  28.7339902  30.3585982
  91.5144348  53.4473991   4.6541363  91.3410091  54.2002535   4.0890154
  91.6525364  53.8263130   5.5222285  23.2206011  54.0654087  45.5893755
  22.6719522  53.5875463  44.9673939  23.0596972  53.6361790  46.4296770
 113.6298847  59.4517374   8.5920358 113.2437706  59.3034458   9.4552624
 113.7514114  60.3999615   8.5437018  85.7559395  81.3052845  54.5727205
  85.2760983  80.4911613  54.4204330  85.1505184  81.8495369  55.0762033
 110.4869556  58.6667156  39.3303514 110.2723694  58.1562328  40.1111126
 109.6379757  58.8825703  38.9445138  20.2912927  51.7478228   4.3167382
  20.3415513  51.2614298   3.4938607  21.1743283  52.0945120   4.4443560
  26.1041451  40.9374857   8.2319742  26.3235593  40.3000689   7.5524199
  26.4870858  40.5765438   9.0315437  71.1974335  21.5274000  37.0858598
  71.6149902  21.9352818  36.3272333  71.1028481  20.6068754  36.8410778
 111.5799904  68.7584352  19.1485500 112.4081993  69.2245722  19.2626512
 111.1318111  69.2340994  18.4491897   3.6349684  32.8472543  29.4097805
   4.5560035  32.8187251  29.6688390   3.4488535  31.9647098  29.0893054
  20.4915619  73.0837488  22.4342108  20.8217311  73.8846254  22.8414154
  19.6493948  72.9274368  22.8614759  76.4221382   3.6133519  76.1140919
  77.1034575   3.6070833  75.4417849  76.9018793   3.5773832  76.9416046
   9.2450625  94.8011875  72.6916218   8.3357173  94.9604034  72.4386835
   9.6872801  95.6351948  72.5331306 101.0447788  50.3297138  30.7540631
 101.0219288  50.8225250  29.9337912 100.7701874  50.9601259  31.4199543
  15.8569622  37.8010297  26.4866757  15.1375723  37.3332548  26.0625339
  16.6169882  37.2318196  26.3658857  71.9787598  27.1554375  93.7572575
  72.6524878  27.5064611  93.1749249  71.4639854  26.5696049  93.2022381
  12.7245450  76.7672491  28.5366058  12.8417194  76.4124823  29.4178796
  12.4215901  76.0226393  28.0169868   6.2191707  74.3419170  22.9982662
   6.3243669  73.4518433  22.6622152   6.2196469  74.8946095  22.2167516
  23.5688210  62.6952457  24.9884486  23.0096817  61.9198799  25.0374961
  23.0707574  63.3164883  24.4572091 108.4433270  50.8207083  21.4995575
 109.1519451  50.1895809  21.3740039 107.6450253  50.3225660  21.3240147
 116.0084915  59.0157652  35.3940654 115.2186298  59.4686890  35.0987458
 116.0413456  59.1812325  36.3362813  19.1499591  32.5081897   0.9244885
  18.5029829  33.2045913   0.8118963  18.6793077  31.8170595   1.3903846
   1.6955289  29.3637562  41.0416985   1.8731384  30.3007555  41.1236572
   0.8513655  29.3183613  40.5927467  13.7494600  50.1567459   9.8347956
  14.3546844  50.8975601   9.8683733  12.9750085  50.4584599  10.3095841
  96.0310459  51.6405153  24.1758490  95.9808159  52.4119997  24.7402239
  95.5304337  50.9703588  24.6411562  12.6732206  29.5671415  37.7237368
  13.2875502  29.7235584  38.4409308  12.0469654  28.9359403  38.0781722
  98.8277149   7.4096775  88.9420795  99.0779018   6.5372407  88.6379528
  98.2812405   7.7608371  88.2390308   5.5518639  65.4410028  22.1588016
   4.9570638  65.0743628  22.8130317   5.2590281  66.3456869  22.0491385
  63.0248642 105.4499149  21.2291956  63.0808163 104.7307587  20.5999804
  62.7759695 105.0292683  22.0521998   1.5456589  61.9221878  75.2682686
   0.8538161  61.2633181  75.3272104   1.0783160  62.7544451  75.1963663
  19.0670145  51.6232538  75.3727293  18.4562242  51.4605045  74.6539259
  19.5844769  50.8202982  75.4337788  75.2645493   8.8114595  28.0604839
  75.5603886   7.9011256  28.0587506  75.1798630   9.0340161  28.9875913
  58.7925386  95.2496433  31.9853306  59.0313864  94.7221470  32.7475190
  57.8385448  95.1861572  31.9395542  16.7663693  36.1710739  68.2160473
  17.0244217  35.6224632  67.4753237  15.8810663  36.4640713  68.0001307
  71.9823217   8.8524282   3.7596199  72.1747875   8.2591587   3.0335200
  72.1985483   9.7217637   3.4223729 115.5659103  75.5738544  92.9071999
 115.7784176  75.9921312  92.0728683 116.1049175  76.0345316  93.5502243
   3.3025986  79.8817730  64.0337992   3.0707198  80.5612850  64.6668291
   3.0405509  80.2435970  63.1872511  26.1509395  65.5155563  87.6394176
  26.8042898  64.8929739  87.3204327  25.3338504  65.0172710  87.6570892
  63.3371592   9.0595716   5.3504884  63.6396265   8.3435678   4.7918436
  62.5281191   8.7316567   5.7431167  10.2967381  73.7365913  77.5961113
   9.6652013  73.0632162  77.3432159  11.1484933  73.3062887  77.5213861
  88.3765125  29.4405055  12.3700249  87.4695587  29.4432664  12.6760530
  88.5296631  30.3353548  12.0666707  43.3599520 108.5316277  14.2843449
  44.1244698 107.9875469  14.0953529  43.7194920 109.4058132  14.4352198
  99.0661526   6.6843653  56.7832518  99.5313835   6.2867087  57.5192261
  99.0992260   7.6247251  56.9589233  92.7065754  37.4865150  15.7749903
  92.9779339  36.7560363  15.2191174  93.4882641  37.7044511  16.2826300
  40.1543474  44.6693373  37.7201080  40.6759024  44.3494654  36.9839740
  39.9337792  45.5702972  37.4837756  86.8865108  33.2179856  73.4604883
  86.8297768  33.8953805  74.1343927  87.7476406  33.3471322  73.0629778
  96.0140991   2.8418139  28.2220340  96.7175579   3.0675846  27.6134229
  95.2839565   2.5841764  27.6592302  92.1222019  20.7800961  94.5174217
  91.7392159  20.3483772  93.7537575  91.5616322  21.5411282  94.6685219
   0.8116898  76.1177349  82.8755665   0.1849227  75.4179287  82.6920986
   1.3007440  75.8075190  83.6376858  17.2876871  54.9429989  89.7365761
  16.5454936  55.4000950  89.3410397  17.8632116  55.6428766  90.0450802
  68.7196779  27.8549361   5.3068072  69.6533489  27.6850295   5.1818252
  68.5991335  27.8433967   6.2563163  95.3557205  72.9497576  80.2028465
  95.2029419  73.8193321  80.5726147  94.6520424  72.4095821  80.5624008
  66.9881010  85.4842758  80.0944805  67.1765089  84.9258614  80.8487415
  66.5525246  84.9042511  79.4699144 114.4682598  53.8457251  91.4061260
 113.5259151  53.8464928  91.5741253 114.8623753  54.0619230  92.2512054
  24.2567420  50.5670738  72.5168276  23.3334875  50.8186388  72.5403118
  24.6294975  50.9496117  73.3111525   6.1761045  53.3931160  76.9780922
   5.3417182  53.5116053  76.5242290   6.1495805  52.4907923  77.2964239
  65.3430271  30.2880716   5.5300373  66.0650349  30.7647610   5.1205248
  64.5557737  30.6503272   5.1235485  63.8092518 103.4613228  30.6421280
  63.3378315 103.1848526  29.8562813  63.3197689 104.2197132  30.9606910
  44.5934439 108.7695122   2.9444513  43.9104700 108.4639645   3.5414633
  44.3886423 109.6931362   2.7988490  40.8545213 101.7752777   0.1750148
  41.7355099 101.4758383   0.3995765  40.5084169 101.0920559  -0.3991353
  53.0016613 109.1074181  25.4851890  52.3130894 109.7303581  25.2527237
  53.8087368 109.6213436  25.4580164 103.3736420  61.6935730  78.0134249
 103.3206654  62.5429726  78.4515429 104.0156460  61.2003183  78.5240650
 111.5248966  15.8579111  69.2578983 111.6248894  16.7303586  68.8770199
 112.3925686  15.4614091  69.1793871  41.9540739 103.9640617  19.1864657
  42.0071983 103.3961010  19.9551177  41.5312910 104.7610474  19.5063198
 103.9117432  46.0220242  73.1030083 104.4215679  45.2248001  72.9589939
 104.1087818  46.2725687  74.0055799  94.1900444  86.9355392  57.7241230
  94.7111130  87.5040722  58.2911253  93.4071541  86.7373562  58.2379723
  58.7120295  97.2329426   4.5785332  57.9046965  97.3278618   5.0839359
  59.2791939  97.9341698   4.8992097  76.2832022   5.6917226   2.5040480
  76.8146229   6.2276125   1.9152793  76.7524624   4.8592710   2.5593001
 114.8171043  66.2170410  78.7004709 114.2951107  66.6213131  79.3935204
 115.0660896  65.3635263  79.0550756   9.0391171  61.7229557  60.6892776
   8.1608665  61.9417572  60.3777742   9.0482259  60.7665777  60.7278252
 101.6896629  11.3503420  14.5804358 101.5517712  12.2718155  14.3611121
 102.2803974  11.0279346  13.8997614 113.9295101  53.7927437  73.0504990
 114.3274403  52.9523373  73.2776451 113.3069038  53.5826206  72.3544836
  90.1074409   8.8200182   9.5666218  89.4965363   9.1948962  10.2010500
  90.2727413   9.5292115   8.9453721  27.0181799 102.2272205  21.6724491
  27.5423479 102.9586029  21.9988728  26.2400222 102.6390743  21.2968516
  79.4319391  59.6443987  23.7974048  79.9505806  59.5867586  24.5998526
  78.5509777  59.3796444  24.0620708  11.4626038  85.5698204  53.5807943
  11.0974038  86.1206532  52.8883743  12.2500110  85.1880455  53.1928873
  25.8828855  27.4438405  13.2381511  26.7896962  27.6852131  13.0493021
  25.7966757  26.5527821  12.8993070  72.0486641  35.6415820   5.8269167
  72.0350361  36.5269208   5.4632962  72.3128796  35.7613420   6.7391008
   9.9545515  61.9508266  93.4347534  10.9067249  61.8958950  93.3536434
   9.8086822  62.2944880  94.3161488 111.7758179  85.1673889  91.0287762
 112.3385525  85.7610703  90.5316830 110.8855343  85.4224110  90.7867241
  16.2277317  45.7039070  77.3712015  15.2959442  45.5755091  77.1936750
  16.6409230  45.6844091  76.5079975  56.9461489  34.5125699  16.2977266
  57.5181103  35.2797627  16.2753141  57.2291422  34.0253663  17.0715356
  26.4185882   3.4751123  94.8348618  26.2638259   2.9561737  95.6241512
  25.5429006   3.7010169  94.5212269 102.1909523  52.0424700  94.3869781
 102.9850960  52.4648046  94.0595627 102.4115276  51.1116695  94.4215393
  61.1050844  46.9358635  17.5210011  60.7383013  47.0861435  18.3922756
  62.0523977  46.9280958  17.6579988  90.6260777  82.7376556  52.5570583
  89.7005081  82.6286602  52.7754116  90.9217453  83.4545231  53.1182384
  87.6594257  27.4795651   9.6684891  87.6819324  26.5356588   9.5111281
  88.5642052  27.7651453   9.5418423  89.9439812   6.0714120  28.6927271
  89.6963310   5.1468116  28.6891484  90.5277157   6.1600989  29.4461346
  81.0838032  20.9553766   9.9622536  81.2589455  20.9351349  10.9030759
  80.5563641  21.7437458   9.8337221  76.8172026  20.4415894  30.7875872
  77.6642704  20.8865285  30.7605672  76.1868572  21.1100721  30.5191994
  11.4321840  16.8861628   0.3343836  11.1647272  16.1758006  -0.2487839
  12.3859990  16.8166173   0.3747801 104.5987129  61.9782877  86.6746807
 103.7085438  62.0074892  86.3240147 105.1360035  61.6822290  85.9398937
  93.6797810  21.0596204   2.8404954  92.9419231  20.5593729   3.1891435
  94.1276741  20.4491401   2.2548902  45.5078936  65.7505465  81.8685341
  45.5670023  66.6340351  82.2321129  44.5878792  65.5087662  81.9750500
 112.9591084  77.3409414  91.2472916 112.0033932  77.2878361  91.2439346
 113.1735134  77.7464390  92.0874310  98.4324741  71.2361717  87.7855587
  97.5821781  70.8446360  87.5857353  98.2473278  71.8702507  88.4782982
  78.0036926   7.7603877  20.2417040  77.3522234   8.0894691  19.6224070
  78.5285854   7.1433282  19.7318447  72.0113277  95.9997177  33.9561057
  71.8442392  95.3362942  34.6255636  72.8593159  95.7567215  33.5844874
  15.6772184  97.0422649  75.3658438  15.8720207  96.7362118  74.4800568
  15.8414149  97.9847717  75.3351212  82.5004768  69.7173071  88.9682865
  83.2055855  70.3646469  88.9683437  81.8077755  70.1176214  89.4937801
  93.4961414   8.0223709  29.2057562  94.3889046   7.6967698  29.0909481
  93.0288696   7.7198440  28.4270597  -0.0396861  19.0987194   2.0503429
   0.5274449  19.8591352   1.9224158   0.5649434  18.3655441   2.1648279
  57.5076914   5.1592761  16.6832733  57.4347496   4.6605837  15.8695066
  56.8084240   4.8147976  17.2387838   3.9474377  58.1565762  81.1259174
   4.8227975  58.0275488  80.7607746   3.8782501  57.5007248  81.8196869
  80.4916573   5.8889806   4.1418010  81.2496376   5.5891573   3.6399931
  79.7576189   5.8195436   3.5313967   4.7294694  39.0256810  66.5866566
   4.1847789  39.8001647  66.7270803   4.1548613  38.4073925  66.1352396
  18.1968915  84.0646744  91.2134647  17.3124182  84.1009521  90.8492947
  18.4531450  83.1462765  91.1291599  43.7188578  88.6012363   8.8072312
  43.6472416  87.6811028   8.5533547  43.2047224  89.0714931   8.1509143
  65.2080441   8.5867649   7.1698564  65.6543684   7.7633774   6.9722158
  64.5527649   8.6761039   6.4778620  27.2619820  69.3298054  94.3913937
  26.3818741  68.9878845  94.5486546  27.6108193  68.7797785  93.6899567
  98.4249115  29.6065283  18.9482808  98.5667706  30.5061364  18.6536360
  98.3892727  29.0929914  18.1412864  15.4124284  33.5743642  56.5411949
  15.0004232  33.8820267  55.7338381  14.6791744  33.3724427  57.1224022
  17.2368479  98.0959702   7.7644670  16.9575107  97.3484707   7.2358346
  18.1668413  98.1981659   7.5622272   5.9147173  86.5864277  94.2793274
   6.0726726  86.9044018  93.3904171   6.3525909  85.7358360  94.3107796
  -0.2566184  89.3640804  87.1673775  -0.1864757  89.8383045  86.3388634
   0.5959569  89.4848728  87.5854111  98.8407135  54.0563154  88.7770176
  98.0757427  53.5642815  88.4787750  98.8050652  54.8762608  88.2844257
 102.0378113  54.6336794  88.3658028 102.9359818  54.7393560  88.6794186
 101.8956947  53.6871004  88.3607388  10.4238760  66.4135265  89.5941544
  11.1504006  66.6532040  90.1694393   9.6391463  66.6568899  90.0852776
  19.7764313  60.7790041  92.9402161  19.4640315  60.4635191  93.7882233
  20.6518531  61.1218929  93.1199360  81.4394474  38.2582879  14.6398580
  80.9647560  38.7210417  15.3303301  82.2679710  38.7310481  14.5605862
 116.5092647  55.8243179  81.0203838 115.7368819  55.8502388  80.4555893
 116.6506657  54.8929739  81.1901855  63.5887480   5.7204467  58.5997725
  62.9387856   6.4182109  58.5166454  64.4067812   6.1772192  58.7957573
  14.9406123  86.4899540  69.8002768  14.8046899  87.2644997  69.2545414
  15.3933692  85.8703136  69.2281818  19.1186810  47.0635080  82.5593853
  19.9658155  46.9308853  82.1339321  18.8384843  46.1844683  82.8143597
  27.0279670 106.9527817  21.0105038  26.3966799 107.0967674  20.3055382
  27.6775622 107.6463795  20.8956742  96.0428238  42.3918200  19.5182478
  95.4655266  41.6301775  19.5717430  95.9014034  42.7381325  18.6371696
 105.7482147  63.6160183  36.6192937 106.5162945  64.1755867  36.7340660
 105.0554562  64.0562010  37.1117878   2.2881091  78.9379835  92.0795918
   2.7650353  78.7135649  91.2805843   2.2327311  79.8934698  92.0650959
  11.6142190 100.7139874  59.9470806  11.6497362 101.6638184  60.0602007
  11.7052066 100.5815983  59.0034533  86.7175293  48.4383583  33.4277177
  87.6502419  48.3206987  33.2476664  86.3765907  47.5483465  33.5165000
  25.4773951  97.1653175  93.2753563  26.1975741  97.7371407  93.5410404
  25.1755118  96.7656040  94.0910339  33.1859946  92.7401924  24.7411489
  33.8647723  92.9218578  24.0911579  33.2088852  93.4953880  25.3288436
  70.7416630  69.1005135   3.3993849  71.3578463  68.4454966   3.0715126
  71.0813284  69.9336243   3.0725920 115.5048561   8.3271402  11.7193031
 115.3757572   9.0186185  12.3684752 114.9701977   7.5988793  12.0355451
 101.8776417  66.7405272  23.6900902 101.1715603  66.5349388  24.3027997
 102.0745373  67.6630926  23.8523817 104.1230679  76.5117359  93.8385201
 103.5448551  76.7236614  94.5713139 103.8816547  75.6184673  93.5935116
  57.4573565  16.0423195   7.6372886  58.1217575  15.4861724   7.2304648
  57.6055670  15.9436333   8.5777813  12.1701801  78.0766392  85.4711533
  12.1054435  78.1504869  86.4233017  12.7793956  77.3523569  85.3279686
  95.5667019  42.6310539  16.7234051  94.8918724  43.3081198  16.6742289
  95.1941204  41.8867636  16.2507081  62.6543045   2.6057309   8.6688989
  62.6041889   2.4478780   7.7261358  62.8857136   3.5314327   8.7447804
  72.2715521   8.1605470  64.6948051  72.2417450   8.2768738  63.7451649
  72.3774242   7.2171444  64.8173380  80.4712200  14.6477854   5.6424445
  80.1325989  15.2253473   6.3265395  79.6936941  14.3654072   5.1608413
  70.5875397   9.9531323  17.7348137  69.6791887  10.1047981  17.9958224
  71.1058092  10.2799153  18.4702325  79.2569923   4.0227878   9.6235543
  78.6244440   3.4620574  10.0726616  80.0370121   3.4760866   9.5291150
  87.9299927  62.6216269  32.7084899  88.5580349  61.9571400  32.9917645
  87.1847057  62.1208429  32.3768210 115.7376289  86.9950962  83.4031582
 115.5074406  86.2672234  83.9806080 116.5699100  87.3196316  83.7469864
 110.9152985   1.1660021  29.8897958 110.5094337   1.3736673  29.0481424
 110.5970287   0.2878380  30.0989938  53.4020138  26.1536098   4.1025630
  53.3585262  26.1877012   3.1469595  52.5130749  25.9257841   4.3748015
  55.1662445  38.7193942   4.4901448  55.3532696  39.5375824   4.9503851
  55.2183723  38.0458307   5.1682508 110.7081890  46.3691378  89.2841721
 110.8366203  47.2167301  89.7099972 109.9811935  46.5131521  88.6783886
  22.4380088  66.2913465  76.2174940  23.3340263  66.2356234  76.5495777
  22.1201968  65.3885794  76.2331629  13.6423230  48.4810543  59.6975946
  13.4634805  49.3395996  60.0811911  13.5486031  48.6158371  58.7545776
  32.9506898  97.6083279  67.9805803  33.0644631  97.6085758  68.9309931
  33.8389230  97.5277328  67.6330471   5.8419061  13.1328046   2.5674501
   5.5435240  13.7093568   3.2708609   6.5387094  12.6106870   2.9650569
 109.3325806  81.0838032  47.0948696 109.5306778  81.9408226  47.4723721
 108.4751606  80.8561325  47.4543619  90.2496338  35.3013062   2.5084525
  90.9505558  35.4746222   1.8800449  90.3761101  34.3870616   2.7622059
  94.5383930  32.2697711   3.6869439  93.6699200  32.3990250   3.3057821
  94.9499226  33.1328964   3.6434504 110.6153965  34.2332840  26.7975879
 110.6761360  33.8914084  27.6895881 110.1073074  35.0398540  26.8842983
  98.1045151  41.4220381  16.5580451  98.1714249  41.0075235  17.4182391
  97.2949600  41.9310665  16.5997875   3.3180198  64.8137951  87.0544529
   4.0366915  65.4318190  87.1878338   2.7110475  65.2737951  86.4746189
  93.6028385  43.7473774  36.7509079  93.2943916  44.4142914  37.3643565
  94.3924904  43.3929014  37.1595955  17.0781720  33.1867504  52.4121952
  17.1832883  32.8729534  53.3103657  17.9713356  33.2459712  52.0731020
  57.9904556  69.9406481  90.7150364  58.1997395  69.1257715  90.2585220
  58.3353281  70.6291151  90.1464367  90.7420254  45.7642365   9.9249679
  91.4433002  45.7911348  10.5759048  91.0980511  45.2352571   9.2110646
   3.6418208  91.5888309  93.2764435   4.3821594  91.8640995  92.7357483
   3.9214930  91.7673969  94.1742992  93.6504650  17.9400754  26.2726688
  94.5853806  18.1432247  26.3024569  93.2187843  18.7939167  26.3016820
  46.3593820  47.7675594  94.4822465  46.8182519  48.2990993  95.1327367
  45.4368928  47.8292622  94.7301297  84.7541428   8.3841079  12.3692167
  85.0491810   8.4118992  11.4590454  84.3585873   7.5178987  12.4664342
  30.2531219  33.7554288  93.0319977  29.9714756  34.6280026  93.3068180
  29.4475079  33.3207822  92.7521801  53.1701517  12.2809458  63.3396339
  53.7976789  11.6767299  62.9429436  53.3234453  13.1132293  62.8923798
  31.6725206  77.1026611  88.5657406  31.0519481  76.7618370  89.2099094
  31.1866713  77.7853346  88.1029892  92.5631046  13.3547103  23.5106778
  92.8543282  12.5607240  23.9590192  92.6079750  14.0377343  24.1797805
  86.1888123  21.5783858   1.7072441  86.5337467  20.7036853   1.8865511
  85.2530766  21.4412022   1.5595174  65.2269459  32.9188585  23.6474037
  64.2960882  32.7680969  23.8117361  65.6754827  32.3842764  24.3025899
  17.8000712 103.3013058  92.8429985  17.9204559 102.3646927  92.9994678
  17.2580767 103.5985184  93.5738468  90.7406616  47.0676374  13.0176818
  91.0940647  46.8213558  12.1628797  91.3169384  46.6360903  13.6484730
  56.7488623  13.1981874  10.3742576  55.9788561  12.7254725  10.0582469
  57.3528290  12.5110793  10.6559300  93.3304787  10.5773914  29.9034882
  93.5732460   9.7517663  29.4843960  92.4125004  10.7062685  29.6648741
  13.7190962  31.6304588  87.8021622  14.3733823  31.2066531  87.2467136
  14.1758955  31.7956400  88.6269569  88.0887413  37.5847960  28.1813431
  88.9171219  37.1077681  28.1316757  88.1037807  38.1703353  27.4242759
  84.5939445  22.2322607  15.9973288  84.1058445  22.6004434  16.7338300
  85.2952576  21.7240405  16.4048862 105.2906036  80.2370930  81.6280079
 105.7149696  80.8490849  81.0266685 105.3331280  80.6705284  82.4803925
 102.8934193  19.2266679   3.9036393 103.7006092  19.0236759   3.4309071
 103.0432320  18.8923693   4.7879654  17.0484757  61.5236425  78.0610180
  17.9802859  61.6574049  77.8876066  16.9364440  60.5731106  78.0478954
   0.4323801  38.8549519   4.3035549   0.4058535  39.7797537   4.0580577
  -0.0524910  38.8119292   5.1277399 115.0169563  31.4339876   5.9788674
 115.6285286  32.1672320   6.0463941 114.1514492  31.8367887   6.0486692
  96.7103863  27.7402568  34.8830652  96.0068130  28.3888459  34.8595595
  96.8004894  27.4516082  33.9748812 112.5599384  10.9199178  32.7872300
 111.6551399  11.0220826  33.0824137 112.5013161  10.9171486  31.8318319
   6.0024220  89.5097256  69.8639727   5.8766699  89.4956684  70.8127689
   6.9519943  89.5452499  69.7487211  84.2389679 107.3411942  22.4129772
  84.5305824 107.9446220  23.0963969  84.3207359 107.8413963  21.6009736
  28.2695031 106.5937042  93.7564278  28.5867715 106.0489082  93.0361652
  28.8970280 107.3148251  93.8057041  26.7454100  85.9621525  83.7475491
  27.5786638  85.9433365  84.2182541  26.2959528  86.7360687  84.0870762
  33.1063509   0.9317937  35.8414698  33.2268953   1.8080539  36.2073517
  32.2182393   0.6847057  36.0992289  60.6844187  40.4952955  15.7715642
  61.4619446  40.0904846  15.3870940  59.9563837  40.1606083  15.2479422
  12.4683595  53.8252926  86.5904713  13.1046379  53.5436630  85.9331608
  12.8573227  53.5674953  87.4262238   5.6618679  40.8493090  28.9090848
   5.3248650  40.2943134  29.6123910   4.8815635  41.1314249  28.4318352
  19.0661824 105.5310822  93.2911205  19.1661358 106.1284351  92.5498962
  18.3664429 104.9344921  93.0252743  81.3657570  32.6227808   9.9059731
  81.2945366  31.7104244  10.1866245  82.1972656  32.6638532   9.4336039
   0.8961666  80.5940437  94.5909405   1.6131207  80.8013344  95.1903057
   0.3809400  79.9330282  95.0533581   3.3625239  37.2740626  21.1105633
   3.9084357  37.1089172  20.3418374   2.6235896  36.6734767  21.0130668
  40.6484604  85.4914856  91.7501259  40.7804871  84.6636581  91.2880611
  40.3638792  85.2336407  92.6269245 106.3212204  89.3158245  92.2982597
 106.7152977  88.6580944  91.7252541 105.7865334  88.8105297  92.9106426
  65.3686142   5.7099271  16.6583335  65.8635902   6.3520855  17.1671200
  66.0235929   5.0713038  16.3765609  10.0070095  48.4024191  92.1734524
  10.5080056  47.7756548  91.6515255  10.2436614  48.2030773  93.0792618
   3.1586644  62.9452610  60.3613901   2.9188675  63.3283377  59.5175982
   3.9485866  62.4367952  60.1777601  89.9345589  82.2308826  95.2637005
  89.4936943  81.4002514  95.0850296  90.0077915  82.6522255  94.4073582
   2.3927182  88.1957626  59.4057941   1.6004327  88.2028580  59.9428844
   3.1073022  88.3145714  60.0314808  10.6401730  35.1319814  41.5862942
  11.4210796  34.9813747  42.1189594  10.8320355  34.7018290  40.7529926
  97.4617386  20.2766991  18.4760976  97.8992653  21.1277223  18.4524798
  97.1101379  20.2127147  19.3640840  85.9664345  99.9964428  15.4827344
  85.1891327  99.4574451  15.6293666  85.6243515 100.8821964  15.3616989
  82.5174999  49.3729782   9.5113814  82.2068024  48.5588312   9.1153187
  83.4718037  49.3080425   9.4750899  24.4854355  68.4935570  94.1885948
  23.5809803  68.3756638  94.4789314  24.8593855  67.6126003  94.2061806
   5.6988013  75.7719994  63.4793186   6.6089529  75.9311390  63.7293768
   5.7525623  75.4200935  62.5907803  94.2680645  58.1248903  69.4218922
  93.6163139  58.2977629  68.7424994  94.0277004  58.7113905  70.1391602
 112.4599552  83.7634087  80.3000927 113.0511951  84.5045090  80.4321861
 113.0287457  83.0532932  80.0026798  83.5397243  25.6754065  47.7397728
  83.5874462  26.4107490  48.3506966  83.8689518  26.0288382  46.9133759
  66.5787315 107.9999256  26.2244964  66.1485434 108.7643623  25.8413267
  66.5344620 108.1485653  27.1690488  72.6829624  19.7745073  17.9071581
  72.9427338  20.4963827  17.3347533  72.6349020  19.0144360  17.3273206
   8.7936062  17.7427268  31.3382196   9.0295553  18.6396205  31.1012793
   8.2749683  17.8346944  32.1374631  81.8527412  33.1802487  23.3015466
  81.4732265  32.4295235  23.7582803  81.7961502  33.8979983  23.9323115
  34.0975189  70.8208036  90.2949715  34.1278839  71.7587805  90.1065159
  33.7495255  70.4269171  89.4949818  77.2857285  94.2247677   2.0320791
  77.8546858  94.9407673   1.7494959  77.4503183  93.5245419   1.4005515
   1.8212269  81.4491367  76.8898392   1.1693341  80.7828331  76.6723204
   2.5582263  80.9549618  77.2488070   3.1977037  42.2138466  95.1169857
   3.2308105  41.2928261  94.8584118   3.4606650  42.6928581  94.3310893
   6.4900279 102.8989410  83.6062527   5.6402665 103.2855225  83.8176441
   6.4926785 102.0598602  84.0668678  29.9388742  35.8781934   7.2172946
  30.2047777  36.4328218   7.9507208  30.5479169  35.1401615   7.2420108
 112.9843712  62.8574657  88.2677460 112.4084759  62.4021482  88.8819599
 112.3996449  63.4286213  87.7696419  52.5759411  15.3975832  15.2848113
  52.4708414  15.5937231  16.2157869  52.6124573  16.2555242  14.8619223
 112.2479248  87.1452904  87.2285652 112.7857876  86.7154598  86.5635967
 111.5168476  87.5217724  86.7386436  29.6014953  96.1868286  87.8935146
  30.0230789  96.6132069  87.1473885  30.3265548  95.8301258  88.4066200
  88.6430931  32.9287291  26.3871932  88.6393261  32.4876761  25.5376697
  89.5538235  32.8808236  26.6778994  21.8553257  82.8797245  64.0912676
  21.8663120  81.9309330  64.2174244  22.7582455  83.1533051  64.2528963
  17.6053434  91.4777255  93.9230055  18.4331804  91.8963933  94.1588818
  17.4127394  90.8964753  94.6587240  84.4953728  20.0599074   9.6980715
  84.7205830  20.8819652   9.2624879  84.0272141  19.5563948   9.0320921
  86.7976093  15.6463706  18.4447777  86.8232441  15.7292390  19.3980384
  86.3022804  16.4110005  18.1511271  17.6122928 106.3735676  85.8119202
  17.0578682 107.0637989  86.1758327  17.7273369 105.7539654  86.5324020
  86.2464237  49.0896320  37.8355145  86.3981247  49.5940447  37.0362735
  86.9518375  48.4427404  37.8479886  83.6293697   0.5114749  49.5205021
  83.3106899   0.9404643  50.3146315  83.1453609  -0.3134962  49.4832277
  48.8517904  59.7610855  93.9632416  48.9608812  60.6911325  94.1615963
  47.9436731  59.6834707  93.6707878 105.9356785  16.4083123  37.5825930
 105.1138401  15.9351540  37.7127409 106.4463806  16.2225437  38.3705688
  10.4177737  25.6379414  34.6051621  10.4802537  25.4233479  35.5359006
  10.2788532  26.5848231  34.5864797 112.6619625  96.7934895  83.7131977
 112.2628689  95.9245586  83.6692905 113.5583591  96.6307831  84.0068531
 109.7962856  34.6994615   6.4886320 109.5727730  33.7695193   6.5270883
 110.2749729  34.7969007   5.6654710  99.8024368  19.3520236  15.9941673
  99.9911308  18.7546766  15.2704251 100.4634571  19.1444373  16.6546142
  23.2845807 105.2488708  10.8834970  23.0040216 106.1592579  10.9768140
  23.8400149 105.0899887  11.6466999  16.8778348  72.1257401  79.6707058
  17.3808753  72.7128220  79.1063356  16.5293920  71.4618111  79.0757132
   2.0134945  50.2705002  72.1956825   1.4635527  51.0108089  71.9392872
   2.5447017  50.0870657  71.4208269  24.3689036  81.8032360  85.3974533
  24.3012857  82.5518036  84.8047447  25.0564790  82.0491123  86.0163403
  84.6952438  22.7736545   4.3417904  84.7852230  21.8207169   4.3485323
  85.5604267  23.0941272   4.0868500  29.5831752  51.3102245  73.0958271
  30.2349639  51.2569523  72.3968506  28.7414050  51.2830877  72.6409483
  85.7225990  11.2357044  31.6766596  86.3390160  10.6226122  32.0771337
  85.7876778  11.0617149  30.7376575  83.7416953  21.4193511   0.4473556
  83.8413721  21.0432028  -0.4271828  83.3157361  22.2634196   0.2979148
  87.2684479  16.4973807   7.5020039  87.7231789  16.0751975   8.2308489
  86.4447689  16.0162556   7.4226552  21.3247705  46.8193102  87.4026966
  21.4414215  46.6976595  88.3449459  21.9599628  46.2245274  87.0039558
  28.8930416 104.7776222  91.4380932  28.8426828 103.9516830  90.9569263
  29.6488762 105.2284241  91.0616398   5.3946835  94.6229267  85.6645203
   5.5473471  93.9708042  86.3483810   4.5147252  94.4295025  85.3412724
  94.3828964  34.7365642  15.9495509  94.6601677  35.0259089  16.8188226
  94.3624878  33.7815070  16.0102189  52.1623039  70.8064938  93.1006527
  52.6514673  70.0428247  92.7944565  52.4800205  71.5279293  92.5576878
  21.9374824  41.2169170  48.2934952  21.8112206  40.3865147  47.8344488
  22.6900554  41.0628748  48.8645792  29.7524905  83.7677002  72.6196194
  29.0082407  83.9891720  72.0599079  29.5604157  82.8846741  72.9352331
  75.3088999   7.5936729  93.1045341  75.0810289   7.0830822  92.3276138
  74.7420645   8.3636940  93.0598164 109.6086216  67.7270603  36.8981338
 109.9744320  67.4299097  36.0649991 108.7197018  68.0090475  36.6824293
  47.5104523  17.3634624  91.2593937  48.0581617  16.7794561  90.7348156
  47.9532003  18.2109618  91.2151909  57.0430899   3.5671780  74.8432493
  56.9554424   3.5303673  73.8907814  57.3719501   2.7019575  75.0871277
  12.1713352  67.5687313  18.4908640  11.3466609  67.3912001  18.0385077
  12.2559154  66.8553543  19.1234529  46.9466543  75.1695919  86.2308884
  46.2688923  74.4938040  86.2443352  46.5139675  75.9352732  85.8530617
  11.4887941  74.9031973  89.0958881  10.9645486  75.6723261  89.3191338
  12.3136389  75.2622557  88.7688732 102.0592976  54.0637398  14.7820437
 101.6829777  54.9206686  14.5813453 102.4658012  53.7827206  13.9622760
   6.7304444 106.3410568  74.3208694   6.6432810 106.3096428  75.2735758
   5.8297539 106.3789272  73.9990711  78.0734301  71.7576838  89.4686699
  77.3590088  72.3905563  89.3958473  78.5504341  71.8388605  88.6427689
 105.5017471 101.8614578  10.0599968 106.0418224 102.5363159  10.4712415
 105.1851654 102.2669888   9.2528069  97.2279358  63.4309864  23.6885929
  96.2990284  63.2392883  23.8174248  97.5931835  62.6197290  23.3354807
   2.2117111  53.4772968   5.6317186   1.4280370  53.8811302   5.2588826
   2.6591069  53.0853796   4.8817378  42.0020247   1.8662769  77.7542257
  42.0033216   2.8059340  77.9366398  42.5177479   1.7771651  76.9527769
  17.3531711 105.9640503  81.6216087  16.9160056 106.5847015  81.0385895
  17.9794431 106.4964867  82.1120453 108.7171173  43.5138893  15.6080186
 108.0474567  43.5935688  14.9287307 108.9679909  42.5903273  15.5898738
 100.7820797   8.5503572  12.9252851 100.1861095   8.5010940  12.1778750
 100.3577995   8.0265325  13.6048639 110.2757740  36.2955713  15.0928664
 109.6568203  36.7077112  15.6955850 110.8972740  35.8410501  15.6615305
 113.8475227  83.8513088  33.9405417 112.9228020  83.6421299  33.8087821
 114.2516804  83.6986637  33.0863833   1.3834578  17.6985693  11.2450767
   1.6973510  16.7945540  11.2665439   1.7444520  18.0582750  10.4348135
  93.9211750  74.6598864  17.1447158  94.4492054  74.2312193  17.8182602
  93.0836964  74.8364830  17.5732780  14.6325457  71.7723989  89.9594879
  15.1746297  72.5334406  89.7516632  13.7537682  72.0181465  89.6703720
 104.7253323  49.8499823   4.7803509 104.5587540  48.9522505   4.4930142
 104.5527744  49.8360634   5.7217658   8.5890269  47.2815752   6.8935031
   8.8176864  46.6885996   6.1777341   8.1079298  47.9929638   6.4707661
  27.9444027  82.3872566  77.6320219  27.4620366  82.5113773  78.4494209
  28.2610393  81.4849854  77.6754141   8.1124514  90.8293438  83.4589005
   7.3449332  91.3955784  83.3781147   8.4751344  90.7898045  82.5739574
  53.7873268  63.6599636  86.5737247  53.9169788  63.8671923  85.6482601
  53.7827253  62.7033377  86.6065979  84.7671795 102.0742130  92.2369194
  85.4329777 102.0415211  91.5499783  85.1262283 101.5383625  92.9441547
 110.3873444 109.5601177  76.9591856 110.0768185 110.2761745  76.4050388
 109.6007919 109.2415333  77.4019909  23.1997347 101.1900997  92.2983646
  23.2539320 100.9663391  91.3692665  23.2993197 100.3533554  92.7524471
  59.2280054  89.8696518  67.4026728  58.7639427  89.2501068  66.8396091
  60.0062466  89.3935394  67.6923084  15.3766155 107.1037102  69.0585232
  16.1207306 106.7023468  68.6097050  15.6997824 107.2877979  69.9405146
  11.2838209  26.3992429   4.6254709  11.6599643  26.8797255   5.3629565
  10.4378188  26.8199134   4.4720197  16.7249846  48.3359623  14.0345764
  16.3254106  48.3037949  13.1653595  17.6288438  48.0543661  13.8932562
 111.0339165  19.9707651  11.5229201 110.4708004  20.6001568  11.0723639
 111.2215424  19.3025208  10.8637714  42.7686214  77.6905823  90.2752876
  42.7162504  78.6375856  90.1461697  43.5869789  77.4356556  89.8492241
  97.0506096  91.8207741  86.7736053  97.1669865  92.5860882  86.2105942
  97.4778652  92.0610714  87.5957680  15.6645656 101.6590595  89.0162468
  14.9852788 102.2252750  89.3825817  15.7792616 100.9690285  89.6696472
  49.0443945  24.0147734  94.7979927  48.4854412  23.3741879  95.2378273
  49.9189234  23.6264038  94.8224926 106.9190407  57.1684027  23.9613581
 107.4303436  56.7938519  24.6786499 107.5721264  57.5551510  23.3781505
 113.7223625  25.3612995   4.2754748 113.6743259  25.3155208   3.3205777
 113.4431267  26.2521172   4.4869047  40.1648617  90.6823254  82.5612926
  40.8362007  91.3631725  82.6059246  39.5561314  90.8995533  83.2673359
  37.4509120  67.8889894  85.0823784  36.7732668  67.9869223  84.4134712
  37.2217655  67.0793819  85.5387306   8.7644976  70.5491066  94.4438267
   9.5650494  70.5106640  94.9671555   8.5305327  71.4771938  94.4318295
  59.4711542   9.7867650  69.5468330  59.4187021  10.7262492  69.3711853
  58.6848068   9.4227964  69.1401100  73.5386086  26.4270949   9.2175204
  73.7468910  25.8415818   8.4894949  74.3577242  26.8895125   9.3948734
  47.9717827  85.0719452  63.4411192  47.3575211  84.7016716  62.8072309
  48.8243628  84.7239685  63.1798792  74.1423893  23.8501549  11.9142926
  73.7135792  22.9970288  11.8469810  73.8471031  24.3284392  11.1395156
  45.9147692 106.7152214  65.8173943  45.1128387 106.5338135  66.3075256
  46.3948202 105.8871746  65.8285952 104.5143032   8.7312680   8.0363011
 104.0767860   7.9944307   7.6098269 105.1657772   8.3248043   8.6077887
 113.6234093  30.2528381  18.3291471 114.5325279  30.1952958  18.6231291
 113.3312798  31.1161566  18.6216772  75.1369953 101.1256981  21.8576670
  74.2268515 101.4150047  21.9222212  75.4863596 101.6005707  21.1035657
 108.7209988  23.7739587  12.4301469 108.8850307  23.0448222  13.0282128
 109.1131496  23.4972954  11.6019523 114.3891144  39.7864151  20.1219344
 114.9744129  39.3104315  19.5327830 113.8394070  39.1075850  20.5133986
 102.7058125  43.3803177  19.4574344 102.9476357  43.2731485  18.5375059
 103.2711887  42.7668571  19.9267375  92.4617100  28.2346272   3.7068546
  92.1683979  28.1073451   2.8046358  93.3874416  28.4647560   3.6275393
  97.1315193  58.1341600  14.9725330  96.9639874  59.0427589  14.7223139
  96.3311386  57.8570557  15.4184306 107.4749184  25.4953766  31.1385655
 107.1568680  26.2342405  31.6573668 107.2104359  24.7217345  31.6363192
  97.0349121  25.1740074   2.7785659  96.4955997  24.4145560   2.5581065
  96.5832138  25.5822492   3.5171694  29.0913153 104.8104668  55.1194239
  28.5629058 104.9225521  54.3291998  28.5477591 104.2745686  55.6969976
  42.0549726  12.6360738  94.7571278  41.4570236  12.9895771  94.0985489
  42.4756908  13.4072816  95.1372242  41.3340473  98.2558632  91.6754150
  41.6321421  99.0958786  91.3264942  40.4007530  98.3844471  91.8447018
  17.5340390  34.5795965   7.8611213  17.6533234  35.4047513   7.3908865
  16.5859270  34.4493055   7.8795266  29.7428060  21.2052965  94.4165802
  29.5889735  20.5929089  93.6971664  28.9346480  21.7149949  94.4741917
 112.4023151   7.7779448  18.4746814 113.0624771   7.1003026  18.6203635
 112.1599197   7.6821178  17.5536525  99.1945362  14.9978518   2.0393679
  99.0457535  14.4152093   1.2946376  98.9926338  14.4622576   2.8065735
  32.6041842  20.5436826  68.5336447  32.3302579  21.3740110  68.1440973
  31.9621539  19.9077189  68.2180834 115.2309704  67.2873831  20.4643846
 115.5576801  67.8796577  21.1416602 114.7299480  66.6279078  20.9442759
   0.8188848  88.1097412  49.2143822  -0.0078770  88.5857582  49.1362858
   1.0000104  88.0968952  50.1542044  32.2834516  27.2147059  81.9324875
  32.7318788  27.7478981  81.2760925  31.5122223  26.8747687  81.4787483
  93.7977123  63.3304453  11.7732239  92.9695702  62.8834438  11.5982616
  94.4650364  62.7507639  11.4059651  37.2535729  91.3665199  86.5600300
  36.9204783  92.1917725  86.2075615  38.1967998  91.4014435  86.4008522
   7.0053154  43.4407473  15.2958608   6.0551399  43.3798647  15.3943026
   7.1324104  44.0582752  14.5756292 111.4617252  54.3610477  28.6340714
 112.0853901  53.9493895  28.0358934 110.9547901  54.9547529  28.0802178
  60.0776958  19.1581130  93.2652855  59.4038248  18.5143280  93.4836197
  60.5778551  19.2650974  94.0743732 106.0942554  39.4036055  19.4121921
 105.6805706  40.1070929  18.9119887 105.3621387  38.9098048  19.7815204
  12.6263106  87.1274757  86.2379360  13.0984473  86.7824268  85.4801369
  11.7089486  86.9155312  86.0654259  26.0513806 109.1544819  77.7094173
  26.0490537 108.2102108  77.8661823  26.9001460 109.4498825  78.0389071
  16.1865497  69.2893934  16.7178583  16.8491542  68.7237310  16.3213611
  15.3605092  68.8274670  16.5746546 113.0212498 104.9980068  91.7404556
 113.4182549 105.1495934  90.8827591 112.4801254 104.2177773  91.6193867
  10.8224165 107.3002529  81.0469055  10.9713745 107.1726990  80.1100063
  10.2575994 108.0714321  81.0968208  66.7228699  31.2190008  86.1073589
  66.3969231  30.6281900  86.7862797  67.2136784  31.8867350  86.5863895
  38.7210798 100.5987930  83.6066914  37.7741599 100.5979061  83.7465858
  38.9028430 101.4477444  83.2036018  73.9641333  59.1853333   9.7329813
  74.5004129  58.6363697  10.3050601  74.5100498  59.3310976   8.9603502
 100.2190399  47.0852470   3.2429743 100.9390068  47.6626444   2.9890165
  99.8539734  47.4895763   4.0300423 101.7853165  54.1657639  25.9943557
 101.8649960  54.9529982  25.4557061 102.6888847  53.9013577  26.1672187
 100.4022598  64.5744896   9.0626019  99.7356033  65.0072813   9.5959771
 100.4665565  65.1145458   8.2749242  16.3920295  97.1236515  61.8099022
  16.6835415  96.3969898  62.3605490  15.4592276  97.2129345  62.0051956
  38.8592696  94.8976994  58.5439062  38.0998206  94.5304775  58.9962530
  38.7368345  95.8453274  58.6008072  11.2358975  22.5640297   8.4233212
  10.9551549  22.0043755   7.6993036  12.1835268  22.6414371   8.3126873
 110.5346966  44.7891808   9.8151135 109.9444580  44.3509769   9.2020655
 110.5619621  44.2100811  10.5767739  95.8167458  24.4922423  14.4868207
  94.9639034  24.0795994  14.3503749  96.0404873  24.8670888  13.6349618
 112.1491432  47.6689100   4.0436649 112.0662785  47.6885557   3.0902600
 111.5503693  48.3498955   4.3501991  58.5175037  28.8134098   3.0140188
  58.7715626  29.2208409   2.1859559  59.1293097  28.0849481   3.1201664
  82.9322624  27.7066851  28.6021471  83.6478615  28.2860088  28.8639617
  82.5681591  28.1155396  27.8169727  68.3954144  20.4253030   1.2299831
  68.9588976  20.6137228   0.4795057  68.9992285  20.1494026   1.9195634
 111.3813877  31.8548918   2.2309384 110.8217049  32.4212933   1.6997378
 112.1385288  32.3997211   2.4457219 102.0845032  77.0225191  91.2599468
 102.6283455  76.8171406  92.0203972 102.3495960  77.9070282  91.0077572
  21.7241859  79.2425585  59.0040588  21.8203568  79.7500753  59.8099184
  21.1619806  79.7813082  58.4473658  55.7933140 103.6326790  75.3333473
  54.9711847 103.1473446  75.4025030  56.3987064 103.1610870  75.9054756
  43.9055824  92.8778648  86.5527153  43.5584211  93.7507534  86.7364597
  44.5382500  92.7193642  87.2533226  54.8230124 103.6046219  91.7790318
  55.1183558 104.4785213  91.5234661  55.1553917 103.0286121  91.0905838
  29.9554038 105.6392479  85.9081078  30.4549885 105.7033157  85.0941372
  30.5954623 105.3539753  86.5601540  35.4904628  94.1575241  55.5033875
  34.8226595  93.9834213  56.1666822  36.2911081  93.7763214  55.8637810
  25.6146908  32.8149509  15.7453680  26.3408041  32.4660397  16.2623310
  25.5566454  33.7346721  16.0041642  26.9214487  82.9674149  80.0671005
  26.0250306  82.6870251  80.2516270  27.4705672  82.2966099  80.4729652
  24.8512864 107.7329350  87.0095921  24.4163680 107.6763535  86.1587811
  24.1982412 107.4167252  87.6339054 112.0510006  57.7638149  34.0585065
 111.4660358  57.6850605  33.3049512 112.6590252  57.0301628  33.9674354
  81.5285778  72.9579830  24.9597573  82.0431900  73.7447596  24.7797823
  82.1303272  72.2336912  24.7878814  25.0843787  72.3046303  78.2007170
  24.3481255  72.7294540  77.7606153  25.6060505  73.0283737  78.5475445
  44.6937132 103.3228970  73.3976316  45.4880524 103.0029011  73.8252544
  44.6977139 102.9010677  72.5383997  64.0278578  69.8032188  81.4935303
  64.0944386  70.6848383  81.8603420  64.6219349  69.8105717  80.7430267
  25.3931332  30.4076052  72.6274490  25.0047851  30.9637785  73.3027887
  25.6510782  31.0161829  71.9351101  74.9113035  27.4243951  20.5189133
  75.3464460  28.2682943  20.6402421  74.0441656  27.6484179  20.1811075
 113.5603237  62.3841619  20.9537983 112.8069687  62.6763058  21.4669752
 113.3878994  62.7078724  20.0696516  61.2835598   9.9532825  60.2699375
  61.1539650  10.2898359  59.3832779  61.2582731  10.7309902  60.8274031
  84.3456078   7.7182329  78.0276966  83.7415981   8.3452016  77.6298046
  84.8813343   8.2450390  78.6207342  38.2541561  90.5955219  93.6825752
  37.4727225  90.1443481  93.3631420  38.8867569  89.8950863  93.8420486
  24.3294454  80.1337528  94.7961426  23.4830070  80.0950241  95.2414131
  24.1106343  80.3056812  93.8802814   5.0149930  25.2030826   4.1583690
   4.1778988  25.1189470   4.6149057   5.6567305  24.8332977   4.7647208
  92.8217220   6.6300178  12.2589087  92.9470062   7.5038373  11.8888092
  93.6998177   6.3521898  12.5196624  60.9821892   6.1696309  88.4604645
  60.1909924   6.4777756  88.9023685  60.9523392   5.2173120  88.5522747
  50.9454584 100.0128460  67.5086546  50.3287220  99.2822361  67.5541878
  51.2463140 100.1288414  68.4099102  16.3506651 103.6771488  62.7520561
  15.6787753 104.1661453  63.2271147  15.9425402 103.4624100  61.9132757
 105.2787113 106.7908573  75.9729528 105.8153439 107.1355057  75.2591801
 105.6746387 107.1518707  76.7661381  17.6397932  85.3512192  77.0990705
  17.5937915  84.6030235  76.5038300  18.3615565  85.1416683  77.6918411
  37.5529170  90.6309891  62.6564074  37.8625703  91.4190865  63.1027746
  37.8607678  90.7294273  61.7554235  42.6115513  79.9993706  72.8891659
  42.5993299  79.4954443  73.7028837  42.0241308  80.7366657  73.0551910
  26.3298082 103.7884617  80.4602432  25.5206609 103.3771706  80.7641315
  26.3920236 103.5416889  79.5374918  87.5642490  22.3351598   4.5506760
  87.4210930  21.9252419   5.4037321  87.7273941  23.2566023   4.7520804
  93.8183784  37.8964996   1.1265229  93.8636971  38.8243771   0.8958280
  94.7231579  37.5900817   1.0655966 115.9879017  51.8825674  24.7466016
 115.1941109  51.3595676  24.8588920 116.6460037  51.4365387  25.2796960
  31.1420250  82.7442360  62.1395493  30.3300667  82.4030304  61.7646742
  31.5207291  82.0003319  62.6079607  21.7383480  82.8110218  84.6853924
  22.6784730  82.6467896  84.7590637  21.6773701  83.6799335  84.2885303
  19.5054865  77.4933529  92.4101448  19.0257204  77.5600863  93.2357311
  19.9892485  78.3168936  92.3470020  52.2055435  11.2966275  78.9777756
  52.8212643  11.9807458  78.7149048  52.7018309  10.7483542  79.5854998
   9.9835974  77.4967575  91.9315910  10.1939750  78.3163786  91.4841652
   9.2869341  77.1073723  91.4031315  54.5584488   4.6738207  52.0408487
  54.1973305   5.5259442  51.7964935  53.9653015   4.3474489  52.7175236
  19.0056360  79.5437002  77.8839397  18.5975850  80.4030704  77.7780390
  18.6142445  79.1894770  78.6824179  35.9280086  41.8578959  11.2516272
  35.3430915  42.0434284  10.5169976  35.5331802  42.3157740  11.9937098
   1.3599534  84.0889359   6.8597370   1.2758175  84.5273972   6.0130316
   0.4634980  84.0329456   7.1905917  70.0153399  23.8213134  77.2820234
  70.6959915  23.5116196  76.6845036  70.1597786  24.7657275  77.3407555
  12.1758020  85.8405018  45.1148272  12.6109779  85.9993553  45.9524536
  11.5718961  85.1192093  45.2916670  23.1337500  84.2863846  81.4259243
  23.4980345  83.9377689  80.6122971  22.2630286  83.8933945  81.4862347
  12.5032783  39.3994379   1.1904602  11.5788150  39.3028283   0.9618449
  12.9378676  38.6736202   0.7426269 100.9202576  52.9901457  51.7893839
 100.9730053  52.0900345  52.1107101 100.3848076  52.9310179  50.9981680
  53.5172510  19.1923916  64.1346407  52.9189301  19.8680663  64.4535589
  53.8730335  18.7933707  64.9286366  58.5877132  88.2534695  53.7234831
  58.2468796  87.5951862  54.3290615  59.2263842  88.7456226  54.2393446
  31.6183496 102.2397709  67.2355509  31.7753887 103.1713963  67.0818043
  30.6649995 102.1592617  67.2651100   2.7567506  45.0795317  40.3475666
   2.3100339  45.5312157  41.0635662   2.7283531  44.1547775  40.5930233
  57.7980852  18.5409927  38.9521694  58.3129406  17.7477407  38.8041592
  57.5713110  18.5094059  39.8815823  92.3442173  50.6894732   1.4914979
  91.4150333  50.9187746   1.4750007  92.7060509  51.2075949   2.2104277
  11.0298920  97.4269676  80.7329369  11.6589904  98.1388187  80.8501434
  10.6109607  97.6134777  79.8927355 112.5823212  22.0944047  77.9383087
 112.2206306  21.2840915  77.5794125 113.4758186  22.1297789  77.5967789
  98.4445000  50.8153772   6.1557132  99.1864681  51.4102077   6.0466760
  97.7048969  51.2809372   5.7652420  57.2556734   7.5829268  80.1889515
  56.5879107   7.6366705  79.5052528  56.7953300   7.8239238  80.9928322
   7.5006950  27.6504087  11.4862490   7.3765230  26.7049766  11.4027560
   7.9462016  27.9057288  10.6784332  31.2524724  13.6289144  59.8602152
  32.0809531  14.1061449  59.9060631  31.4883542  12.7735138  59.5012140
  96.1328411  61.8134642   7.5241458  95.4851055  61.5900517   6.8557453
  95.6263924  61.8882275   8.3329439  77.6525784  80.2396202  70.4801321
  77.3246908  81.0445309  70.8811808  78.5273123  80.1259327  70.8518171
  11.1984205 105.8668423  87.2657967  10.3776121 105.3754902  87.2329617
  11.3682008 105.9873772  88.2000732  41.8476439  94.8479271  83.9013290
  41.7420816  94.7569656  84.8483276  42.2482300  95.7096863  83.7866688
  60.9726286   0.1412255  56.7352724  61.2530136   0.8429293  57.3228359
  61.4928389   0.2706499  55.9422684  84.8842430  69.0066862   2.4715468
  84.3839359  68.8641548   1.6680446  85.7589531  69.2507172   2.1689481
  21.9837999  82.8151035   7.0117474  21.4501691  82.3888111   6.3411164
  22.8696656  82.4870872   6.8572170 101.8237114  54.0156174  21.0767674
 101.5535736  54.4585800  20.2723765 101.0412216  54.0219259  21.6280365
 111.3331032  53.9210272  23.8749409 110.8644867  53.2265186  24.3378615
 111.9444752  54.2706871  24.5231676  99.2853069  80.0993919  11.7664862
  98.5374928  80.1645565  12.3604262  99.0026379  80.5565262  10.9744263
   0.7926591  66.0654497  12.2127616   0.3738834  66.9258642  12.1895051
   0.1638545  65.4814863  11.7887032   0.6282290  12.2865510   6.7263812
   1.5432948  12.2256541   7.0005673   0.4401741  13.2250953   6.7262918
 108.0062008  56.7501783  63.3090305 107.6937771  57.6541281  63.3477783
 108.5933113  56.7318678  62.5532627  41.1055040  92.7349949  65.9483099
  41.1417532  93.6544514  66.2119770  40.5427074  92.3203373  66.6021776
  62.8723288  12.9561591  79.2975235  62.6380062  13.8739347  79.4354057
  63.2354021  12.6729834  80.1366997   2.6029286  59.7369576  52.7106905
   2.3961467  59.5857000  53.6329699   3.4698480  59.3486500  52.5927973
  91.3860893   2.0751417  81.0219765  91.3413525   1.7201619  80.1341629
  92.3112392   2.2849599  81.1496925  34.1538763  60.1168442  94.5825386
  34.7390389  60.1454306  95.3395081  34.7292876  60.2525473  93.8297272
  33.3017397  99.6377277  74.9509907  33.5622406 100.5056095  74.6425390
  32.8769302  99.8004055  75.7931948  67.4213457  67.9823351  91.0064411
  66.8635035  67.7786112  91.7571354  67.7713919  68.8525438  91.1973190
  34.5456028  12.7665317  88.4382915  34.7921515  12.8550828  89.3589497
  34.5933485  13.6571598  88.0908298  36.8610358  94.6037579  45.3390789
  36.8187189  95.0139427  46.2028980  37.7845311  94.6579170  45.0931978
  21.0711384  85.5820370  46.9381666  21.1633968  86.5217590  46.7811632
  20.8917880  85.5123425  47.8758287  13.4231293  66.1622477   7.9091293
  12.7702808  65.6197500   8.3515292  13.9830124  65.5364084   7.4496847
  38.7515998   3.2520950  86.2413883  39.0218449   3.3912581  87.1490383
  39.5615888   3.3245891  85.7365131 105.4444408  70.0135994  24.1239738
 106.2193489  70.0264645  24.6857405 105.6894398  69.4490385  23.3908415
  42.2173595  88.1761932  88.2648277  41.3889551  87.9213810  87.8585625
  42.8302097  88.2499123  87.5332451 104.5174599  55.5250597  11.1154342
 103.6207104  55.8389282  11.2318134 104.8542309  56.0309982  10.3759444
  23.1880474  54.7416306  39.1807938  22.9847264  55.4834509  39.7505307
  23.1884742  55.1109314  38.2977033  19.3334103  67.8400707  26.2311697
  19.1418505  68.6815071  25.8170247  20.0679326  68.0231619  26.8169928
  90.4824066  18.3738482  18.1246197  91.3338947  18.3454287  18.5609591
  89.8552036  18.1367135  18.8077092  83.5074711   6.0734332  90.6933689
  82.9218578   5.3634453  90.9564400  84.0855980   6.1983448  91.4459705
  64.9133492  21.7958570  55.5089045  65.3144884  21.0991192  54.9894047
  64.2409182  22.1647668  54.9362183   2.7714068  97.6549244  10.1255226
   2.2377527  96.8662071  10.2222896   2.2086081  98.2684422   9.6532053
  54.1893148  10.8305109  86.5067005  54.1819048  11.7570627  86.7468643
  55.0705194  10.6786478  86.1651707  75.4559851  17.7749860  89.5376587
  75.7624340  17.6403344  90.4344273  74.6216297  17.3076308  89.4969559
  23.0232978  36.0674024  11.8724191  23.4584332  36.8027067  12.3039496
  22.0890546  36.2396502  11.9896960  30.1565361  97.8844357  51.4647579
  30.4894090  97.8575611  52.3618126  30.3514218  97.0166683  51.1108732
  96.0700226  55.3842592  12.1074677  95.4902172  54.9496508  12.7329040
  95.8116913  55.0311995  11.2560880  43.9820623   3.3255497  89.5176029
  44.7430611   2.7862692  89.3024445  43.9705276   3.3526862  90.4743481
  40.1923609  71.3784504  67.4851131  39.5651221  71.2660789  66.7708492
  40.6754827  70.5525494  67.5117683  15.8012354  16.2132442   4.9613085
  15.4360306  16.8681467   4.3663627  15.4062450  15.3878009   4.6804899
  91.3394737   6.1320764  90.7230186  90.9209061   6.4480537  91.5237617
  90.6155777   5.8126289  90.1843548  27.7469897  51.3433886  16.5952110
  28.3560061  52.0689869  16.4579666  27.0020175  51.7383909  17.0482254
  26.3960743  90.3551197  86.7564106  25.4661202  90.1322651  86.7145443
  26.4786601  90.8910561  87.5451946  35.4742813  97.5035477  61.5526104
  35.2575827  98.4357262  61.5344048  34.9683237  97.1259403  60.8331347
   7.7648842  94.4050026  77.0306826   6.8199301  94.3256283  77.1610355
   7.8924757  95.3106785  76.7483568  12.9494345  84.1358280   7.8489184
  12.1692467  84.3939877   8.3397245  13.2532275  83.3390808   8.2838088
  27.0391107  30.2669406   0.8635199  27.9191494  30.4516387   1.1916217
  27.1811104  29.8967004  -0.0076797   7.7284807  51.7164755  22.2226906
   8.3273160  52.2188711  22.7751613   7.1126437  51.3179541  22.8376365
  60.2957630   2.0816347  59.4338512  59.5263386   1.5854907  59.1544628
  59.9763870   2.6397285  60.1429081  58.2785320  98.0749607  78.8904667
  58.7161446  97.4996185  78.2630014  57.3890972  97.7270699  78.9545202
  51.5778160 102.6809311  78.8928509  51.3396931 102.0597076  78.2046556
  50.8087444 103.2434177  78.9843464  77.1195412 108.3335400  90.0274563
  76.1882877 108.1743813  89.8735905  77.5059652 107.4595451  90.0827026
  44.6732616  69.1268778  68.4847689  45.4411077  68.7562656  68.0496979
  45.0344372  69.6939516  69.1661024  13.4626758 102.1372128  80.2364826
  13.3814228 102.8671837  79.6226597  13.7252617 102.5459194  81.0612488
   8.4074813 107.2790051  88.1037617   9.1298676 107.4140263  88.7170792
   8.2198083 106.3419151  88.1573105  13.1035006  41.8764734   9.6784091
  12.2726834  41.8233156   9.2060226  12.8981483  42.3760033  10.4686832
   0.6945439 101.7451859  78.5002375  -0.0371285 101.3660431  78.9872026
   0.8842227 102.5664520  78.9538622  91.6062641  25.8754063  76.4314508
  92.4011040  25.6332421  76.9066572  91.4572716  26.7916155  76.6651106
 103.6335468  72.9510593  63.7887239 102.7750015  73.3338690  63.9692211
 104.2424488  73.4699917  64.3142509  27.3163581  35.1760554   7.9434884
  28.0602407  35.4595590   7.4119824  26.5739560  35.1826715   7.3393142
  25.7629275 101.6501904  72.6024103  25.9216428 102.5803375  72.7632618
  25.3721166 101.3298225  73.4153414  30.4276231 109.3219017  92.4888802
  30.5550054 109.1866760  91.5498829  29.6806768 109.9177685  92.5458908
 112.0219994 102.4279022  91.6723347 111.9275093 102.2077560  92.5990772
 111.1493683 102.7159405  91.4043999  60.5315447 104.1567898  66.8888140
  61.0538340 103.5391426  66.3769960  61.1000824 104.9192333  66.9968271
  24.3295288  56.9217157  14.6181679  25.0276208  57.1010160  15.2480495
  23.7627268  57.6917410  14.6631825 110.1105595  40.9916687  14.9963844
 110.1455498  40.2392673  14.4057071 111.0124016  41.1017799  15.2976811
  78.8265800  95.8645821  70.5379677  79.5372152  95.5342388  69.9883270
  78.2996035  95.0911045  70.7386255   8.9555603  61.3858175   8.6314529
   9.0558654  61.1374331   9.5504069   8.0693734  61.7432404   8.5753095
  68.8678122  78.9930391  53.1880808  68.5321140  79.8888540  53.1555986
  69.1300297  78.8027191  52.2873831  73.0739307  88.0111408  89.0604973
  72.3859882  88.6611938  89.2033195  73.3275032  88.1279659  88.1449223
   5.9166187  17.6584244  56.5593672   6.5713400  18.3083272  56.8147039
   5.2552909  17.7005148  57.2500944 114.5216084  29.5798087  90.8445263
 113.6304760  29.8929715  90.9995747 114.7596836  29.9467301  89.9930954
  15.8644187  29.1027093  89.0359497  14.9852002  29.2686558  89.3760490
  16.2890005  29.9605799  89.0408897  82.7367020   7.4619311  62.4188328
  82.9115772   6.5219873  62.3723888  82.3362637   7.5888401  63.2789373
  88.2505989  38.5414076  75.2546263  87.6294613  38.0244517  74.7416115
  88.8556957  38.9013743  74.6061563  54.4216108 107.3311043   4.0113613
  53.8385153 107.9101562   4.5022085  55.0794506 107.9161453   3.6355850
  28.1492591  57.6080227  77.1563578  28.8825321  57.7601957  76.5602160
  28.5443115  57.6133490  78.0282164   9.4713181  53.9963770  72.7973795
   9.0601647  54.8600483  72.8328848   9.9115860  53.9057779  73.6424780
   4.2779014  43.8687468  93.0285168   5.1096112  43.7392807  92.5727463
   4.3895087  44.6937847  93.5008430  59.7339869  97.5856972  30.9538293
  59.3734360  98.4175587  31.2608147  59.3054867  96.9240093  31.4967752
  63.1020927  93.4650517  27.6247072  62.4621630  94.0091038  27.1656561
  63.1851768  93.8698864  28.4880972  13.5729218  39.2132998  73.8365173
  13.1859851  39.2513275  72.9618359  14.5067215  39.3663311  73.6921883
  22.4559402 100.9731674   4.9814871  22.8849196 100.5879211   5.7455522
  22.6539087 100.3691959   4.2657620  24.5117521  10.0196457  50.6591702
  24.6884561   9.0833068  50.7501507  25.0671339  10.2985644  49.9311686
   8.1648123  26.8949342  73.9972925   7.8881967  27.3699856  74.7809029
   8.1720942  27.5569344  73.3059645  96.6150761   1.4916955   2.6106784
  96.7560577   2.4383399   2.6255211  95.9255600   1.3624123   1.9594608
   0.6344758  52.5669098  77.3580599   1.1495267  53.2462549  77.7933025
   0.4935513  52.9032803  76.4730597  22.5553632  40.7741261  87.5550365
  22.5132799  41.1797714  88.4210014  22.4669266  39.8363447  87.7252769
  18.5968173  35.0969243  82.8695774  18.6242509  36.0510826  82.9407501
  19.4818151  34.8140335  83.0997562  29.5670795 109.4481087  38.9902830
  29.8384976 109.7781086  38.1337428  28.6321497 109.6476173  39.0385532
  52.5792933 106.4345264  18.9121139  51.9579411 106.2026405  19.6023202
  52.7556276 107.3649883  19.0512943 112.2526360  33.4063959  30.5190778
 111.6268158  34.1060925  30.3319740 111.7524815  32.7670407  31.0263324
  88.0507183  31.0008883  94.6673393  88.1097126  30.8424354  95.6094933
  87.4312210  31.7258883  94.5847225  59.9689770  26.0821724   2.9033846
  60.0579739  25.6508613   2.0535126  59.8695612  25.3633118   3.5275549
  48.9496565  98.7726498   9.3437499  49.4982719  99.5305538   9.1416717
  49.0924883  98.1717873   8.6124563  14.4653392  48.7678623  81.6168118
  14.6904624  49.5015335  81.0447216  15.1745558  48.1379080  81.4887619
  54.9764299  76.2982512   9.1950190  55.5135679  76.7853737   9.8198593
  55.5978966  75.7368088   8.7315667 115.2036095  42.5731707  89.5613575
 115.8204079  43.0239153  88.9846325 114.3933868  42.5241280  89.0540409
  13.2078040  27.4438691  78.0943108  13.6889112  28.1513476  78.5235405
  13.2150853  26.7288160  78.7306118  10.3821093  87.6498461  95.2371910
   9.7359758  88.0867625  94.6823466  11.2169748  87.7940846  94.7917437
  96.7305756  10.7469189  16.7934024  97.2890949  10.6598806  17.5658751
  96.9761944  11.5907371  16.4140987  40.1684475  87.1391392  25.3653979
  40.2017546  86.2206078  25.6326461  39.7263098  87.1257210  24.5165372
 113.3370686  58.9627123  65.3780460 113.6957932  59.5221186  66.0669708
 112.5605965  59.4301081  65.0700521  99.5666885  34.3523550  24.2379498
  99.0013504  33.7341976  23.7747955  99.2471313  34.3395090  25.1401424
  12.9132664  70.9379578   6.8319458  13.7933266  71.3073540   6.7593330
  12.7069509  70.6350374   5.9476924 102.3970795  37.4336338  88.0181789
 103.3313656  37.4755788  88.2220745 101.9630146  37.5032520  88.8684559
  31.9897556  25.7689404  58.5898066  31.5942812  24.9032116  58.4881020
  32.5986671  25.8419418  57.8548670   3.4020138   9.2732400  93.6583328
   3.1343505   8.4830248  94.1275311   2.5792369   9.6975291  93.4149170
  84.6524143   2.2801507   9.6541679  84.8739052   1.3496912   9.6918118
  85.4628181   2.7291921   9.8946494  56.6191435  83.0406666  12.8751004
  57.1371603  82.3420620  12.4753022  55.9921837  83.2920551  12.1969032
   5.4884553  56.4622593  89.5598888   5.5890960  55.5310392  89.3625832
   4.5416638  56.6005230  89.5863438 102.5720406  38.6216164  74.2813635
 101.7429161  38.4634352  73.8299513 102.7732468  37.7902579  74.7110033
   8.8170409  50.8146000  57.6198864   8.2157707  51.3940620  57.1519899
   9.3389261  50.4038715  56.9305611  40.7231998 106.0558319  20.4067183
  41.1361933 106.5085220  19.6713722  39.8526144 105.8213997  20.0852251
  73.0397749   9.7518045  47.6357126  72.3818588  10.4371059  47.7529335
  72.8455925   9.1134506  48.3220291  99.3543434  50.9485483  84.1494274
  98.5479641  50.4547977  84.2983723 100.0543690  50.3087139  84.2790985
  19.7389746  52.6392841  54.8478603  20.1751685  52.7826118  55.6877518
  18.9086044  52.2220850  55.0773382  57.6810169   0.8230325  10.6142569
  58.4606409   1.3659586  10.4974008  57.2084045   0.9010522   9.7855353
  84.2009449  78.8814116  49.8882532  84.6155930  78.7568235  49.0345716
  84.9047470  78.7343454  50.5201244  66.4491940 104.8104668   5.3681612
  65.8564329 105.4698181   5.7288879  66.2902784 104.8361111   4.4245940
 100.5236149  51.9539928  88.8485622  99.9305058  51.2971878  88.4837914
 100.0223064  52.7690649  88.8245869  55.7104874  94.0851879   4.5872137
  55.5696774  94.5619106   3.7692034  55.8700800  94.7685146   5.2382368
  21.9957924  51.7111206  72.0376921  22.0837879  52.2876453  71.2786722
  21.0568047  51.5350437  72.0971346  45.4551172  88.5627937  28.1778312
  44.6216583  88.3302402  28.5870934  45.2107191  89.1063881  27.4288273
   0.2368644  23.2717681  61.8834734   0.5645882  23.5468388  61.0272264
   1.0225356  23.1801987  62.4225187   6.8981624  41.4437819  52.0202971
   6.4626759  40.6280804  51.7728806   6.4105690  42.1254253  51.5578604
  12.3234034  45.9555197  66.8098021  12.0460701  45.6784296  67.6830339
  12.6708281  45.1605701  66.4053488  21.9136953  20.6104589  84.2108822
  22.0476770  20.3393507  83.3027077  20.9733915  20.5054855  84.3559456
  57.4359798 106.6081429   0.7803749  57.5770473 106.5554905  -0.1649081
  57.7080154 107.4956226   1.0140662  64.7095653  82.1762739   0.2250827
  64.3206856  83.0281435   0.0267852  65.3920695  82.3684012   0.8681262
  75.3258801  11.6100013   8.2435185  74.7373247  10.8868062   8.0271399
  75.8814812  11.7062724   7.4700379  15.4445410  29.6802855  82.6717186
  15.3749311  30.5114985  82.2021770  16.3342965  29.6783519  83.0246544
  96.0241032   2.3445944  20.2952600  95.9345531   2.2787550  19.3445361
  95.2641964   2.8563416  20.5725431  40.1582909 109.1658878   2.7873310
  40.5128002 110.0413322   2.6319283  40.9223747 108.5899353   2.7610880
   8.0171132  73.4006929  85.8716106   8.9298224  73.4304333  86.1585045
   7.8723407  72.4864483  85.6278419  55.0358772 105.0989628  29.0299606
  55.0544834 106.0305882  28.8109517  54.1057920 104.8939037  29.1254950
  89.5495224  32.8732896  72.5271606  89.9161148  32.3191690  71.8381071
  89.6246433  33.7636399  72.1838474 105.7419777   3.1825188  67.6515770
 104.8781776   3.5937178  67.6830482 106.3452625   3.9054579  67.4793959
 101.3331223  31.4034915  88.5066891 101.0285473  32.2163129  88.1032085
 101.7810345  30.9384918  87.8000164 100.1651669  62.1016979  63.0421877
 100.2160263  62.9059887  62.5256968  99.2575932  62.0682144  63.3445454
 111.1833096  32.0304060  53.6991644 111.9039249  31.6581535  54.2074585
 111.5933704  32.7106023  53.1649160 109.3073463  54.1652775  91.2052727
 108.4597301  54.0930605  90.7664490 109.7457123  54.8913193  90.7614994
  46.5338612 102.3062038  25.0021148  46.0704422 101.8599415  25.7108641
  47.4606705 102.1702766  25.1990557  10.8819401  38.1788659  80.4072285
  10.4480696  38.8655210  79.9007702  11.1943376  38.6235547  81.1951923
  89.1353989  57.0915985  61.4574575  88.6800194  57.0625019  60.6160164
  88.5106087  57.5042486  62.0537758   7.5754493  50.3238344  94.5599270
   8.3262902  50.6041193  95.0832844   6.8228740  50.7433939  94.9768543
  15.3170498  94.9600874   0.4824126  14.8774822  95.7923780   0.3083480
  16.1307533  95.2063738   0.9222472  94.9214935  20.8492470  10.9383965
  95.3954792  20.6912971  11.7548645  94.0097046  20.9591460  11.2081861
   8.6363012  17.5778866  79.7658730   8.7721443  18.0719769  80.5743599
   8.5015005  18.2477748  79.0955687  31.8565607  26.9845128  86.5468407
  31.4815426  26.1512899  86.2616539  31.5720963  27.6143646  85.8845711
  13.8677835  97.7378273  89.0854263  13.2350266  97.4255371  89.7322083
  13.3314729  98.1205559  88.3910751 115.0963116  41.7742872  83.3641338
 115.5872345  41.7113829  82.5448227 114.2667770  41.3332796  83.1807613
 112.6823044  44.6860409  84.8594475 111.8878746  44.7595978  84.3305874
 112.3722553  44.4012403  85.7190895  18.5033584  54.2649508  68.1129694
  19.1768086  54.9449062  68.1318760  18.6462438  53.8093281  67.2833729
   0.0765255  32.0050359  74.7244978   0.6810702  31.3368630  75.0474548
  -0.7307291  31.5265465  74.5357656  39.9632192  76.0505867  16.6822922
  40.7164383  76.0719585  17.2725773  39.4607830  75.2856350  16.9627154
  77.0378828 103.6710930  58.5404110  76.6841984 102.8883553  58.9628553
  77.1195745 103.4291935  57.6178885   3.9472303  10.4540706  13.7092185
   3.8281807  11.3957250  13.5853434   3.1397632  10.1643801  14.1338456
  55.7650042  96.4868546  20.9282947  55.5451012  95.5553150  20.9176755
  56.1050749  96.6426468  21.8093824 105.0783539  24.5908332  93.3632946
 105.0624466  23.6468220  93.2057381 105.0696564  24.6747041  94.3167686
  35.8169413  80.3260612   7.5617194  35.9515405  80.8835125   8.3281153
  36.6990232  80.1567173   7.2308356 107.2678375  25.7770252  89.1628647
 107.1118450  26.4956665  89.7756100 106.4451694  25.2877879  89.1530609
   5.9612000  37.1414280  73.2710552   5.3570747  37.8592682  73.4607077
   6.8233961  37.5559855  73.2395601 104.5368958  65.5101204  85.5861664
 104.6406937  64.6098661  85.2779388 103.6508846  65.5390024  85.9472370
   9.0663457  26.0527349  50.5305290   8.3567768  26.1691618  51.1623430
   9.0576297  26.8559027  50.0098753  75.2652645   6.5161145   5.1015955
  74.5241880   5.9402460   5.2897924  75.8145905   6.0113204   4.5018858
 115.4010010  93.6022758   5.4744393 115.7985401  92.7447510   5.3233051
 114.4586182  93.4350014   5.4616851  42.4623108  77.4333382   5.9027165
  41.8705797  76.7101288   5.6952173  42.2796965  77.6365423   6.8200999
  90.4225540  28.6991191  94.3107033  90.1323318  29.5675015  94.0315723
  91.1966038  28.8666153  94.8483181  93.7008953   0.0200588  40.4133129
  94.1760921  -0.2366022  39.6230340  93.6952305   0.9769394  40.3892422
  29.6027565  44.4472218  64.1933441  30.2441216  43.8135576  64.5148277
  29.2591143  44.0541744  63.3910608  30.6561685  33.7305856  59.1062689
  30.8165383  34.1003227  58.2380486  29.7040987  33.6466670  59.1587353
  57.6482821  33.6223388   3.2254124  58.3714247  33.4604502   3.8312882
  57.3984146  32.7527785   2.9129013  18.6611426  24.2997813  62.6726103
  19.6077478  24.3572640  62.8024817  18.5613525  23.9830565  61.7748547
  74.5051289  94.3128395  14.6203828  73.5991001  94.0045452  14.6030295
  74.9154282  93.8110447  15.3247178  36.8725514  41.7114592  90.9505939
  36.5046239  42.4828815  91.3816071  37.0024204  41.0805941  91.6586781
  97.4172401  47.2405624  87.9157352  96.5610504  47.6589727  87.8257084
  97.8633022  47.4276972  87.0897484  13.9134800  80.9082699  59.1586637
  13.9066029  81.8118191  58.8427734  13.2466400  80.4658508  58.6334801
   1.3680510  72.8367519  91.1358166   0.8647904  73.6508322  91.1510086
   2.2822157  73.1204176  91.1275673 107.9775143  88.6022854  70.3062868
 108.9121723  88.7631989  70.4357243 107.5654888  89.4539738  70.4515362
 108.4124184  56.8293333  55.4305553 109.0782738  56.1460352  55.3532934
 107.6433086  56.4649105  54.9924994  17.2802019  90.5698013  73.4434175
  17.2514665  90.5611515  74.4001436  16.4895594  91.0430717  73.1843185
  76.4764738   2.6792872  22.7965045  76.5598011   2.2805904  21.9302893
  77.0360041   2.1455489  23.3606672  29.8570585  59.8251963  77.9181004
  30.2220607  59.6067476  77.0606089  30.0398731  59.0569258  78.4590006
  22.1130753  26.2233949  66.5070248  21.4836097  26.6810727  67.0642805
  22.5901413  25.6491709  67.1061087   1.4721052  60.9369087  85.7820892
   1.7124349  60.2548933  85.1549244   0.9761555  61.5726519  85.2662468
  52.4228096  53.5014534  89.4877911  52.5683308  54.1412878  88.7908936
  51.8356323  52.8531742  89.0989590  81.4405823  65.5860138  63.6522865
  80.6580639  65.6712389  64.1969347  82.1699142  65.6562328  64.2682219
  31.3565159  47.9614401  63.5071373  31.6539216  47.0759678  63.2980490
  31.2077451  48.3715677  62.6551390  74.5342350   0.5768029   3.0830863
  75.0571108   0.8093645   3.8503852  74.5025873   1.3794865   2.5625777
   7.9778975  76.9045639  90.3008366   7.7805066  77.8282452  90.1456356
   7.1248835  76.4707375  90.2810001  81.5891647   9.3268055  23.6258626
  81.3496876   9.4873035  22.7131057  80.7561111   9.1574776  24.0658283
  86.0600758  71.7875051  58.3542919  86.6414642  72.4202108  58.7760878
  86.5828037  71.4199066  57.6416492  48.9424086  64.2212868  93.4548855
  49.5785046  63.5517550  93.7065601  49.3431139  64.6629524  92.7061558
   3.6557814  48.6486006  58.2570648   2.8268766  48.8406706  58.6955357
   3.6457366  47.6998138  58.1308270  89.0962601  13.9025247  34.4361281
  88.2997894  14.4333386  34.4262481  89.2165470  13.6341536  33.5252261
  33.3205509  78.6362219  91.2751007  33.8186336  79.0387201  90.5636597
  32.4796891  79.0935230  91.2673759  51.9236359  99.0249382   0.4539932
  52.2324714  99.9219261   0.5814994  51.0261628  99.1235386   0.1361049
  12.1037960  48.8176298  82.9972935  11.9157577  48.9691782  83.9235306
  13.0281925  48.5699415  82.9779625  19.9179268  45.0450134  71.0635996
  19.8805046  44.6967030  70.1728058  20.6839776  45.6189442  71.0643721
  27.2209430  57.5531578  87.0794201  27.3200488  57.8424406  86.1723804
  27.6296401  58.2462645  87.5978851   6.0965860  54.1589165  55.0601912
   5.2259856  54.4207954  54.7606754   6.6921991  54.7738552  54.6320200
  12.5688136  42.6482201  71.0651922  12.3854792  41.8339062  71.5337229
  12.9674053  43.2183313  71.7227077  82.7965736   6.7534918  24.5097160
  83.7438583   6.8779457  24.5678902  82.4298286   7.6194298  24.6882629
  36.8946052  53.5532713  70.1092720  36.7295814  52.8711033  70.7601547
  36.0632944  53.6465406  69.6440268  21.3403463  68.4827948  71.3533640
  22.2223306  68.8331556  71.4782047  21.2524176  67.8094101  72.0279360
  26.2249112  76.9913292  89.8656273  26.4011478  76.5906763  90.7168961
  25.2817726  76.8849516  89.7415066  68.7069416 104.7587681   7.2442007
  69.2555523 104.2539883   6.6438234  67.9628372 105.0384331   6.7109776
  40.5688667  44.5655918  90.8449364  41.1886024  45.1485491  91.2834835
  39.7115874  44.8366594  91.1732960  24.8665929  66.9769859  77.4921846
  25.4457760  66.9601250  78.2540894  24.8439145  67.8969765  77.2288752
  60.0670719  89.4753170   0.0498874  60.6219101  89.5286751   0.8280501
  59.5574045  88.6745834   0.1735763   3.1340054  67.5050688  89.5017624
   3.3279881  67.1820545  88.6218357   3.0185521  66.7135096  90.0274372
  77.7801037  67.6116133  92.9086971  77.4460268  67.2392035  92.0926476
  77.2778606  68.4177828  93.0273438  56.9805574 108.9985561   8.3737695
  56.6061878 108.1460953   8.1515563  56.2381983 109.5093632   8.6965984
  36.8865299  94.7629356  27.8720474  37.4339223  95.4946995  28.1568480
  37.2043872  94.5536995  26.9937444  92.9211998  65.6698132  84.8467636
  93.6283970  65.3087664  85.3813171  93.3464146  65.9259939  84.0283585
 100.7356930  63.4689999  75.1883364 101.2369061  64.0507078  75.7598591
 100.8811760  62.5946045  75.5495882  18.6001217  69.6745253  67.8755665
  19.1202772  69.9663162  68.6242533  18.2357872  70.4799986  67.5085497
   4.8130050  14.7825098   0.5695257   3.9500070  14.5261085   0.8946779
   5.4276437  14.4085240   1.2008618  20.7703161  12.4076533  45.2651072
  20.4916120  13.1987894  45.7262564  20.0946665  11.7610002  45.4689932
  17.8054607  74.3859673  65.7738304  17.4434626  74.9737072  66.4369678
  18.0626059  74.9643850  65.0558233  56.9023943  12.0567095  22.8488898
  57.7691889  12.0598137  22.4428201  56.6208220  12.9710829  22.8194261
  15.0862026  58.7112474  86.1298466  14.3817496  58.2671547  86.6018295
  14.7519720  59.5950460  85.9768295  41.2088346  71.4212513   9.9405456
  40.7784462  72.1691608   9.5262599  41.4141846  71.7230368  10.8254135
  94.8980427  27.7105951  88.4790039  94.1823387  28.0978847  87.9750156
  94.7203350  27.9676247  89.3837643   9.6362376  78.2314348  64.4995689
   8.9328414  78.8651323  64.3585348   9.6401495  78.0844975  65.4454136
  12.2229898 101.3221169  89.5550632  11.6115618 101.0019207  88.8918400
  11.9615769 100.8726501  90.3587341  64.6153376   0.5311669  21.7084432
  65.1275036   1.3164796  21.9013500  64.6871254  -0.0020610  22.5001168
  42.9768610  84.3303394  11.3238275  42.9334641  85.0817204  10.7324088
  42.1095800  84.2925358  11.7270911  38.8289547  93.9451694  19.3431532
  38.3243585  94.7547531  19.2645001  38.2543468  93.3507061  19.8255193
  39.8579597  51.9844151  74.4554567  39.5039177  52.6311827  73.8450670
  39.7546792  52.3871136  75.3176594  52.7114630  89.0568733  27.6152754
  53.2227278  89.2880917  26.8397880  53.3175373  88.5559082  28.1611133
  21.2466574  56.9826412  81.2464428  21.8540049  56.2841415  81.0025978
  21.6445708  57.3878574  82.0169640  86.6235065  76.0101557  76.2544394
  86.2134075  75.5092573  76.9595337  86.8434525  76.8513298  76.6547871
  50.7364607  58.3418989   1.0451394  50.8912420  59.2810154   0.9434638
  50.5441713  58.0335903   0.1595874  88.0918598  75.4383230  36.5578604
  88.4696198  75.7628727  37.3752952  88.8119888  74.9772787  36.1276531
   4.1258633  35.3687191  65.5671835   3.8435739  34.6125031  66.0816526
   3.7712619  36.1237073  66.0367393 113.6856842  78.8030577  93.7237835
 113.6601830  78.5662031  94.6508694 114.6173000  78.8106441  93.5040569
  12.7695930  66.0350084  20.7483816  13.3916128  66.5845871  21.2251258
  13.2383358  65.2131319  20.6033516  99.6883774  73.2179546  76.8150806
  99.7076225  74.1523695  77.0217896 100.3619480  72.8344774  77.3767567
  60.2535534  24.0163422   0.8289364  60.7609129  23.3159423   1.2391260
  59.3569183  23.8709712   1.1308408 106.8609619  59.4446754  64.6976805
 105.9779739  59.2107534  64.4116020 106.7273617  60.1357603  65.3463602
  15.8749223  67.3624849  78.9646578  16.5934193  67.0317888  78.4255552
  16.1873055  67.2675991  79.8644638  72.1808004  19.6539497   1.9815251
  71.8515587  19.3514979   2.8279021  72.4381065  20.5629563   2.1355766
  14.8470402  36.3941813  61.7363071  14.9292815  36.5578079  60.7967854
  14.8453307  37.2657776  62.1319723  21.7431998  51.5537071  50.2012014
  22.5038624  51.0238123  50.4396009  21.2194610  51.5945244  51.0013628
  96.2889099  52.6325560  66.5423298  95.3425121  52.5306129  66.6432333
  96.6519928  52.3372412  67.3773098   5.3842700  30.7534933  46.7121840
   4.7203749  30.1838565  46.3236094   6.0991508  30.7569909  46.0756588
 112.1863937  38.6068821  69.2369843 111.7092896  37.7815914  69.1503716
 111.5221214  39.2828107  69.1024637  11.1782241  42.2825623  26.3959694
  10.4024220  42.7849770  26.6448569  11.8173671  42.9442072  26.1314726
  13.7500274  62.1707582  39.7310567  12.8543198  62.3275089  40.0300026
  14.1508865  63.0397129  39.7095919 106.3169765  29.3336082  69.7616386
 105.8841896  28.8084364  70.4347801 107.2316837  29.0530109  69.7902393
  99.9477196  58.2466030  89.7123909  99.9174786  59.0649939  89.2168617
  99.9595261  57.5619364  89.0435696  19.7759497  62.5204229  74.2822075
  18.9904094  62.9134274  74.6626091  19.8263168  62.8907156  73.4009695
  91.1210632  20.9689093   5.4958165  90.8437634  20.6699848   6.3618296
  91.6974545  20.2748132   5.1760650 104.0787315  72.7538729  46.6208315
 104.7091579  72.4407291  47.2694731 103.5949516  73.4459209  47.0716715
  73.4170341  31.9604254   7.4425364  73.3638525  31.6810322   6.5285653
  73.8315248  31.2251759   7.8940195  15.3302038  25.1986980  11.2795115
  16.0901678  24.6590257  11.0616994  15.0529742  25.5709815  10.4423857
  87.2786713  10.5683315  42.2434855  87.9693508  10.2829683  42.8416061
  87.7474689  10.9303856  41.4915705  29.2075729  50.4021502  63.1878376
  29.0067077  50.1460171  64.0879917  29.8531461  51.1032724  63.2767057
 113.7529945  76.9504547  78.1111431 112.9696274  76.9674110  78.6609364
 113.7558556  77.8009653  77.6719904  92.7933311  10.3853059  21.0018158
  93.0978680  11.2678933  20.7908010  92.1630287  10.1780808  20.3118825
  13.3060193 104.8394012  79.4085598  14.1304111 104.7427177  78.9318419
  13.5029113 105.4688358  80.1023006  -0.0188898 100.0325012  91.6728401
   0.9310888 100.0615311  91.5591335  -0.2798114  99.1927052  91.2948322
  52.4582863  73.9622498  74.1128969  52.6407623  74.7518349  74.6222973
  51.9804001  74.2772961  73.3456945  78.1962109  49.7012234  32.0575666
  79.0604258  50.0064707  32.3335910  78.3746910  48.9252424  31.5263176
  65.7981348  37.5824428  27.2074556  66.5299892  37.8954101  27.7391243
  65.2514315  37.0892596  27.8191090  54.5423031 106.3869476   0.8901872
  54.1083622 105.8394718   1.5445560  55.4426956 106.4680195   1.2047520
 115.4790688  46.2409306  88.4178162 115.2310944  46.7719746  87.6610279
 115.7328224  45.3965759  88.0451298  15.9990549  53.1972599  75.9820461
  16.6786230  52.5945950  76.2840652  16.1050141  53.2205534  75.0310135
  25.5424094  52.6416969  61.7007685  26.0652781  51.9174910  62.0448160
  24.6434116  52.3131132  61.7090130 100.1924133  52.0520878  55.3609133
 100.7735252  51.8733549  56.1002302  99.7208595  52.8459024  55.6133652
   6.8992370  45.5113411  64.3136978   6.4568335  44.7153330  64.6084499
   7.7087975  45.5382729  64.8237133  25.1174712  49.3726921  92.4562454
  26.0234165  49.0832186  92.5644398  25.0799465  50.2159500  92.9076195
  98.6532402   3.7988958   0.4232072  98.2201099   3.2413831  -0.2231737
  97.9564953   4.3636143   0.7576894   3.6129433  32.2388744  32.8192258
   3.7923035  33.0272698  32.3068833   2.6604056  32.2254825  32.9126287
 104.3422127  51.8589592  75.5951881 104.5132160  51.1523676  74.9725199
 104.3541050  52.6548290  75.0635052  12.2698283  65.6121063  87.6107502
  11.9092429  66.2380886  86.9827747  11.7481613  65.7401609  88.4030247
  21.2016010  89.7635269  80.2525902  22.1554685  89.6971893  80.2968884
  20.9123135  89.6657658  81.1597729   9.9402726  86.2941074  85.9883976
   9.0874660  86.4778900  86.3823223   9.8352438  85.4348469  85.5799103
  88.5568619   2.1454653  88.5312366  87.8743839   2.5845248  88.0236149
  89.0594959   1.6537306  87.8817749  96.8959904  16.6480744   8.1214905
  97.5777817  16.5769267   8.7895608  96.3616085  17.3907423   8.4027731
  31.0559607  79.4511509  86.9945717  31.8223262  79.5292091  86.4264011
  31.0358119  80.2735806  87.4838924  81.9475079  90.8514214   4.2777890
  81.2888241  91.2641811   3.7192148  82.7847385  91.1210155   3.9001667
  38.9424562  62.3342705  78.2871294  39.5118785  61.6495848  78.6381197
  38.0559254  61.9950008  78.4103727   0.7263270  36.6118097  63.0598974
   0.0882411  35.9022403  63.1346512   1.4397797  36.2387872  62.5421429
 113.0909157  59.1581392  81.3003540 112.9767609  58.2157612  81.4233303
 113.4951687  59.2397356  80.4365540   8.1751049  59.9335814  84.9254131
   8.0582345  60.5248976  85.6689930   8.9433688  59.4103432  85.1539326
   5.2659667  65.4474783  54.6221209   4.4497398  64.9501610  54.6739054
   5.9096807  64.8986101  55.0700092  18.3535278  44.9578285  66.0177422
  18.4767568  45.8310127  65.6454659  18.9030290  44.9518633  66.8014812
  73.2450771 105.4597378  13.7386882  73.3790255 104.5476532  13.4810317
  73.7530184 105.5582047  14.5440030  84.0764046  82.0025253  76.3822269
  83.2118511  82.1908951  76.7473030  83.9585686  81.1862850  75.8963251
 105.1009274  58.6403131  85.6135845 104.1816330  58.7110758  85.8707142
 105.1322746  57.8702068  85.0459671   8.8319415  77.6460552  61.4261580
   9.4843203  77.1468639  60.9347916   9.2042166  77.7275372  62.3042250
  86.3143253  30.7541585   3.6975619  86.6612816  30.0695205   3.1256166
  86.1525822  31.4950228   3.1134477  59.5572567  17.3507690  14.1655254
  59.3169975  17.6014912  15.0575149  58.7818289  17.5541449  13.6424756
 103.8744259  68.3391523  57.3952961 103.8130188  67.8891945  56.5526819
 103.4111881  67.7667189  58.0068207  71.5558958  15.8948123   5.1410162
  71.0187387  16.0969913   5.9070557  71.4113235  16.6306543   4.5461494
  87.4039173   8.4885758  13.8151705  87.5285816   7.8061891  14.4747472
  86.6168785   8.2216990  13.3402264  35.5025887  96.6414070  12.0935500
  36.2883329  97.1552086  11.9068837  35.8351731  95.7923985  12.3847747
  33.1779981  12.2053111  19.5968974  33.9900708  12.1856570  19.0905547
  33.4135652  11.8231869  20.4423094  30.5093431  59.3968391  85.2336025
  30.7628512  59.1944838  84.3330383  30.8722830  58.6784887  85.7517529
 102.8010178  30.6494784  78.5781097 102.5362778  29.7439456  78.4163857
 102.9495335  31.0149908  77.7059984 102.6703262  51.7562819  90.6772137
 101.9692993  51.8779755  90.0369072 102.6518250  50.8204937  90.8776665
  87.3623466  75.3822231  92.2560406  86.6380501  74.8123884  92.5147438
  87.2004318  75.5706882  91.3316536  74.4648838  16.4992476  10.1656759
  75.2708197  16.0783029  10.4648578  74.3985891  16.2599254   9.2412513
  91.1450958  31.5533018  17.1625793  91.7770958  30.8444428  17.2822618
  91.5276146  32.2965169  17.6289916 115.1763725  59.7609711  63.4657478
 114.5278549  59.6805382  62.7663231 114.8018646  59.2701340  64.1972256
  26.4323592  82.1041775  87.0391560  27.2711110  82.2769356  86.6115093
  26.6677880  81.8218231  87.9229546   9.5582491  32.9042244  73.3445072
  10.2493143  33.2239294  73.9245510  10.0166619  32.3640776  72.7008247
  57.4923801  96.3768673  11.2790239  56.7355156  96.3865089  11.8649364
  57.9667234  97.1817875  11.4872313  34.0466213  98.5599709   7.4869007
  33.2456422  99.0487766   7.6759416  33.8102484  97.9851532   6.7589241
 107.8804111  61.6904020  68.8575268 107.7691078  61.8346977  67.9178381
 108.7606239  62.0152473  69.0471220 100.7506466  58.0378342  78.1565857
 100.2961922  58.8801765  78.1692219 101.6551685  58.2502127  78.3867407
   2.2029552  24.1838217  86.0638142   2.4737434  23.2673526  86.0091591
   1.4272620  24.1713452  86.6245079  24.5961380  63.0132341  56.7160940
  23.9902759  63.5475540  56.2026024  25.3653836  62.9168653  56.1546612
 101.6000271   1.3331218   4.5380664 101.6320515   0.3866840   4.3985614
 101.2351513   1.6828321   3.7251705  37.6465154  42.3650503  78.2124424
  37.9118752  43.0590725  77.6090002  36.7967963  42.6510954  78.5476875
  35.0981927  87.1771526   4.0226740  35.4965377  87.8820324   4.5332688
  34.1674662  87.3988342   3.9937538  31.5727878  40.4897261  93.9301395
  32.1414185  39.8885798  94.4113064  30.6866789  40.1724911  94.1045284
  32.3811388  41.9061327  68.3660173  31.4866781  42.2463417  68.3868217
  32.3408723  41.1632061  67.7638006   6.1704665  63.6389923  71.6275120
   5.8080184  63.4779453  70.7563496   5.8231169  62.9283571  72.1665668
  51.9318295  95.2917957   3.6298817  51.5597248  95.4684925   2.7658501
  51.4228487  95.8404922   4.2266250  65.2806377   8.4600949  76.2528419
  65.0723124   9.0528113  75.5306768  65.7647514   9.0022838  76.8756580
 102.8462410  78.7288809  85.8368301 102.7807999  79.1056442  86.7143345
 103.5740948  78.1100130  85.8955574  10.8120990  42.7494144  60.0776005
  11.0425568  43.0254459  59.1905117   9.9662298  42.3120880  59.9802113
 115.6406975  21.7524672  79.2693329 116.4949512  21.8295765  78.8444471
 115.2715874  20.9414816  78.9196253  22.9240274  68.2907867  63.9450169
  23.8158822  68.3136129  63.5981655  22.3831582  68.6436558  63.2384920
  89.9565029  49.7311163  45.2665138  89.5035076  49.1502380  45.8777475
  90.7186699  50.0440979  45.7537317  38.5012984 105.7651234  14.1721237
  38.3808470 105.1859188  14.9246097  39.4454288 105.9187603  14.1368401
   3.6555764  75.5630684  31.1557794   2.8105927  75.2255487  30.8586025
   3.4530145  76.4210129  31.5287805  57.3407555  38.0740166   3.0190700
  56.4787340  38.2097769   3.4124130  57.4500561  37.1231985   3.0039263
  81.7085266   4.9617371  67.9980326  81.0245895   5.5326438  67.6480007
  81.9221115   4.3724757  67.2745800  40.5196095 102.6710796   8.8615370
  40.7167578 102.0878887   8.1285638  39.6916509 102.3431778   9.2125243
 109.8389816  25.0796032   0.9001072 109.2483044  24.6416664   0.2872919
 109.4973850  25.9713292   0.9662175  69.1604280   1.1711289  18.5870111
  69.1720581   2.1260300  18.6522818  70.0309753   0.9004927  18.8787889
 112.8374767  71.1748648  90.0288868 112.3703480  70.3539276  90.1840878
 113.6637211  70.9078312  89.6260834  25.8875751  78.9387798  71.0497093
  25.8111358  79.6203279  70.3819656  25.8000493  79.4063759  71.8803263
  66.7916250  12.8903556   4.3523520  66.0475636  12.3380029   4.5921713
  67.3195028  12.9403341   5.1492715  36.0188556  99.3498898   9.4444913
  35.0792170  99.3072605   9.2670143  36.4298725  99.2356110   8.5876155
   8.9842236  80.6184196  80.6106758   9.0819579  79.7092009  80.3278446
   8.7296569  80.5568218  81.5313435   4.2536917  69.0620327  73.7379646
   3.7114066  69.7771406  73.4051323   4.6918216  69.4306898  74.5050192
 114.1053963  87.6184845  67.3254824 113.4262466  88.2109165  67.0029783
 114.7360325  87.5635910  66.6074848  12.5034690  82.0915699  67.3305225
  11.9921923  82.7678204  67.7749395  13.1418765  82.5779915  66.8089294
  77.1829414   3.0500209  13.6666846  77.7976322   3.6880088  13.3042467
  77.2822428   3.1337494  14.6150315  20.6913209  25.5548382  94.0848732
  19.9591827  24.9386311  94.1071510  20.7113767  25.9348035  94.9632072
 113.9374828  55.8943176  74.8836422 113.6123085  55.4277945  75.6536102
 113.9975739  55.2226543  74.2043114   3.5247323  85.2835178  89.8578739
   2.9452330  84.7991276  89.2698383   4.3648425  84.8292351  89.7940350
  39.1245747  73.9102650  13.7980950  38.6669207  73.4991169  13.0647838
  38.4716558  73.9480543  14.4970250  30.4093266  73.8563347  66.9532442
  31.2782216  73.4742165  66.8297863  30.4736209  74.3356180  67.7793074
  98.7229919   1.2870483  15.2295280  98.5585308   1.5335926  14.3193638
  97.9102039   0.8700138  15.5153239 111.1428165  49.0882015  89.2900372
 110.2275658  49.2960978  89.1020775 111.6150856  49.9008560  89.1089439
  81.6729927   4.4706619  63.2228184  80.7518291   4.2370728  63.1082439
  81.9972038   4.6100441  62.3330498  77.1651700 108.2464602   3.7490520
  77.1546796 108.0654376   2.8091836  78.0558827 108.0299837   4.0247375
  27.9639983  46.2426472  67.2098303  27.5352788  47.0830441  67.3715782
  28.3181524  46.3210058  66.3240147  97.2506332  82.8294277  92.2806072
  97.2240925  81.9664860  92.6939487  96.7443562  83.3915710  92.8670406
 102.0599461  68.2048130  66.3743496 101.3139820  67.8611898  65.8827257
 101.6870594  68.8927317  66.9256639  20.8278799  87.9542351  78.1777668
  20.9951687  88.5625553  78.8976192  20.2761340  88.4474564  77.5706959
 111.2748814  43.4952354  54.5319462 111.4486122  42.6816320  55.0053406
 110.4160213  43.7769222  54.8469639  27.3211861  63.3941507  71.9473886
  28.0726886  63.1516552  71.4063931  26.7134905  63.8142109  71.3387156
 103.6881161  50.1383543  79.8431921 103.5825920  49.4693518  79.1667843
 103.6962795  50.9659529  79.3623114  10.1321185  63.4489107  63.0276060
  11.0477102  63.4178019  63.3050203  10.0648773  62.7783060  62.3478985
  11.8643987  86.6958237  78.2107687  12.3226213  86.8504715  79.0368128
  12.5634003  86.5732193  77.5684309   4.6314418  23.9309621  64.3047667
   5.4140395  24.2203522  63.8356972   4.3080834  24.7195005  64.7405195
  83.5983276  81.2205029   4.4230053  83.1613159  80.3841782   4.2623633
  83.2399368  81.8094540   3.7589806  96.6240406  14.6041918  11.3701022
  96.3973045  15.3786278  10.8552539  95.7814217  14.2521441  11.6569424
  93.1288624  26.9145513   8.5261172  93.6250496  26.1842728   8.1563574
  93.0935287  27.5613189   7.8213656  86.0907459   0.8618514  22.4167633
  86.3066483   1.6491035  21.9169116  86.8927002   0.3395535  22.3992085
  54.2778683  28.4516573  62.0537281  55.1536274  28.2413483  61.7296171
  54.2309427  28.0266047  62.9100895  49.8384523  91.7957973  12.9720163
  50.4908609  91.1197853  12.7887297  49.1215467  91.6072464  12.3664403
   4.8576036  47.3476791  65.3623724   4.6785384  48.0100584  64.6949768
   5.5571473  46.8127298  64.9872684   8.5542411  43.2561016  72.6725769
   8.0710936  44.0795708  72.6040125   8.4384120  42.8386641  71.8190193
  91.3955784  19.4309628  49.5758343  92.0061493  18.7221420  49.3733549
  91.1311436  19.7708249  48.7209606  91.6845798  45.2676249  93.1356907
  91.8882465  45.5115461  92.2327805  92.4468517  45.5539131  93.6388874
  15.7343519  42.8280783  83.7400818  15.4598475  41.9629955  83.4359169
  15.0411117  43.4175062  83.4430504  40.8636999  68.3180332  73.3939219
  39.9774933  68.1224871  73.0895710  41.3008881  68.6964178  72.6310825
 107.4035263  62.0729923  66.2533665 108.2233429  62.2347593  65.7865095
 106.7466164  62.5658894  65.7616758  36.6671252  50.4782820  82.1451092
  36.3228607  49.8744488  82.8032112  36.0053563  50.4815102  81.4535236
  38.4318781  47.8917408  60.7554102  37.8365517  47.5266552  61.4100313
  38.0013514  47.7200460  59.9179125 109.5843697  36.1057830  88.7125969
 109.2265892  35.3107333  88.3174706 109.6220112  35.9117484  89.6491623
   0.8922585  21.9008279  93.7541199   1.1065251  22.3650813  92.9449272
   1.5947860  22.1379209  94.3594933  31.2188482  28.2848597  84.3440819
  31.7593765  27.8045535  83.7168884  31.1811233  29.1753888  83.9951324
 106.6147804  88.1389427  73.2642031 106.3052273  88.4436512  72.4112272
 105.8184624  88.0364513  73.7853575   8.0673248  51.0383320  63.2120323
   7.5651211  50.9010363  64.0152550   7.4137163  51.0109234  62.5132608
  69.3151379  56.6828203  25.2463031  68.4382868  57.0580816  25.1654363
  69.4533968  56.5982342  26.1896825  70.7430077   1.4137580  48.0337429
  70.0601196   1.0116256  47.4969149  71.1744928   0.6759285  48.4646273
  40.0562668  60.9650087  80.7269669  39.1445494  61.1652899  80.9388542
  40.3591442  60.4259968  81.4576912   9.1807300  59.7796822  70.2310467
   9.2304558  60.6291342  70.6694460   8.4420413  59.3372440  70.6491566
   9.4853050  66.1097240  67.1084547   8.7469363  65.6092024  66.7612886
   9.7356468  66.6945505  66.3932371  84.0616798   8.0723041   9.0777594
  84.0698719   8.7648296   8.4170228  84.9717617   7.7803159   9.1299742
  98.3019733  37.9122329  12.8605866  97.5463104  37.3565149  13.0513334
  98.0650616  38.3700991  12.0540726  16.6046894  57.0801926  44.8547745
  17.4442601  57.1851206  44.4071770  15.9495223  57.2473812  44.1772509
  92.3274422  38.8160491  13.3975279  91.5187550  39.2187619  13.0811584
  92.1248531  38.5428643  14.2922711  28.9599138  61.5551371  94.1692742
  28.8515097  62.2407711  94.8283537  29.2523295  60.7903642  94.6651067
  80.5442429  29.6559334  47.7730942  79.7588873  30.1253438  48.0543327
  81.2632275  30.2606916  47.9562807  84.3964195  32.1906710  10.8246958
  84.8952866  31.8948150  11.5861607  83.7155437  32.7560639  11.1893618
  91.8046474  26.0492468  16.1870492  92.4237633  26.7389083  15.9476995
  92.3367023  25.2548194  16.2320983  38.1972194  70.8173132  70.8041334
  37.5782657  71.4954185  70.5333900  37.9063010  70.5633831  71.6799879
  46.6253376  58.1773806  85.6965351  47.0309877  57.9056597  84.8732185
  47.2548771  57.9200315  86.3700962  15.6726003  92.6365185  83.7070274
  15.3785729  92.9809475  84.5503235  15.2538753  91.7784023  83.6396503
   8.2360554  93.7783623  84.5885944   7.3115122  93.9408016  84.4013309
   8.6415172  94.6450615  84.5628262  28.4544253  70.7374954  60.8385277
  27.5566053  70.6921339  60.5097532  28.3718228  71.1311531  61.7071152
  26.4307451  92.6889706  66.0700941  26.5225172  93.5262394  66.5248203
  27.3268437  92.3636341  65.9841013  82.1424961  28.5495782  12.8241432
  82.0707703  28.8271356  13.7374055  83.0759525  28.6210370  12.6247036
  65.8160639   5.6693053  25.8037591  66.4822769   5.4322481  25.1586223
  65.2877378   6.3379467  25.3678465  30.2470732  90.2207184  55.1811361
  29.7262216  89.5355320  54.7622538  30.7177448  89.7692204  55.8817434
  89.2310429  30.4342532   1.9101754  89.0898800  31.3717246   1.7780688
  88.4295368  30.0233531   1.5861706 110.6912041   5.4353845  18.8215804
 111.5429592   5.7892358  18.5655928 110.7452679   5.3456581  19.7730315
  31.6310048  77.2073412  65.2884150  31.3022661  77.2583437  64.3908834
  32.0946717  76.3708067  65.3264809  65.6743670  97.7872562  13.7312758
  65.6097174  97.1095848  13.0583656  65.0225210  98.4403992  13.4768403
  91.1838150  87.9807758  27.5332141  90.4780960  87.5332737  27.0663834
  91.9852257  87.5780964  27.1988177  38.2947643   0.1221169  82.1507454
  37.8120620   0.6549443  82.7826691  38.3316333   0.6618107  81.3610554
 114.4039726  80.9933090  82.6290512 115.0383091  80.7670021  81.9488907
 113.9103985  80.1861477  82.7743626  50.0061989  19.4899809  72.1596813
  49.9755383  18.5541654  71.9608259  49.8818922  19.9189389  71.3130569
  15.5486560  20.7972288  25.4556131  15.7721484  19.9628639  25.8680654
  16.0600615  20.8090520  24.6465683  22.5582552  54.4019747  90.3692245
  21.7502165  53.8933849  90.3011227  22.3060799  55.2881527  90.1097488
  22.4847960  53.7708473  48.5661793  23.2804728  53.5006428  49.0245724
  21.8217254  53.1391621  48.8446426  78.4455585 100.4760361   9.9041927
  79.3146944 100.6377888  10.2711678  78.4353113  99.5372772   9.7175181
 105.3442192  60.8509636  69.3470430 105.2904892  60.9202766  68.3938694
 106.2467480  61.0933018  69.5543146 104.3372059   5.8357555  13.9307582
 103.8401890   5.3772485  14.6082377 103.6712360   6.2697202  13.3974814
   4.5531479  87.1756840  81.4053154   3.8503554  87.0480061  82.0425129
   5.3062099  86.7233467  81.7854691   5.7093298  70.4378128  88.2469940
   5.0953281  70.5309772  88.9753819   6.5356141  70.1881456  88.6606979
 106.6451645 100.7933044  16.1177480 107.1275043 101.0343170  16.9086289
 107.2638416 100.2675152  15.6107783 106.5462780  77.2729349  93.3167076
 106.7099857  78.0361843  93.8706779 105.6754112  76.9715214  93.5755062
  26.7397356  50.3669119  62.4185610  26.8490863  49.4234610  62.5376225
  27.5669360  50.7436562  62.7186108  46.4742136  13.2638741   6.8528146
  46.5107775  14.2092812   6.9980663  45.5819750  13.1030524   6.5457720
   2.7459535  64.1302538  72.2174168   2.4805762  63.2488728  72.4800539
   3.3040559  63.9941740  71.4517593  88.3386993  56.9298601  94.4488049
  87.5430298  56.4101458  94.3346596  88.8551521  56.4397907  95.0886059
  16.0121205 109.7454565  77.4276066  16.4534953 109.7439431  76.5782404
  15.0850156 109.6362897  77.2159481  21.3851261  51.5416193  92.2334099
  20.7511783  50.9411716  91.8412304  21.5977859  51.1466217  93.0789852
  10.6786621  62.6277351  86.2392235  10.4932618  63.4676504  86.6592312
   9.8835862  62.1119976  86.3737679  83.2083893  14.9019933  10.5465078
  83.1636810  15.7105553  10.0361550  84.1162682  14.8580647  10.8465981
  17.1857834  63.1609106  75.1405907  16.8716037  63.8994455  74.6189737
  16.4069557  62.6249933  75.2904320  37.1437573  64.2049789  94.6846294
  36.8004918  64.4538689  95.5428028  37.6698995  63.4236145  94.8545551
 107.0995712  66.7608833  45.4158878 106.4340496  67.1208096  44.8295736
 107.5508213  67.5289297  45.7661963  16.8992972  72.2374964  60.8976030
  17.4614179  71.5664768  60.5103302  16.0421658  71.8180037  60.9723282
   2.5923565  68.7374973  47.9004192   3.3375472  69.3316603  47.9892731
   2.3451720  68.5269976  48.8008738  97.4361324  38.2113552  15.5421102
  97.1646595  37.3440814  15.2414870  97.4240780  38.7530065  14.7529960
  73.1958151  38.0965519  18.3392715  72.3800945  37.8160048  17.9243934
  73.7723255  38.3186769  17.6081550  21.2662005  86.0415268  58.4231520
  20.7699800  85.7640743  57.6530743  21.2292242  86.9977379  58.4001827
  90.1326180  12.8370976  22.2061682  91.0327435  12.9328799  22.5173306
  89.9921322  13.5973299  21.6417718   8.4897107 100.1882458  65.8478642
   7.9079854  99.9924850  66.5823746   8.8879704  99.3463707  65.6267834
 112.1270657  26.5386724  22.7973914 113.0744362  26.4370775  22.8890061
 111.9657993  26.4449120  21.8585420 107.1170712  60.4891491  92.9029465
 107.2177792  60.8982325  93.7624454 106.5758419  59.7169209  93.0671692
  27.5055599  79.5733213  66.3477421  28.2226586  80.1888466  66.4998245
  27.9378653  78.7661266  66.0688496  45.7859612  71.3037634  80.5071449
  46.5941191  71.5169239  80.9737015  45.0872755  71.5539885  81.1116791
  38.3711338  69.3780994  79.2878532  38.1534314  69.7522259  78.4341145
  38.9505935  68.6432791  79.0866137  18.1483233  66.4204216  78.0457354
  18.1810606  65.5086994  78.3354378  18.8826382  66.5049982  77.4375725
   2.2133690  77.4321175  63.1623650   2.6072118  78.1740046  63.6214161
   1.5741846  77.8286934  62.5704145  88.5823917  61.1791754   9.2922020
  88.0866337  61.9534349   9.5586318  89.4972897  61.4172745   9.4421685
  18.6746156  58.1171322  83.9155579  18.4693754  58.6181498  84.7049236
  19.6259689  58.1813669  83.8317108  20.6474853  60.1401854  85.8509159
  20.4998398  61.0841608  85.9086990  20.2549148  59.7870398  86.6492939
  23.6477542  46.9054699  68.2942152  24.0696907  47.6424837  67.8526115
  22.9720187  47.3080826  68.8396645  30.9313917  54.3188477  87.0364189
  31.4647412  54.2256546  87.8257751  30.0301528  54.3441534  87.3579121
 112.1126842  68.7407732  86.1666870 111.5145683  68.3948612  85.5042362
 111.8535614  68.3009291  86.9763947  17.4324691  77.6623440  76.2139845
  17.4304175  78.5921288  76.4414406  18.2898605  77.5153637  75.8146000
  58.5643530  60.0094652  91.8753529  59.4094276  59.8338032  92.2891521
  58.5200214  59.3885088  91.1482525  26.7728543  70.2523661  87.6643372
  26.5671062  69.3454456  87.8910446  26.0252881  70.7554722  87.9872417
  43.5087442  55.3991079  66.8595266  43.2652569  54.5548868  67.2393131
  44.0595102  55.8112526  67.5251245 102.9429722  99.9811172  84.7057819
 102.5604916  99.1046715  84.7479343 103.0720615 100.2303696  85.6208992
  87.3246098  33.4207940  17.7940845  86.9471073  33.0891585  18.6087847
  87.7206039  32.6522303  17.3833156  81.2644291  24.1155005  23.3860564
  81.3190842  25.0511456  23.1916022  81.1798286  24.0733743  24.3385792
  27.1165919  49.7443199  90.0069427  26.2569952  50.1167822  89.8104763
  27.6476026  50.4948282  90.2733803  79.0440512  33.4261155  11.0326445
  78.5665512  33.7264752  10.2593338  79.9664783  33.4965181  10.7868779
  24.6395659  50.7633448  82.4959373  24.2934442  51.3411760  83.1760406
  23.8837647  50.2501631  82.2102070  43.4174633  84.3186188  59.4911575
  43.0540371  85.0395870  60.0053215  42.9591131  83.5415268  59.8109436
  74.5602798 108.7700462   1.4241906  74.1575575 108.0951118   0.8778314
  73.8569260 109.0585899   2.0057984  69.3525457  14.2183661   6.6947883
  69.8566484  15.0012457   6.9166243  68.9581442  13.9448142   7.5229490
   9.6964735  89.4964886  62.4862003  10.0058949  90.1364136  61.8451166
   8.8465440  89.8332882  62.7697802  44.7326279  65.0949955  62.7974272
  44.5578146  64.8538399  63.7071037  44.1888523  65.8680201  62.6458359
  12.3231590  36.6779637   6.7213786  12.0495450  37.5738621   6.5245700
  11.7577398  36.1298442   6.1772317  36.2399673  48.3224583  87.7661800
  35.4476070  48.4816170  87.2532845  36.1419034  47.4257612  88.0864143
 104.7202778  90.1337814  11.9086766 104.0229893  90.1011944  12.5636232
 105.2936554  90.8409595  12.2042644  88.0547619  22.4194598   9.7463328
  89.0009499  22.3482370   9.8723793  87.6788616  21.8924356  10.4514396
 113.8062572  44.1848660   9.8792934 113.1093025  44.6902275  10.2977407
 113.4807587  43.2847166   9.8763698  24.6686816   4.3207499  28.3424973
  23.8961744   3.8607490  28.6709237  24.3211985   5.1198298  27.9463172
 111.3581276  50.8515215  81.8283749 112.1379662  50.8280516  82.3829269
 111.7001152  50.8601427  80.9343910  54.0827608  75.7351065  75.7089043
  53.3922100  76.1636877  76.2145615  54.6397829  76.4529419  75.4077911
   3.0721387 101.0623646  62.7160740   2.1958610 101.2919044  63.0253935
   2.9886401 100.1599407  62.4080276   5.4755205  48.3288002  49.3723488
   5.2613872  48.4730816  48.4506321   5.7275325  47.4065065  49.4181633
  14.8427880  76.1888027  82.2710133  14.1250122  75.5562782  82.2403145
  15.6295407  75.6534576  82.3742485  25.5202889  73.7041473  75.1413584
  26.1739182  73.9995289  75.7751942  25.4977059  72.7529764  75.2462101
  33.3237910  93.9372158  93.3492374  34.2734694  93.9998436  93.2471561
  33.0617332  94.7950649  93.6833954 105.0235367 108.0060101  91.0426140
 104.8912716 107.0584869  91.0118675 105.4883480 108.1563759  91.8657589
 116.0562365  46.5496016  24.6759534 115.1295778  46.7866993  24.6396327
 116.4128289  46.8481684  23.8393354  26.1048937  87.9824543  79.5527935
  26.8134141  87.8605747  78.9208317  26.2844586  87.3413467  80.2405262
  15.7855260  99.7200966  73.9855480  14.8503733  99.8717690  74.1223526
  15.9033263  99.7893524  73.0381536  61.9358683  12.9972279  91.8374157
  62.8236675  12.8318357  91.5200996  61.3675976  12.6061583  91.1738110
  72.7727222  92.4243164   6.3727009  73.1150532  91.6552067   6.8282425
  71.9084740  92.1539879   6.0624915  22.8140140  72.4876070  83.3859444
  23.3433223  71.7137575  83.1930161  23.2851505  72.9301071  84.0919685
  16.9026375  48.2253456  55.2555418  16.0484374  48.2618570  54.8251438
  16.7459059  47.7258492  56.0569000   1.7065775  81.8431377   0.9369032
   1.2322035  82.5046921   0.4333701   2.0821954  81.2623119   0.2752449
  49.3220282  23.8491559  17.3612022  48.7345171  23.1050253  17.2295475
  49.2531633  24.0463471  18.2953358   1.9108437  10.3606570   3.3662784
   2.7335599  10.4994047   3.8354465   1.4601573  11.2034905   3.4186801
  78.7309980  31.7019796   3.1276008  77.9408646  31.8736839   3.6398923
  79.2823935  32.4708080   3.2728395  31.0090137   5.0978619  66.7449284
  30.7115746   4.1891426  66.7003012  31.2885976   5.2140468  67.6529837
  25.8324814  61.6762352  61.2738752  26.4690614  61.5895700  61.9834423
  26.3499951  61.9633579  60.5215645 107.7050591   2.0448098   8.6712956
 107.5737476   2.8217867   8.1278849 106.8213654   1.7760244   8.9224160
  20.7545447  54.9385643  73.2717037  20.5699444  54.6027708  72.3945522
  21.3862443  55.6436634  73.1302023 108.2786751  48.7011766  16.1767554
 108.6818790  47.9079247  16.5294778 108.9949894  49.3345499  16.1323822
  17.8150344  31.8676734   6.7382234  18.0646837  32.7826595   6.8674761
  16.9142950  31.9082665   6.4168930  29.8769903  87.1990299  46.9783831
  29.3024254  86.4334679  46.9823456  29.8140407  87.5411320  46.0866213
  96.2490845  36.2129951  13.1370485  95.9642315  35.6518078  12.4158299
  95.7443047  35.9085512  13.8911939  36.1266732  59.8219252  71.2581158
  36.6485476  60.6177855  71.3604975  36.3071656  59.5304728  70.3644085
  33.2166815  63.2401037  76.9134521  32.3562503  63.6583853  76.9439363
  33.0426645  62.3579741  76.5851259  80.2800465  29.3227363  19.7927427
  79.4118643  28.9409304  19.6634626  80.4551506  29.7997212  18.9815354
  27.2902226  94.6902752  70.7177401  27.5120592  94.0694427  71.4117050
  26.9107151  95.4386997  71.1782455  13.4744573  69.3857384  88.8872528
  13.0966234  69.8063087  88.1148529  13.8594151  70.1052856  89.3875504
  91.4707375  -0.1481635   4.1007736  91.5622520   0.7205224   3.7093139
  90.6093502  -0.4508605   3.8133338   2.9673219  54.5103550  16.9776106
   3.0155239  53.5906744  16.7166662   2.3251985  54.8952246  16.3811326
  19.3639827  90.2459049  62.9297924  18.7518930  90.9596920  63.1089306
  19.7080529  90.0039768  63.7896299 109.6810722  70.2718449  93.5724354
 110.2972221  70.9949684  93.4554005 109.8489189  69.9554491  94.4600964
  24.3880725  74.1271019  69.3913412  24.6956038  74.2295027  70.2919912
  23.4526396  74.3256140  69.4336271  20.8635187  51.1613703  57.2994328
  19.9805844  51.2276840  57.6631117  21.2087584  52.0529985  57.3446274
  86.2304211  11.6411936   9.6379244  86.7575264  11.7440808   8.8455838
  86.3236141  10.7170570   9.8692650   2.4690293  54.1767120  78.7875271
   3.3351719  54.4935751  79.0437078   2.0706564  53.8804674  79.6059227
  12.8727627  86.1972141  48.1105614  13.8286793  86.1479759  48.1049204
  12.6812911  87.1125793  48.3147097  35.3910184  67.6933289  78.3576250
  36.2527370  67.2779274  78.3910465  35.4727864  68.3599758  77.6756191
  28.7371731  83.3483696  17.0768154  29.3111801  82.6342869  17.3540163
  27.9818010  83.2892990  17.6617563   8.6955935  53.8248396  81.1076450
   8.7722534  53.1738997  81.8052387   9.4114482  54.4384193  81.2728882
  40.1205714  98.7831865   1.6948856  40.2720651  97.8927885   1.3779224
  40.3949334  99.3452869   0.9703220  16.6065562  63.6900711  85.8979607
  16.7946482  64.5616579  86.2460804  15.6509507  63.6350203  85.8935356
  47.9322243  88.3002090  68.4611607  48.0109310  88.4885025  67.5259686
  48.7684345  87.8977203  68.6956453   2.6639497  22.4812984  12.0136392
   2.9366374  23.3568096  12.2881436   2.1444392  22.1513796  12.7467799
   2.2579068  78.7722206  73.9004517   2.8628826  78.1431055  74.2934513
   1.6476022  78.2345200  73.3958292  76.6312742 102.0818424  19.5752954
  76.3684416 101.4449024  18.9108729  77.4333668 102.4725246  19.2285299
  77.5365686  93.8392353   5.0225943  77.7346373  93.8702297   4.0866244
  77.6366901  94.7439575   5.3186876  69.2734337  35.4163289   4.4943073
  70.1586580  35.6643939   4.7609007  68.7076950  35.7776403   5.1766753
 104.1922188  59.6775866  17.3600912 104.6140480  59.9456596  16.5437424
 104.9139690  59.3913603  17.9198885 109.0090942   7.3144126   1.9021559
 109.7516441   7.3976612   1.3038893 108.7668610   8.2167661   2.1102729
   7.9319471  40.6637907  17.9919803   8.7686598  40.4443216  18.4018302
   8.1724411  41.0728216  17.1606624  22.9028606  63.7610054  80.4600334
  22.9921985  62.9436827  80.9501743  22.4262595  63.5141277  79.6674871
  58.7367868  84.0944481  79.7412586  58.9523220  84.0403748  80.6723118
  59.0259838  84.9683666  79.4788313  69.9069548  23.2221150   2.0747441
  69.6838999  23.8337922   1.3730812  69.6761942  23.6862540   2.8794539
  35.3655005  60.9593725  73.7728167  35.9997082  60.7302523  74.4521666
  35.5429840  60.3434467  73.0619240  78.1941938  89.2450237   7.6136404
  77.8909206  89.8456097   6.9327974  79.0968418  89.0414143   7.3686898
  53.9365625  17.7093911  14.6241033  54.2495584  18.5583389  14.9364412
  53.7299442  17.8551698  13.7009096 112.5247765  22.4627352   1.9674854
 111.9777584  22.3154807   1.1959151 113.0231762  21.6514993   2.0660982
  22.8884077  80.6661797  62.0906210  23.6392260  81.2587547  62.0537043
  22.7534938  80.5084419  63.0250406  22.4485636  92.7662373  65.5894995
  23.0001569  93.2440948  66.2088776  21.5816450  92.7612019  65.9952831
  40.9683037  97.4655724  34.7411489  41.0181284  97.9716110  33.9301729
  40.2792692  96.8211365  34.5793962  21.9433331  74.5758867  91.3366222
  21.4453387  73.8123083  91.0447693  22.7710700  74.2149401  91.6541195
  15.0551605  60.8181190  91.2143707  14.3810999  61.3386917  91.6512585
  14.9513423  61.0231256  90.2851582  27.2933674  94.1366291  79.4536638
  27.5165343  93.7927437  80.3186321  27.8252673  93.6218834  78.8467407
  16.8564379   9.7934687  15.9769022  16.6983724   8.8709414  16.1773789
  16.8794250   9.8302454  15.0206852  19.7818935  98.7478924  81.0740185
  20.3065491  98.3373833  81.7613697  18.9402974  98.9304447  81.4918995
  79.2138338   0.0129832   5.9982026  78.5095644   0.5145429   6.4089066
  79.9124956   0.6520037   5.8576596  56.1058044  52.1280527  89.5875454
  56.9374275  52.4619389  89.2511559  55.4509926  52.4462652  88.9661026
  15.1677191  54.3559170  26.4966989  15.7430816  53.8384438  25.9333014
  15.6587923  55.1597404  26.6668248 102.9237843  26.2492371  15.0004447
 103.5107422  25.5044603  14.8699510 102.8986454  26.3709521  15.9495413
  74.1918325  95.9409046  28.1124258  73.8241529  95.0799561  28.3119559
  74.7616863  95.7890987  27.3584700  18.5422099  63.7191963  69.1293335
  18.0711341  63.0861092  68.5875559  18.1011713  64.5522070  68.9625740
  13.7889349  85.6171703  76.6259336  14.5962512  85.1084042  76.5509367
  13.8553262  86.2751484  75.9339142 101.3586521  13.1048071   8.2398605
 100.4028225  13.0588388   8.2623464 101.5518284  14.0394306   8.1664318
   8.4699064  52.2462034  70.5061483   9.2451280  52.7208662  70.2062178
   8.7698692  51.3441610  70.6182814  43.4875059  71.5977097  78.7551498
  44.0060616  71.0342360  79.3294573  43.5435343  72.4649954  79.1562843
  13.3124220  98.7567616  81.3385963  13.6668229  99.2790508  80.6189823
  14.0729892  98.5501862  81.8818188  36.7565322 104.0273476  91.3052750
  36.3659835 104.8985481  91.2365532  37.4711013 104.0342903  90.6684303
  27.2060680  99.2989349  86.1196995  26.6751075  98.6610603  86.5965939
  27.8343821  98.7687874  85.6294060  83.2854652  24.0229678  14.5051515
  84.1670227  24.2799640  14.2349041  83.4196949  23.2562447  15.0622416
  47.0882702  74.0095234  83.3142853  47.2129488  73.8617229  82.3768234
  47.2244978  74.9500465  83.4286785  22.1449757  75.5074549  85.4477310
  21.7966318  76.2360191  85.9616280  22.9468966  75.8528566  85.0554943
  52.5875616  79.5328665  69.6463346  53.4420872  79.1455078  69.4566870
  52.7837038  80.4367638  69.8927879  28.0468607  35.7221460  91.4088917
  27.4392462  35.9518743  90.7058525  28.7608504  36.3540578  91.3243961
  43.6321831  56.9087124  80.3087616  44.2380667  57.3944807  79.7491455
  43.6380386  57.3855686  81.1387062  51.7086029  67.4922037  83.7292194
  51.7061329  66.5357399  83.6917973  52.0412445  67.7644968  82.8739738
  90.5094528   6.8450034   3.9467600  90.2583027   5.9974325   3.5796335
  91.3540745   7.0408845   3.5412151  13.7662935  75.5661869  88.1713295
  14.0286076  76.1690903  87.4756813  14.3664670  74.8255014  88.0852699
  47.9607058  86.2148952  60.3050089  48.1237221  86.8051910  61.0406828
  47.5504398  86.7681789  59.6403408  70.6312943  13.1834209  15.0613844
  70.7124519  13.8684523  15.7249928  71.2879562  13.4091783  14.4025517
  69.8748302 106.8352413   1.3213173  70.7265472 106.6019726   1.6906415
  70.0252008 106.8715286   0.3766987 103.3091927  55.6208038  84.8233604
 103.1277657  54.9884510  84.1280556 104.0642166  55.2577019  85.2863026
  56.9829035 105.6482315  15.7410049  57.2544289 106.1968517  16.4768887
  56.5500259 104.8980236  16.1484790 110.3925228   7.2614056   5.6575036
 110.6205750   6.6197002   4.9848649 111.1487579   7.2724277   6.2442100
  22.6515436  64.1568708  55.4791546  22.3471451  65.0388670  55.6928253
  21.8838787  63.7219048  55.1080418   5.1544899  38.0221248  23.0599761
   4.5371386  37.6914454  22.4074721   4.7190472  37.8724718  23.8991570
  25.5170941  86.9320488  57.2185755  26.3939047  87.2462273  57.4393177
  25.6300449  85.9937382  57.0668173  14.0760183  20.4453754  22.6454258
  13.8965762  19.7654271  21.9960403  13.9810324  20.0023460  23.4885955
   6.3454014   8.3969921  17.7034497   6.0384047   8.1308043  18.5701275
   5.5685651   8.7547940  17.2736418  14.0083647  16.2089288   0.9991423
  14.3042302  15.3054750   0.8874857  14.6983445  16.7381012   0.5989733
  98.2147884  41.3403320  23.4337687  99.1012192  40.9803534  23.4637308
  97.7621460  40.9236336  24.1670561  97.5538248   8.3715558   0.3793300
  97.6123232   8.4247851   1.3332523  98.3039063   7.8350138   0.1229346
  49.6458578  98.1138802  69.8555851  50.2242231  98.8384151  70.0938511
  50.0929451  97.3331165  70.1823282  21.9005871  89.9251270  53.6195707
  21.0827684  89.8009777  53.1379175  21.9695377  89.1508102  54.1780663
  27.5419307  70.0410223  67.8579140  27.6564288  70.9663248  67.6412630
  26.7615962  70.0195122  68.4118509  44.1852856  79.8752403  68.4491682
  43.9006567  80.3780842  69.2122984  45.0408697  79.5256758  68.6981916
   6.4834613  75.2837181  60.9782505   6.1939186  75.1739836  60.0725174
   6.6315192  76.2249374  61.0700083   8.4366280  51.9321537  85.8130646
   8.8458383  51.8402815  84.9526310   7.4967915  51.9397259  85.6317234
   7.7629042  24.1983724  17.4086654   8.0430669  24.4746184  18.2812631
   7.4273074  24.9967241  17.0009375  69.8603344 108.2748508  22.0453930
  69.6827030 108.0601692  22.9611349  69.3746138 109.0850353  21.8907619
  40.0522566  46.5561628  68.4062767  40.6118488  47.3009872  68.6261177
  39.9856591  46.0579538  69.2208862  10.4630888  64.0508032  70.6010246
  11.2340081  64.0358829  71.1682034  10.8120382  64.2262554  69.7271347
  94.3416214   5.6616718   9.5706928  94.4147968   4.8935211   9.0042818
  93.4355736   5.9517407   9.4650179   2.3347948  76.8457270  65.9232378
   1.9582614  76.8856001  66.8023634   1.8897617  77.5420856  65.4402637
  19.4130981  44.8260593  77.7810144  20.0192595  44.0936947  77.6694632
  18.9497328  44.8828745  76.9453764  96.8023682   4.0905809   3.4194335
  97.2274113   3.8056159   4.2283580  96.8741035   5.0449693   3.4345296
  24.0011334  69.5546007  77.4948978  23.3526874  69.6291113  76.7947578
  23.7425017  70.2198648  78.1326771  30.4669785  45.2318764  49.6950626
  29.9445510  44.7275448  50.3187227  30.5860162  46.0833883  50.1157570
  27.8328133  75.2660799  88.2662201  27.3918962  76.0293293  88.6394215
  28.6558127  75.2040768  88.7510586 115.6128883   0.9508798  18.2200420
 116.4340973   0.6346669  18.5966814 115.4504013   0.3692999  17.4773479
  11.8331873  72.3910713  90.2123165  11.6211772  73.1947756  89.7376156
  11.9039965  72.6646519  91.1268520  20.5685043  16.7261839   7.7971786
  20.5024600  17.3466969   8.5230118  20.0126767  15.9919858   8.0584091
 104.2129898  36.4075375  15.8028638 103.8233662  37.1791959  16.2139237
 104.4308090  36.6930676  14.9155867  40.6027651 102.5244522  80.5185986
  40.5520439 101.7675209  79.9348974  40.9758329 102.1774578  81.3289356
  50.1400185  83.7375641  62.7327347  50.0419712  83.0414867  63.3824253
  50.7241344  83.3670902  62.0710802   7.0095491  66.3832569   3.0623001
   6.3714850  67.0733118   3.2437631   6.9440395  66.2386751   2.1183527
  40.5330276  86.6813850  53.9389992  40.6437111  86.8946552  53.0124474
  39.5879579  86.5772152  54.0495586  61.2581158   4.0939796  51.9748688
  61.6648245   3.6974248  51.2044382  60.5341005   3.5068703  52.1924305
  68.1273174 106.9216919  35.6309724  68.3258963 105.9876919  35.6976891
  68.8245392 107.3508167  36.1269236  62.5700188  92.9707146  89.0642166
  61.6764164  92.8703880  88.7361336  62.5452662  92.5964642  89.9448776
  59.2926073  24.6809101  78.9880228  58.9294481  25.5193067  78.7026453
  59.9810648  24.4889426  78.3513069  53.6135960 105.2901936  59.8359489
  54.2853212 104.8406792  60.3487396  53.9385700 106.1862946  59.7486925
  17.7851427  78.1626558  94.5986176  17.4111962  78.9502668  94.2035675
  17.9504216  78.4068155  95.5092716 110.9418106  12.5475693  10.7679427
 111.4863110  12.0494437  10.1583314 110.2336597  11.9475245  11.0018122
  89.3832779  30.4216623  18.9524364  89.6213722  29.5264149  18.7114453
  90.0875378  30.9616184  18.5936797 110.4801559  34.7245193  13.1171048
 110.5200005  35.4996276  13.6773276 110.6199074  33.9897847  13.7144876
  34.8548460 106.5067863  91.5564442  34.6705222 107.4460602  91.5604973
  34.6671629 106.2220192  92.4508286  56.8679714  70.8619881  78.9765501
  56.6168690  69.9458122  79.0940094  56.9509602  70.9679842  78.0288601
  95.7615757  72.8357840  69.0217400  94.9755669  72.6755047  69.5439672
  96.3323689  72.0916939  69.2134714 103.0432320  31.1174154  50.3090477
 103.6567497  31.3589096  51.0029554 102.1823692  31.1583328  50.7255411
  19.3945312  85.8156013  85.7690048  18.8808692  86.4343548  86.2881565
  19.6587324  85.1402283  86.3937473  46.1849117  63.7646389  73.1813097
  46.4514446  63.3267975  73.9896965  46.6760635  64.5862246  73.1807613
  79.0022898   5.3204066  59.8456621  78.6636639   6.1159521  60.2563620
  78.2551908   4.9613529  59.3669605 106.2522888  22.2756171  24.7593546
 105.5384922  22.5127792  24.1673350 106.5881443  21.4497995  24.4108462
 106.5409470   4.8187867  75.9106684 106.5636063   5.7493067  75.6873941
 106.3592148   4.8022947  76.8503141  98.7078285  32.9549575   2.9638070
  98.1069088  32.7200127   3.6708659  99.5375633  32.5452852   3.2086140
  42.7762461  85.1569271  85.7432556  43.4232330  84.4543839  85.8070946
  43.2949543  85.9613800  85.7480717  69.0267754 103.3084202  50.6366730
  69.2389727 104.1788006  50.9737873  69.6179199 103.1887913  49.8933887
  87.2340202  19.7597623  73.5140324  87.3012161  19.0547299  74.1579580
  88.1316376  20.0754976  73.4100246  38.5353446  80.4814625  77.4167252
  38.6012936  79.5338869  77.5350142  39.4408894  80.7733059  77.3116255
  77.5466156  84.9555492  78.7187433  77.7780008  85.8829308  78.7703466
  76.7788696  84.8684597  79.2837334  53.8202953  90.0847530  71.5121651
  53.5923624  91.0071659  71.3962793  53.3079195  89.8048878  72.2707033
  32.7387214  30.3851175  30.7193375  32.4236298  31.2171268  31.0724831
  32.2553730  29.7190380  31.2081599  31.6301775  56.3250160  67.1911478
  31.1430740  56.9807577  66.6921806  31.6883755  55.5715799  66.6036320
  13.1675291  95.5704784  81.3491726  13.4463143  95.4448318  82.2562122
  12.6046801  96.3442230  81.3765907  40.8998823  46.0747051  12.4662519
  41.1387825  45.4328966  13.1350100  39.9465561  46.1378908  12.5246358
  18.3971286  96.9330215  52.8151941  19.0103197  96.8434334  52.0856714
  18.6877787  96.2818432  53.4537220  16.9671965  65.2821350  72.9386425
  16.3548839  65.6835079  72.3220348  17.3923647  66.0230446  73.3705282
  25.0323963  66.4361095  47.9963827  24.6599650  65.8205509  47.3650265
  25.9792638  66.3314247  47.9030228 107.2028828  30.4102445   2.7057734
 107.1401978  31.2051654   2.1762420 106.3021851  30.0922966   2.7680451
  17.2285283  92.1884251  75.9435320  16.9022393  91.6734123  76.6814518
  16.7900598  93.0349159  76.0297537  48.7344646  79.9810028  58.2716084
  48.9372396  80.9108448  58.3740902  48.7576151  79.6312284  59.1623116
  57.3957062  85.9584808  93.7460804  57.7849817  86.4084148  94.4959164
  56.5043354  85.7518005  94.0270996  25.1650643  81.8393421  36.8319511
  24.2306733  81.8763161  37.0363450  25.2939868  82.5242043  36.1757636
  15.1907730 107.9202843  94.2010307  14.8570931 108.7318039  94.5835590
  16.0095727 107.7542496  94.6681786  38.6751437  95.1897240  75.9605837
  37.9456329  95.5333233  76.4763212  38.4670210  94.2633915  75.8388090
 100.2116394  45.1581526   9.3160516 100.0044441  45.0982618   8.3834654
  99.4595337  45.6088543   9.7000343  92.6122856  46.7417812   3.6902329
  93.5241508  46.9323397   3.4701788  92.6656437  46.1496735   4.4404280
  98.7089539  12.4776626  20.8157396  98.1431484  11.9928789  21.4166451
  98.1394005  12.7038717  20.0804353  78.6372948  71.9286871  64.0707731
  79.3553305  72.1689939  64.6563530  78.8515806  72.3556423  63.2413006
  99.5905590  64.3623400  61.5088511  98.7321281  64.4923544  61.1058331
  99.6509171  65.0507116  62.1712255  17.1842122  74.8293638  82.9052544
  17.7681351  75.0424671  83.6331558  16.9909871  73.8986492  83.0177689
  29.6915150 102.3613644  94.3576813  29.4190693 103.2050514  94.7185230
  30.4238677 102.0895290  94.9108505   9.5366615  31.4423800   9.2517185
   9.2988324  30.5494022   9.0022033   8.6991620  31.8777275   9.4107735
  29.4161510 106.8948174  74.3383169  29.0177488 106.2360287  74.9070883
  29.9745822 107.4087334  74.9216509  72.4553776  18.6458051   8.1999594
  72.8784418  17.9163003   7.7471131  72.8112507  19.4280827   7.7784985
  28.2764935  88.6465263  91.4573574  28.7175179  89.4273663  91.1226749
  28.0228519  88.1599903  90.6730175 112.8028870  42.7571249  19.7450268
 113.1321049  43.6358070  19.5559204 113.5247135  42.3237610  20.2004242
  14.3135846  91.2420464  52.0289755  13.6581576  90.7361317  52.5092888
  15.0024891  90.6094360  51.8253994 112.1812725  18.0519557   0.2140939
 111.3112450  18.2494295  -0.1327457 112.0140553  17.5163794   0.9896118
   9.5870781  26.4276648  13.4639096   8.7755990  26.7217135  13.0500627
   9.5068216  25.4744434  13.4979665  46.0225725  53.3365250  63.9745092
  46.6000605  52.5934696  63.7995481  45.1470375  52.9528761  64.0243626
  11.1868370  52.4987984  93.7429523  10.5316341  53.0375195  93.2994270
  11.8049204  52.2570753  93.0531883  22.0491385  78.5412025  80.4700947
  21.8804479  79.4367743  80.1772881  21.7853522  77.9937315  79.7305489
  68.8440418  12.4174798  80.3481960  68.3311892  12.2035360  81.1275768
  69.7540140  12.2978842  80.6199932   9.9109381  30.5369353   1.6880101
   9.0657187  30.1740789   1.9529106  10.5379403  29.8347378   1.8612750
  74.7607470  22.8502584   1.1874316  74.9518490  21.9564080   0.9032773
  73.8986921  22.7915049   1.5993094  31.2472034  93.8805294  89.1881657
  32.1596742  93.7820148  89.4600487  30.8642769  94.4654179  89.8420048
  25.6985784  97.9607010  89.6162701  25.3913093  97.9532242  88.7097549
  26.3091445  97.2253609  89.6682835  42.7756500  92.5306320  82.7429676
  43.5373783  92.2624016  83.2568264  42.6103592  93.4338665  83.0133057
  17.9796004  87.4488449  57.8583765  18.0889940  88.3450603  58.1762886
  17.6587510  86.9627476  58.6179733  70.7376146   6.7534971  85.6810760
  71.4685440   6.3646227  86.1614418  71.1528015   7.2730696  84.9926758
 100.4103088  58.1110716  10.6504250 100.1756954  58.7179184  11.3525116
  99.6041298  58.0061865  10.1451409  20.9096694  78.0669880  54.7747564
  20.4875183  78.8869762  54.5185471  21.8306017  78.2989168  54.8944426
  24.9496722  98.4503937  80.1113033  24.4715762  98.8618851  79.3913460
  25.4097009  97.7161121  79.7045708  43.1263113  52.2431326  62.8434134
  42.4356318  51.7406225  62.4113560  43.8262510  51.6078138  62.9940414
  41.6877604  85.8956146  78.4004068  41.9126606  85.5594349  77.5328588
  41.7435694  86.8469429  78.3104897  65.7666683  19.5249069  53.5686684
  65.9855127  19.9999642  52.7670050  64.8306084  19.3409157  53.4900856
  98.9101219  37.4127841   4.0285590  99.4780540  36.8814325   4.5865494
  98.7577820  36.8694663   3.2553655   4.8633391  82.1362495  81.8530560
   4.6016812  82.2077084  80.9350967   4.7585708  83.0215645  82.2015858
  95.2054501  29.6478248   3.3434626  95.9244156  29.6148562   2.7124009
  95.0093079  30.5802727   3.4345755  26.3396597  69.0699005  82.8019428
  26.6531444  69.5960140  83.5375786  26.6142297  69.5569134  82.0249844
  13.3689511  64.3032026  94.0070343  13.9528251  64.9109268  94.4608974
  13.2222366  63.5969734  94.6362782   9.1665715  87.3391914  61.1252689
   9.9568433  86.8626785  61.3795090   9.1438711  88.0954838  61.7115688
  11.8043733  90.1053619  76.6011810  11.4612544  89.2458725  76.3566923
  12.6441908  90.1663303  76.1459684  97.1746540  18.8133526  16.3905561
  96.9028473  19.2413080  17.2024703  98.1149483  18.9831340  16.3334846
  52.1778440  21.2843633  65.4964781  52.7896786  21.9534349  65.8034515
  51.6294861  21.7371321  64.8557472  41.1315107 102.4196911  88.5611534
  40.7000303 101.8338299  87.9392052  41.2998915 103.2181549  88.0608273
  59.8771572  69.2579126   7.2263288  59.9664068  68.4915113   6.6598547
  59.3005228  68.9675617   7.9330236  34.1246700 108.2159901  87.3808575
  34.0814972 109.0601349  86.9316483  35.0580239 108.0050564  87.4051380
  52.0819378  96.8851948  69.0668201  52.6235485  97.5048637  68.5780430
  51.8133450  96.2366676  68.4160519  61.4379358  15.5109513  67.5124598
  62.3210812  15.2045107  67.7183104  61.2942982  16.2457502  68.1088400
  32.7037573  92.1343136  83.2979774  32.2434211  92.7653503  83.8512516
  33.4132719  91.8049145  83.8496208 110.8881092  24.7158575  18.4496415
 110.1748371  24.3219757  17.9473114 111.4784527  23.9867020  18.6395323
  66.5471837   0.6736840  81.7014503  66.0698745   0.4324998  82.4953270
  67.3893067   1.0003556  82.0182228  65.9002829  94.7634888  86.4623165
  66.6160679  95.3853321  86.3312340  65.7808399  94.3518829  85.6064224
  10.3102660  97.0505810  69.6954918  11.2418664  96.9725132  69.9010611
   9.8899019  97.2006702  70.5422544   3.2330206  79.1246462  20.6154633
   4.1716343  79.2499638  20.4757047   3.1650016  78.8099527  21.5168905
  66.2680817   0.8762926  57.7978516  65.8323097   0.9431249  56.9482183
  66.1328697  -0.0327157  58.0655336  31.3125157 105.5140972  83.3071899
  31.9359541 105.1365662  82.6866817  30.4667091 105.4547215  82.8629780
  71.9980049  19.0041482  86.8210030  71.5076542  18.3553934  87.3258877
  72.0737362  18.6204076  85.9473705  54.4588041  74.5413160  79.3827534
  54.1686773  74.7005892  80.2809143  53.7448692  74.8727989  78.8381004
   4.8979849  30.1292133  12.3711967   4.5537436  30.9572649  12.7059495
   4.3762675  29.9518657  11.5885150   0.3913388  26.6536927   3.4048638
   0.6624752  25.7642341   3.1777510   1.0597514  27.2153854   3.0124927
  84.2098713  41.3901281  45.1533079  84.3681335  41.7974138  46.0049534
  84.4508553  40.4722309  45.2783012  41.6815424  81.6403866  93.2498741
  41.7757225  80.7023239  93.0843067  41.1297321  81.6916275  94.0303326
   5.4086620  86.5046120  56.9788122   5.5315053  87.4388599  57.1470881
   5.6863153  86.0768127  57.7888298  57.6072264  88.1884384  22.1126103
  58.0612469  88.8141060  21.5481353  56.7124557  88.1652546  21.7733788
 102.1084690  40.6539917  17.8879273 101.7839336  40.3947973  18.7503219
 101.3299561  40.9555769  17.4197543  64.3560462  16.9593453  -0.0717961
  63.4133486  16.9270920   0.0910342  64.7322039  16.3689923   0.5810607
  47.7346706  89.1381741  80.5393600  47.7334881  89.3647957  79.6093750
  47.9021645  89.9671459  80.9876728  12.7636731  78.5113382  47.3776865
  12.3216617  78.1747055  46.5982389  13.6932743  78.3536100  47.2127771
  18.5730731  92.5729656  67.7771950  18.7414086  93.5040665  67.9219055
  18.7140191  92.1682358  68.6330938   8.1922704  31.7668343  -0.1334192
   7.7812546  32.4485278   0.3981743   8.7891078  31.3214302   0.4679391
  26.8313837  91.2466431  52.5856256  26.0540128  91.0214996  53.0967426
  26.5262985  91.2588215  51.6784286  29.0095234  24.1290498  12.3687541
  29.5380211  24.9017692  12.1691918  29.5459032  23.6231470  12.9791570
  20.8348393  55.2110434  47.0776987  21.2779474  54.4957495  47.5340414
  21.4361286  55.4551458  46.3740683  54.5088148 102.0055676  57.4863338
  53.9848471 102.0783806  58.2840681  53.9012194 102.2245884  56.7798710
  41.3092566 103.8444328  91.8555832  41.5530920 104.6350098  91.3741684
  41.6342688 103.9947605  92.7432823  53.6505127 103.8658333  65.7659435
  54.4627905 104.0875053  66.2212420  52.9902363 104.4329357  66.1642790
   3.5930574  60.2536440  19.5743001   3.2647154  60.8656359  20.2329993
   3.5429418  59.3965721  19.9975669  26.8980503  95.5844784  89.9083614
  26.0946345  95.5355930  90.4263973  27.5612164  95.1623249  90.4544640
  66.6450977  88.0252838  60.1971054  67.5163841  87.9034138  60.5742502
  66.7920589  88.5748386  59.4272852  51.2870121  89.1094494  76.9178104
  51.3289547  88.2094669  77.2410774  52.2008801  89.3906212  76.8728638
   4.5673135  38.5053492   8.9400595   4.8818853  39.4024611   8.8283998
   5.2852643  38.0531955   9.3831581  73.3790636   6.1518627  86.5414143
  74.2810535   6.2523937  86.2372017  73.4633732   5.8843988  87.4566078
   3.3168301  27.3498511   7.1213418   2.8557581  26.8717360   6.4321023
   2.9996443  26.9605160   7.9362303  83.4272289  31.5080714   1.8951394
  83.3376408  31.4660978   0.9430663  84.0141678  32.2485757   2.0480619
  23.3841205 105.6234360  82.7648830  22.7322102 104.9655628  83.0066490
  24.1810703 105.3488827  83.2184505   4.2972472 101.0428524  77.7583599
   4.6152616 100.3195286  77.2180796   3.7134680 100.6285191  78.3937836
 110.9813595 108.7706757  82.0291042 111.6251183 108.5929966  82.7148438
 110.8343029 107.9213905  81.6127872  42.0120335  92.6327038  61.2796450
  41.3677979  92.2881031  61.8980646  41.7126656  93.5225010  61.0928869
 116.3784504 105.4925442  77.4455547 116.1047840 106.3829613  77.2253418
 116.6506386 105.5453014  78.3617210  88.4985542  48.6767769  17.3959541
  88.7021351  48.3674049  18.2786071  89.2717934  49.1758394  17.1327865
   1.7731805  85.4385757  82.8905964   2.2487547  84.9457264  83.5592937
   1.0056479  84.9003983  82.6969624  29.0592909  91.4494705  66.1900711
  29.1502547  90.4992580  66.1189747  29.7029233  91.7984962  65.5735016
 114.8064995  83.9952278  83.0691433 114.5240974  84.5397091  82.3342896
 114.2212582  83.2381630  83.0450916  48.3738899  66.8093586  89.1792297
  49.1381550  67.3819017  89.2449856  47.9598618  66.8626738  90.0406075
  14.2782760 106.8437862  91.9833946  14.2965221 105.9284592  92.2628117
  14.6397412 107.3280621  92.7257252  44.9368525  75.3712130  70.1443481
  44.3696022  75.3422928  69.3738747  44.5719671  76.0723734  70.6842279
  20.6203532  11.4873576   1.9324310  19.6703279  11.5887213   1.9908300
  20.7577848  10.9713519   1.1380239   1.8268104   6.2745726  14.3198776
   1.6208807   5.5234617  14.8763466   2.7761322   6.3733137  14.3924761
  58.2098961  90.8216190  71.8799448  57.9094362  90.8421421  70.9713554
  59.1291237  91.0846138  71.8342352  56.6500711  83.9030457  70.5129719
  56.2209940  84.7195911  70.2572823  57.0523405  84.0986443  71.3592243
  88.0550861  12.1415162   7.4912125  88.3615112  12.8486586   6.9235104
  88.6871243  12.1202862   8.2097578  48.3193731  62.8147650  64.5208025
  49.0748596  62.6036024  63.9722776  48.0663204  63.6974335  64.2504454
  31.8736291  89.8488140  66.3163853  31.2709332  89.2405128  65.8886433
  31.6892624  90.6950188  65.9087324  24.2250109  74.8118305  88.2316208
  24.6093559  75.4337120  87.6137447  23.7829971  75.3602886  88.8797283
  48.0154848  70.7605124  64.6101093  47.8805017  71.3041353  63.8339090
  48.3454609  71.3671398  65.2729464 110.6033421  92.4174023  66.1744547
 110.8160019  93.0341339  65.4740000 111.3621426  91.8356895  66.2199450
  25.5104995  78.8337374  79.9944687  25.5980539  78.1609631  80.6696987
  25.6751060  79.6571302  80.4539967   3.5891777  62.7115917  90.0177765
   3.8011527  62.3980284  89.1385937   3.2667398  61.9362879  90.4773140
  89.2989349  74.3715477  61.3608408  89.9825573  74.9483204  61.7017508
  88.6050224  74.4073868  62.0192051  72.4589968  20.5954218  68.9548159
  72.4386120  21.5516829  68.9920044  73.3643866  20.3667951  69.1651201
  95.0277901  24.2402339   9.7830963  95.0892353  23.2888198   9.8683459
  94.2936897  24.3802023   9.1849846  66.1390638  94.7245502  68.7438965
  65.9187508  94.2324352  69.5347929  65.3006268  94.8528099  68.3002710
  35.7706881  99.1232109  80.8395195  35.2299142  98.5205841  80.3289986
  36.1089253  98.5904312  81.5592194   9.0341228  50.1316214  34.3342614
   9.4235182  49.2837191  34.5479488   9.3439734  50.3211117  33.4486437
 104.3214226  74.7720432  81.1393833 103.5680008  75.2287912  81.5135098
 104.5869827  75.3156948  80.3976631  47.8374577   8.9134943  67.6942492
  47.4331236   8.9095485  68.5618496  48.4807968   8.2054681  67.7266026
  90.6740761  50.4771519  16.5534079  90.7462978  51.1745310  15.9017336
  91.3618565  50.6720209  17.1899724  77.3723793 105.2366829   3.6703303
  78.2032681 104.9884224   3.2650909  77.5983381 105.4319382   4.5797530
 113.1787586  32.5565505  69.8033476 113.8026237  33.2799172  69.7420120
 112.4603558  32.9040170  70.3319311  12.4526048  38.2925153  13.2181144
  12.5989687  38.9123392  13.9326966  13.2709265  37.7997065  13.1571293
  67.7320719  86.7966652  84.6615505  67.3249006  87.6246166  84.4066906
  68.6473846  86.8884563  84.3969440  53.3362293  88.0954552  88.2887459
  53.3545923  88.4889984  89.1611099  52.4076509  88.0674362  88.0581284
   0.6146012   3.0906865   4.2013118   0.3880559   2.5661236   3.4333664
  -0.1817645   3.5840794   4.3977621 103.9399719   0.4664934  85.7948780
 103.2831764   1.0935384  85.4921150 104.6698570   0.5706477  85.1844311
  35.4122186  83.4598637  81.2435246  36.3223720  83.3824444  81.5296364
  35.4687738  83.5852623  80.2962589 107.1951199  66.0894108  86.7205429
 107.5426388  65.2070856  86.8507767 106.2571526  65.9591961  86.5808773
  37.5480294  86.0824871  90.5113029  36.6846275  85.6945705  90.3688717
  38.0369496  85.8779621  89.7142124   5.3766644  44.5170069  12.3703778
   6.1441952  44.0399313  12.0548964   4.8251668  44.6228981  11.5952206
  94.1973305  35.4596925  21.1120510  94.2915440  34.8523450  21.8458652
  93.8415146  36.2567139  21.5049744  61.7189455  74.8445606  90.1820469
  61.4892292  74.1351700  89.5818615  62.5524521  75.1784563  89.8503685
  92.2538090  17.0288563  60.8897352  93.0502796  16.5451312  61.1085415
  91.6638184  16.3676691  60.5278206   2.6642722  43.0490303  19.5902979
   2.9359424  42.2155571  19.2059183   3.3949536  43.3020735  20.1544833
  87.8188321   0.7540406  82.0063019  88.4141633   0.3494443  82.6372623
  87.0368573   0.9653844  82.5162792  14.1586590  90.4199791  83.6466122
  14.7378683  89.6995163  83.8949871  13.3406842  89.9928761  83.3921814
 108.6211205  30.2347112  15.5629063 109.3192577  29.7159767  15.9626007
 108.4101868  29.7691822  14.7535706 100.3004169  75.3503323  20.9611750
 100.3264046  74.8744583  20.1310515 101.0478306  75.0123453  21.4544988
  12.7427995  62.5537348  92.0602322  12.4556422  63.1887722  91.4041042
  12.9840577  63.0854750  92.8186989  35.3307319 102.8967285  76.0676670
  35.5713749 102.1817780  75.4784584  34.6648431 102.5194740  76.6425657
  18.0018413  72.6417112  67.6679945  17.1295869  72.5141048  68.0409813
  17.8800011  73.3152151  66.9988298  36.0195494  93.8547230  85.9335041
  36.0385060  94.0056896  84.9884796  35.1881671  93.4061241  86.0877609
  44.1792059  88.2569981  58.4498358  43.6296797  88.8828373  58.9216232
  43.8309669  88.2570267  57.5582314 111.8189430  10.4408610   5.1009119
 111.8040752  11.3722610   5.3211516 111.5310001  10.4058182   4.1887200
  14.5848823 104.4490623  93.2355690  14.2786670 103.5544491  93.3843422
  15.3154945 104.5565319  93.8445759  37.9041576  70.7875443  85.3299236
  37.8560519  69.8409653  85.1961136  37.5649405  71.1619186  84.5169067
 114.7470093  97.8478527  77.1055079 114.6337986  97.1302986  77.7288294
 113.8748550  98.2336426  77.0234156  55.3375149  78.6531687  88.4626675
  55.7107782  77.8215742  88.7548256  54.7569656  78.4144068  87.7400494
   5.7355899   4.7095913  27.1135044   5.9706122   4.6344066  28.0383515
   6.5382463   5.0081575  26.6859150  56.1114550  55.3132296  89.4694996
  56.1520386  55.8458138  88.6751842  56.8277836  54.6855640  89.3738842
  78.0258274   4.0268290  78.2191896  78.4029293   3.4276068  78.8633633
  78.7826872   4.4503850  77.8142214  16.2956691  80.6793690  73.6558437
  16.0159600  80.8704090  72.7605820  15.4793620  80.5770016  74.1451263
 114.8772812 106.3351250  82.4054050 114.4995403 106.8810844  83.0949497
 114.1764832 105.7268715  82.1706104  30.5500126  43.0832958  61.2550116
  31.0762215  42.7081680  60.5488825  30.2192187  42.3247862  61.7361259
  21.5025520  58.9848328  36.9199276  22.3687053  59.3107414  37.1644521
  20.9532762  59.7679377  36.8842530  41.9083881  38.4160805   3.1206176
  42.2341347  38.4678864   4.0191925  42.4280214  39.0604210   2.6399553
  17.9346001  91.2906361  65.5554342  17.8942025  91.8811989  64.8032188
  18.2141685  91.8472862  66.2822199  29.1691327  78.3963823  81.4366055
  29.6531630  77.5916433  81.6219425  28.5446429  78.4718132  82.1581078
  27.0752358  62.6483965  59.0462017  26.3516521  63.1979036  58.7450409
  27.7967000  62.8556967  58.4522772  13.9224482   5.9186852   2.4431786
  14.2030954   6.5533739   3.1024507  14.6788609   5.3437430   2.3269334
  19.0850782  83.1077194  75.2235603  18.6190605  83.6971664  74.6305895
  19.1469717  82.2829723  74.7417068 103.8374901  57.8426313   0.9131060
 103.5083008  58.7368250   0.8220973 104.7373009  57.9489231   1.2217701
  56.0193777  77.4594975  49.3513870  55.1626015  77.8531313  49.1864014
  55.9949827  76.6265631  48.8803720  43.6706638  94.1274929  68.1048059
  44.1300964  93.3208275  67.8714609  42.9269123  93.8356113  68.6319399
  60.2225780  92.5608540  87.5192738  59.4479036  92.8479481  88.0026817
  59.9766636  91.7099857  87.1562481  60.3962278  95.1955318  55.7015038
  59.8606634  95.5602646  56.4060402  61.2972927  95.3854942  55.9627151
  21.2004066  85.2777576  94.1562271  22.1189499  85.4990196  94.3096924
  20.9361434  85.8424473  93.4299183  45.3048086  66.1864805  70.1533365
  45.2628469  66.9791317  70.6882858  44.8301220  65.5289507  70.6618214
 107.1310997  26.8659806  16.9598079 106.8968201  26.7119265  17.8750181
 107.2445011  25.9900379  16.5908921  78.0706453  23.1113315  44.8336840
  77.2232723  23.5367393  44.9648905  78.7015963  23.7025738  45.2442503
  70.1203680   1.1317624  80.7492638  70.6326056   1.6598770  81.3615894
  70.2870178   0.2275136  81.0153294  38.7272048 105.6022072  72.2800446
  38.8850427 106.3621521  72.8402376  38.3271074 104.9552917  72.8611183
  33.7462950  79.1282463  64.5557737  34.3581748  79.2243958  65.2855635
  32.8991842  78.9705896  64.9726486  22.3781180  69.0540266  80.0149536
  21.9919038  69.7163296  79.4418621  22.2433162  68.2277441  79.5509291
  16.0393870  96.9512844  72.7846193  15.1111782  97.0879078  72.9743338
  16.1989832  97.4607468  71.9901276   4.6276590   4.2664307  45.5181265
   4.8159841   3.3882219  45.1871967   4.7983569   4.8443410  44.7744131
  54.1042089  98.2978058  89.7885227  54.1310358  99.1274261  90.2652168
  53.2683849  98.3163261  89.3223858  15.6212318  78.8393974  83.9515781
  16.4841127  78.6137724  83.6040688  15.0234663  78.7009668  83.2168961
  54.5000601 103.2756329  78.7502670  53.5471773 103.2761288  78.8410664
  54.7592592 104.1771984  78.9406109   5.9557962  80.6152534  62.2870874
   5.6901169  81.4738560  61.9577837   5.2094263  80.0457287  62.1005106
  55.9165192  90.1879692  33.8454342  55.3227234  90.8442974  34.2099524
  56.0563898  90.4676533  32.9407549  29.3273783  31.2303329   1.9789237
  29.7797179  31.0716271   2.8074363  30.0186467  31.5084743   1.3780789
  56.6985750  96.6171837  83.6471367  55.9404898  96.2271690  83.2118988
  56.7836428  97.4836254  83.2493019   4.9557912 109.5961571  82.6446819
   4.4944930 108.7789631  82.8334427   4.2895666 110.1630116  82.2560120
  42.3303509 102.7895927  54.2389250  41.4890385 102.4846554  54.5786905
  42.1235609 103.1521988  53.3775377  50.1246119   4.5836762  75.0966692
  50.6595135   5.1049441  75.6953239  50.2062845   5.0287616  74.2531872
  37.0711040 100.3507137  93.4905910  37.7938724 100.9236717  93.7466145
  36.6066861 100.8398914  92.8114319   2.1064086  22.6629734  69.2016268
   2.5786996  22.5575638  70.0274944   2.3196566  21.8751550  68.7015247
  14.6818316  13.7749255   3.6428580  14.9885666  14.1130936   2.8015566
  13.7303591  13.8735390   3.6081004   4.0052330 102.5721455  65.8796597
   4.3791485 102.4684811  65.0046301   3.3627808 103.2752132  65.7838440
  89.1384411  94.7392941  70.9876633  89.2593670  95.5593777  70.5090380
  89.9006271  94.2101288  70.7525444  46.9840527  90.8224106  92.9349136
  46.9922400  89.9621010  92.5153542  47.4854040  90.7004738  93.7411499
  40.1370287  76.1629343  87.3204899  39.4469380  75.5646706  87.6070023
  40.7464409  75.6093645  86.8322277 101.5779781  17.4375057  65.7096338
 102.1077442  17.1580482  64.9629879 101.3054657  18.3283949  65.4898930
  23.3554363  74.4393206  17.7514672  23.6932874  75.2043772  17.2858763
  22.4386120  74.3809414  17.4826610  93.4695339  11.3993573  75.3632545
  92.8011894  11.6587770  75.9974909  93.9643288  10.7094669  75.8053684
  36.3330126  89.7746563  79.3771887  36.4003778  89.5392990  80.3025532
  35.4144144  90.0157261  79.2576218  33.7929106  84.9286747  77.5176573
  33.3393693  84.5899105  76.7457962  33.2593870  84.6361256  78.2565737
 100.2518177  63.8903904   1.4335209  99.9487495  63.0297089   1.7226750
 100.3146172  63.8147688   0.4813821  64.5594025 104.2571545   3.0677822
  65.3209352 104.5118523   2.5467998  63.8075113 104.4997978   2.5273952
  43.2647753  76.6060114  12.6995373  43.1898546  76.3732386  11.7740989
  42.3960400  76.4313650  13.0615258  55.1114798  89.8548126  82.4814510
  55.7480288  89.2516899  82.0976734  54.2980099  89.3518066  82.5200462
   6.4849138  48.1221628  37.3079014   5.9134060  47.3574018  37.3768020
   7.2776520  47.8723001  37.7826285 114.6002197 108.7984085  29.2977428
 114.7626019 109.3062496  30.0927043 114.7825432 109.4080353  28.5826612
  44.1079426  90.1549530  79.9882555  43.4357738  90.8357048  79.9568129
  44.9112988  90.6220055  80.2178478   9.2433542 104.6339989  50.4078770
   8.3592582 104.4593048  50.7305050   9.2490959 105.5728245  50.2213335
  23.4101057  55.0382853  19.1959465  23.4170771  54.0952730  19.0319192
  22.7992964  55.3895760  18.5480738  79.5716858   3.4946698  89.1787815
  79.2779779   2.5965327  89.3314838  78.7642479   3.9915878  89.0470695
  88.6129379  95.3191757  93.9228916  87.8230858  95.8297062  94.1010094
  89.0902615  95.3191185  94.7525787 113.5526848  46.9356251  68.2958651
 112.8641415  47.3258829  68.8342237 113.4021378  45.9925890  68.3610773
 111.7685699  61.9992733   5.3826016 112.3646545  62.1666861   6.1125952
 110.9681797  61.6760063   5.7962471  46.0708046  94.9087429  69.4414854
  45.9830523  95.6177139  70.0785828  45.2625751  94.9450207  68.9299345
  41.5282249  48.6708498   9.6984464  40.6225252  48.6898375  10.0076032
  41.8068504  47.7644253   9.8288077  67.8137779   1.2907588  75.3477764
  67.7223539   1.4777204  76.2820768  66.9425678   1.0032959  75.0746679
  51.5056467  73.7441778  62.5859499  50.8653116  74.3430328  62.9701138
  51.9091606  74.2467785  61.8782806  59.0886068   9.4765085  87.3013973
  58.4978437  10.1885164  87.0558929  59.9531841   9.8854053  87.3406506
  52.3799372  99.8724842  80.0554657  52.2486877 100.6819630  79.5617485
  52.3213768  99.1789627  79.3983221 101.5279579 105.4919052  89.9101257
 101.1284924 105.0579739  89.1562271 101.5760326 106.4140415  89.6579933
  11.8162429  43.7119675   4.5011795  12.5926805  44.1589928   4.8381495
  12.1622014  42.9569101   4.0253350  62.7677345 101.3044643  82.6455116
  62.4054718 100.9469604  83.4561920  62.4698210 100.7020378  81.9639206
   8.1229168  35.2276325  18.4543562   8.4731168  34.3541932  18.2791448
   7.1752286  35.1009893  18.4999812  37.0855284  76.5015125  86.2635422
  37.8276920  76.8160152  85.7472992  37.4329114  75.7556200  86.7526340
  96.8719387   2.7209881  73.4240532  96.7306519   1.9945097  72.8170156
  97.7324200   3.0670470  73.1872940   6.9208443  52.4653006   2.9665253
   6.0611212  52.8844261   2.9285446   7.2686982  52.5514030   2.0789352
  41.3408184 106.6339493  84.0413570  41.1920404 106.3180542  83.1501198
  41.8956804 107.4062538  83.9322281  51.7935514  95.8846951  91.9543839
  52.6442003  95.5884933  91.6305065  51.1802197  95.2063370  91.6717434
   6.6664690  59.5766068  21.0705686   6.6376215  60.4911947  20.7896328
   7.3079175  59.5643711  21.7809367   1.1092625 100.9270763  76.0289335
   1.0782967 101.3298225  76.8967247   0.2306805 101.0583973  75.6724453
  35.6564546  78.3583879  69.2918825  35.7755065  77.7992868  70.0596523
  35.6585670  79.2493486  69.6417618  98.2319641  58.4517956  28.2777643
  98.0631733  57.9812670  29.0940666  98.1486702  59.3760395  28.5124373
  42.6064062  78.6611557  75.3448009  43.2611275  78.4398746  76.0070753
  42.1069050  77.8538036  75.2226782  22.9617810  99.3410492  61.6805172
  22.1470070  98.8442135  61.7549038  22.7983046 100.1445293  62.1743965
  63.8060236 107.8150654  57.5810337  63.3423424 107.8531742  58.4175634
  64.1313982 108.7051964  57.4467707  25.0175595  28.8590670   8.8779789
  25.3017926  29.5354557   9.4927490  25.0829792  29.2742658   8.0180001
   3.7025481  64.9123192  31.6031551   3.1782052  64.9737930  32.4016023
   3.4902772  64.0512753  31.2429118 103.9093876  75.5222511  12.4940133
 103.6967087  75.7866049  13.3890665 104.6560574  76.0706806  12.2533095
  60.1338530  13.1731081  61.2319851  59.8621750  12.3058355  61.5324211
  59.6000671  13.3352172  60.4541540  78.2875824  90.8970261  78.9626360
  79.0528631  91.1681175  78.4555960  77.6465178  91.5932846  78.8194752
  75.0617170 105.4494762  66.7398357  75.0827122 106.1256886  66.0626888
  75.6613779 104.7741795  66.4226294  25.3542519  64.3567371  70.4240608
  24.6461010  64.2535734  71.0597563  25.0418377  65.0352287  69.8254967
  94.4020653  22.7226949   4.8169729  93.9712811  22.1275020   4.2034528
  95.3238487  22.7061057   4.5595241  20.3753090  90.1194286  42.0933723
  20.6994629  89.4982815  41.4412069  20.9312820  90.8912086  41.9861841
  49.5934820  99.7380829  79.5016861  50.4387140  99.7430992  79.9509001
  49.3565798 100.6624699  79.4267511  27.4444366 101.1773014  47.2924137
  26.7888069 100.5288410  47.0357513  27.5100708 101.7630100  46.5381813
 114.8475838  86.1499977   0.7476770 114.1362000  86.7429256   0.9897492
 114.4406319  85.2838898   0.7261198  56.9987249  96.0901737  75.8517981
  56.3406229  95.7014465  75.2755880  56.6075182  96.0487652  76.7244244
  14.2544222  43.4171534   1.1793039  14.1798890  42.8142691   0.4395710
  13.8187909  44.2159748   0.8820779   2.9463494  77.5379229  53.8442945
   2.5269505  78.3810329  54.0160561   2.5925416  77.2622728  52.9986763
  66.8457694 109.0104318  94.6074609  65.9655471 109.3745637  94.5134054
  67.2252317 109.4885516  95.3447817  60.5964899  86.4381409  70.1677275
  60.9282494  85.7923031  70.7914734  59.6459150  86.4099598  70.2765894
  67.0066977 101.0374832  80.4549980  66.6188765 101.8755722  80.2031517
  66.4574480 100.7259464  81.1743736  12.5813115  54.5419312  20.2089763
  12.3737609  53.6081266  20.1748276  12.9923129  54.6648026  21.0646725
  30.8349061 101.8071938  82.8779411  30.2552557 102.5626659  82.7804852
  30.4056215 101.2590885  83.5348511  35.4013419  68.2121801  88.0077744
  36.0392070  68.0593824  88.7049198  34.7089267  67.5720453  88.1721497
  58.7490845  24.9450731  61.2930489  58.9888048  24.8208332  60.3747177
  58.5810137  24.0607166  61.6184711  32.3349619 104.8718357  77.3631907
  32.7271271 104.9383926  78.2338285  31.5142274 104.4003010  77.5055981
  17.6312625  58.4075022  29.7217822  17.1394658  58.0671167  30.4691124
  17.0876443  59.1177225  29.3807507  26.9142413  91.2415886  44.2969656
  26.4140272  91.6847610  44.9822521  26.9206691  90.3218079  44.5619202
  99.9211502  21.1135936  59.3322086 100.3898430  21.4919281  60.0761271
 100.1484203  20.1840115  59.3535948  24.0117788   4.2688707  11.0620975
  23.6806059   4.3251657  11.9584167  24.7827435   4.8361462  11.0555446
  74.4556475  91.9928551  93.6054039  74.1413975  92.7444553  94.1079807
  74.9156427  92.3786640  92.8598881   1.3668728  39.5310354  16.3237810
   2.0728579  40.1573086  16.4837790   0.7449935  40.0066853  15.7730937
  14.9543417  66.5323305  17.5900829  15.8483660  66.2232113  17.4438024
  14.9960613  66.9998932  18.4242761  65.3510189  15.4404116  66.9475222
  64.6474361  14.8146474  67.1196461  65.2482367  16.1087096  67.6250505
   0.9306147  51.2263298  88.5091686   0.1062113  51.0817194  88.9735889
   0.8414213  52.1004057  88.1293488  60.6057358  85.3088760  76.8799067
  61.5480518  85.1407337  76.8794298  60.5315638  86.2570000  76.7713737
  19.7496581  77.5396490   0.8460100  19.9295914  77.7580357  -0.0684097
  18.8751495  77.8930378   1.0090465  86.7527485   1.6660251  84.2631149
  86.8693161   1.0014924  84.9421120  87.2217178   2.4318568  84.5944691
  49.0326595  95.7140064  71.4942932  48.1547403  96.0676670  71.3514090
  48.8852739  94.8803902  71.9410467  14.6273863  96.3531971   7.1267956
  14.2834198  97.2231865   6.9241953  13.9462483  95.7507610   6.8278766
  49.1159630 103.5346413  57.6151276  48.4098005 104.0015697  57.1684265
  49.2159986 103.9930820  58.4494257  24.0480232  65.6935120   4.7477350
  23.7508917  65.0089025   5.3471142  23.2514024  65.9871006   4.3056586
  73.8085699  21.1265135  93.1296539  74.1617680  22.0107317  93.0314732
  74.1331577  20.6525683  92.3639774  73.8577223   7.1196103  82.0517826
  73.9062881   7.0438057  81.0988235  74.5370150   6.5272391  82.3740959
  56.9323349  90.9588337  74.2844820  57.5785160  91.4950275  74.7440243
  57.2624159  90.9019756  73.3877993 114.9947834  21.9647741  26.2982631
 114.6091461  22.6948738  25.8140373 115.8652020  21.8563628  25.9150648
  64.4044590  82.8338432  93.6261559  64.6607399  83.4407806  92.9317665
  64.4096375  81.9736290  93.2063484  26.6560125  79.9499321  60.4522657
  25.8749223  80.0681782  59.9117613  27.2665548  79.4733191  59.8898554
  64.1911697  75.1015997  85.2985954  63.5921001  74.3554211  85.2747536
  65.0126123  74.7606564  84.9447250  36.1644053  91.4344501  68.7641907
  35.5824661  92.0405388  68.3056879  36.0600781  91.6560173  69.6895266
  72.3566198   1.7071533  73.8531971  73.0790377   1.8728596  74.4589090
  72.2975492   0.7529345  73.8062048   8.1708038  44.1546726  17.8489721
   7.7833730  44.3342924  16.9923115   9.0957373  43.9917088  17.6641166
  79.2186260  28.7920856  84.5287609  78.6468029  28.0294752  84.6163559
  80.0984383  28.4516287  84.6907902  39.5433283  99.5468044  55.8441401
  38.9626670  98.8599205  56.1716223  40.4217386  99.2533112  56.0859776
   6.3703573   0.9033193  16.2119365   5.7218313   1.6018121  16.2999916
   6.0691458   0.2199503  16.8106937  94.2561340  17.2584724  69.7147989
  94.0962887  17.7495492  68.9088678  93.6505508  17.6387656  70.3510952
   2.8501719  38.3940625   0.8286065   2.8706327  37.9482603  -0.0181960
   3.1187519  39.2917943   0.6332202  46.5198231  80.1298714  61.0240746
  46.3865852  80.8969116  60.4671812  47.4584770  79.9516678  60.9657335
 106.0342121  14.9807286  88.6406708 106.1365891  15.2364314  87.7239609
 105.8229065  15.7964742  89.0947056 104.3714428  11.7789781  81.4512444
 103.5872841  12.0354497  81.9365692 104.8464870  12.5984621  81.3133430
  26.6683769  80.9610462  92.4484253  26.3151240  80.1286221  92.7622890
  26.4501929  81.5888023  93.1373024  44.3254757  13.2519865  79.8713589
  43.5214472  12.7979517  79.6191311  44.0891600  13.7357593  80.6627846
  34.7308159  57.5377560  81.6013432  34.8486853  58.3206844  82.1392632
  35.6177139  57.2036695  81.4670563  72.5461674 102.8398895  75.3728676
  71.8962145 103.1725407  74.7538805  72.8911638 102.0500374  74.9565268
  76.8492699  14.0337062  94.5537853  76.8873405  14.0006185  93.5979080
  77.7636623  13.9809489  94.8318672  43.7684011  85.7690525  90.0367165
  44.2712355  86.4734554  89.6278000  42.9405642  86.1795616  90.2865314
 108.4145069  18.6505139  75.8426857 109.0330219  18.4486330  76.5447664
 107.8899670  19.3737578  76.1862087  10.4978299  89.4275665  58.9411592
   9.9472678  88.8881588  58.3735704  10.5720127  88.9239216  59.7517586
  73.2546902  75.0554991  75.0546741  72.7288818  74.7939682  75.8105564
  74.0799236  74.5824718  75.1617622  78.3872890  11.2219214  26.3706088
  77.9010630  11.9703794  26.0247421  78.2657146  11.2746954  27.3185897
  33.9905524  81.7051888  67.8050089  33.8757992  81.8577480  66.8670416
  34.2170382  82.5641918  68.1614447  97.1999264  84.3975163   9.1326648
  96.9567299  85.2882862   8.8804376  97.8191376  84.5132732   9.8533678
 105.7354259  15.1306570  81.6100121 105.0387001  15.7254672  81.8874931
 106.3618565  15.6920731  81.1532593  55.0021172  88.3732986  79.7326374
  54.0632343  88.4271812  79.9110222  55.3155136  87.6752567  80.3077507
   4.5874366  58.0561972  20.7160783   4.8757488  57.1805811  20.9737682
   5.3974020  58.5583544  20.6264806  52.1619940 108.3577442  45.4784393
  52.0652628 109.0410233  44.8151112  51.2655544 108.1547451  45.7456923
  67.2637987   9.9639696  93.0980968  67.7396345   9.1878670  93.3938694
  67.6197290  10.6787550  93.6259556  29.5582771  91.9333744  85.1962757
  28.7294722  91.5979004  84.8545551  30.0608110  92.1694660  84.4165707
  15.1163054  65.9647894  42.6276445  15.1931953  65.4106617  43.4043407
  15.1082730  66.8583441  42.9707623 105.6934261  35.4797506  67.3859167
 105.3528786  35.1745701  66.5450096 105.0671101  35.1518011  68.0312109
  41.2540722  78.2025766  70.8327007  42.0569229  78.6547184  71.0919905
  41.2460995  77.4056435  71.3628578  63.3127022  81.0394859  59.1118526
  63.4580469  81.6056538  58.3538532  63.2497644  81.6424465  59.8526001
  73.7086821 100.3431892  65.3153419  73.0661583  99.6418381  65.4225683
  74.3455267 100.1934719  66.0140896  60.6429338 107.0042229  67.8197908
  61.5418148 106.6860294  67.9034376  60.6969929 107.9347324  68.0376577
  58.7524223   2.6915860  53.0382967  58.3255529   2.5671041  53.8859558
  58.0491066   2.5843877  52.3979139  56.3936949  90.8832359  88.8554859
  55.6536245  90.9193611  89.4614792  56.3417816  91.7035007  88.3648682
  52.3961544  84.8564339  60.7121372  52.8688908  85.2637482  59.9862957
  52.8527403  84.0283680  60.8606911  52.0634651  81.7569828  72.0072460
  52.2419310  81.0634422  72.6423645  52.9246092  82.1208000  71.8015718
  58.1558752  11.9965708  91.8286705  57.6286840  11.8115199  91.0514641
  59.0534067  11.7972732  91.5622997  33.4369946  62.3480797   3.6402881
  33.9436221  61.6935778   3.1594664  33.6980367  63.1841183   3.2541224
   8.6795574  91.1650181  80.7489300   9.5273715  90.7470989  80.5979824
   8.7784284  92.0452309  80.3860664 114.1244888  12.6719272  67.3460817
 113.5514545  12.8398836  68.0941868 114.9432373  12.3651338  67.7356482
 103.2024002  20.6877995   8.2435614 103.4113598  20.8686543   9.1599989
 103.1948280  21.5487146   7.8252274  63.0931425  98.4568977  62.1917105
  63.7938643  97.8122711  62.0933676  62.3641491  97.9628849  62.5668764
  87.3266220   6.2435275  43.6107016  86.7241955   6.8069333  44.0963888
  88.0050468   6.8380409  43.2905102 115.2834188  66.3000917  68.4079218
 115.4615690  66.0173321  67.5109625 115.8194702  67.0847750  68.5226202
 104.6872807  22.6165152  80.7461357 104.4823837  22.1553135  79.9327850
 105.4844570  23.1080937  80.5484390  89.5886135  26.6316485  88.5032082
  89.8231220  26.8245387  87.5954533  88.9188290  25.9509230  88.4380913
  97.1212101  51.7404032  16.1882937  97.7078533  51.0187435  15.9618258
  97.7043915  52.4390697  16.4849341  30.1588511  90.7333183  90.5173874
  30.7007384  90.9335518  91.2806034  30.6966734  90.9891224  89.7680283
  88.1564140  95.0079250   2.9210022  89.0941715  95.1201630   3.0767009
  87.9450035  95.6593323   2.2522673  78.9039755  41.4550161   9.1287619
  78.1431246  41.0322714   9.5270419  78.9123774  42.3356104   9.5038718
   1.2256787  75.4254389  27.2452521   1.8444525  75.2640533  26.5329981
   1.0680149  74.5614576  27.6259255  41.8781471 101.4122677  82.7155876
  41.4967299 100.6344509  83.1227112  42.6123285 101.6445827  83.2841396
  75.1241684  40.3827095  91.1450958  75.3522587  40.7677937  90.2989769
  75.5424881  39.5217967  91.1369991  16.2826657  49.1131258  16.8081570
  16.6748059  48.5694361  16.1248899  15.5962944  48.5638428  17.1868527
  50.7165051  82.2859764  88.5048866  50.0958872  81.5587807  88.4575367
  51.0031176  82.4154949  87.6008320  26.1277294 105.9290028  91.2292004
  27.0522523 105.7293129  91.0821819  25.9973717 105.7836151  92.1662712
  30.3996587  52.9346037  13.1494141  31.0203218  53.4057570  13.7053144
  30.8415914  52.1114445  12.9412484   9.9548316  35.5755687   9.6215552
   9.4727629  35.4508281  10.4390407   9.5141774  36.3094640   9.1932416
  97.8822803  49.5503712  27.1777725  98.1268501  50.4569435  27.3636389
  98.3488178  49.0364790  27.8369284  14.4722879  14.9471426  43.0593061
  13.7725997  14.9265838  43.7121773  14.3807411  15.8012223  42.6369333
   2.0445794  28.5492873   2.5604495   1.4071637  29.0119481   3.1043956
   2.8271767  29.0997624   2.5878328  16.2408483  40.4163456  15.3031445
  16.7843080  40.0742245  16.0129595  16.8054914  40.3814125  14.5310104
  15.9935534  28.5076022  38.0648875  15.8731318  29.0118790  37.2602558
  16.0466421  27.5979352  37.7717662  85.7098007  18.0028641  63.8007975
  85.8658314  18.3541298  62.9241562  86.5600586  17.6603127  64.0763998
  43.1252337  81.7258549  53.4923267  43.5481882  82.5608253  53.6927605
  42.8782368  81.3713646  54.3464661  20.8226494  45.7380986   0.5492461
  21.4917140  45.1943326   0.1334251  19.9934725  45.3295254   0.3007091
  87.7319145  65.7588053  85.4016590  87.1353722  65.3775740  84.7574329
  88.5308266  65.2369547  85.3265572  72.2229341 109.0215532  60.3217840
  71.5121129 109.6491401  60.1910543  73.0033162 109.4731924  60.0004387
  62.1734762  98.8087559  88.2164001  62.1687126  98.3749962  89.0696621
  62.4632025  98.1315708  87.6050758  44.6946049  83.4453773  72.3410082
  45.6315422  83.6407757  72.3551369  44.3717623  83.7590313  73.1857681
  70.3665161  94.4693470  85.1488113  71.0376740  94.3277073  85.8164310
  69.8125601  95.1617908  85.5092144  51.2732649 101.6146564  56.9000578
  50.9840918 100.8501244  57.3981428  50.5620670 102.2476864  56.9985437
  96.6229725   5.3791332  91.2277699  96.6566277   6.1305779  90.6357956
  96.5906620   4.6184623  90.6476212  81.7919350   6.0458273  93.2047558
  82.3867035   5.7482278  93.8931656  81.4625454   5.2395260  92.8077412
  45.3531694  86.0766506  70.0668287  45.4033375  85.1617527  70.3437471
  45.9530973  86.1350727  69.3232536 100.1513004  23.5804987   3.5440034
 100.0494194  23.5694766   2.5923041 100.2611256  22.6603532   3.7837988
  79.5673323  19.5533025  68.5522175  78.9679289  18.9895463  69.0412235
  79.2384720  19.5301473  67.6535845  90.5473804  21.2213182   8.3921605
  89.7334480  20.7236671   8.3141065  91.2279510  20.5545092   8.4839565
  67.3277378  26.9700336  80.8968925  66.9622564  27.0733476  81.7755222
  68.1437874  27.4699402  80.9166336  65.7262659  73.4027004  65.9144592
  65.3501558  74.0724325  65.3432894  64.9965763  72.8133011  66.1052322
  16.2890399  54.3527079  19.2684531  16.7260575  53.6013985  19.6694243
  15.6768465  53.9672470  18.6416602  45.1053143  85.7870960  57.6232481
  44.8365355  86.6941929  57.7687740  44.4530773  85.2659702  58.0914879
  21.5977049  66.6423559  82.3864365  20.8976531  66.1137772  82.0033360
  21.2230849  67.5202847  82.4581051  30.6678557  64.7592306  68.5555744
  30.8291173  64.6479988  69.4925117  30.9775949  65.6441402  68.3626270
  28.9828968 102.3067474  67.0550823  28.1867695 102.4474812  67.5675344
  28.7217879 101.6896439  66.3715363  70.5812788   1.6769461  87.8001404
  69.6419954   1.6425872  87.9812527  70.6457949   2.1164976  86.9522858
  75.9360552  43.7029552  55.3572464  76.0923386  44.5900583  55.6810570
  75.8104372  43.1780863  56.1477900  29.3667412  13.2980049  92.0485401
  30.0357342  13.6242104  91.4466572  29.5889688  12.3758137  92.1766472
  34.7641969 103.5117340  88.1721115  34.4110203 103.8730240  88.9851093
  35.7058334 103.4430504  88.3296967  35.0282001  93.2684135  70.5682945
  35.4645634  93.8232708  69.9218130  34.0942097  93.3972454  70.4030704
  73.6527634  13.3726430  39.8430109  72.7092457  13.5223079  39.7829080
  74.0428591  14.1143024  39.3804121  35.3800273  69.7488117  76.2286949
  34.7066450  70.3698540  75.9510422  36.1892772  70.2599907  76.2351465
  14.7438669  73.8040829  63.3278036  15.6710804  73.6734676  63.1291914
  14.3750608  72.9208899  63.3411932  41.8415976 103.8142776  78.4854698
  41.4008379 103.3743668  79.2124128  41.1963797 103.8134956  77.7784157
  72.2073984  11.7609119  84.5272160  72.1477747  11.6812396  85.4792213
  71.6058874  11.0955215  84.1930389   1.6125372  22.7444410  31.0564804
   1.6976294  21.8823290  30.6493497   2.4672538  22.9060936  31.4559293
 111.8117237  17.9429209  19.5075953 111.2661743  17.1789038  19.6943784
 112.5367260  17.5979042  18.9864779  96.2960243  24.8229647  92.1754932
  95.7984352  24.5483446  91.4052868  95.6339264  24.9536204  92.8543091
  64.1733789   6.8146390  93.3844757  63.6205244   7.3297489  92.7968979
  65.0033474   6.7259175  92.9159546  21.1339760  63.8577986   3.0926651
  21.0391665  62.9302263   3.3091274  20.5066490  64.3021679   3.6629534
  49.1814899  63.5104799  76.7561483  48.8195419  64.2697477  76.2992716
  50.1184368  63.5385275  76.5622902  34.1922688 104.8226547  93.7959290
  33.3160710 104.6154785  93.4709835  34.0396500 105.3928089  94.5494938
  53.7043571  81.1741734  83.4660625  53.0249691  81.5304947  84.0385056
  54.4816256  81.6971397  83.6625099   7.4343240  25.8137202  22.2177434
   7.2363228  26.6832304  21.8699193   7.0852625  25.8270621  23.1089282
  17.5586545  12.8385496  80.7324123  18.3019078  13.4357834  80.6480312
  17.1605253  12.8271806  79.8620081  12.8796268  -0.0009429  72.7437210
  12.5341523  -0.5572062  73.4418964  12.3743546   0.8092587  72.8108454
  81.4765930  17.5913250  70.3489876  81.1141586  18.2150567  70.9781408
  82.0190334  18.1248319  69.7681618   1.5890974  62.9639244  24.1010785
   1.4301249  62.0406437  24.2973256   1.5691294  63.3970594  24.9544406
  89.0066719 103.9901543  71.3092852  88.2203579 103.9037323  70.7703352
  89.6409512 104.4252205  70.7395124  70.6021690  93.3341217  93.5602283
  71.0069084  93.0260181  94.3710899  70.1127148  92.5786495  93.2347488
  53.2547808  13.0727768  32.8839588  54.1481829  12.7781248  33.0607057
  52.6986265  12.3957658  33.2694197  65.3999949  69.9019957  85.5966473
  66.1174059  69.6483898  85.0159264  65.8108282  70.0016737  86.4554405
  33.5524273 101.6565609  73.1355667  33.6929822 102.5049591  72.7152157
  33.2281065 101.0923004  72.4336720  35.2593780 105.4132271  56.6996622
  35.5884004 105.2283192  55.8200169  34.4547892 104.8991489  56.7674112
  39.1321898   6.4315003  86.9297886  39.1207123   5.4780132  86.8463516
  38.8702059   6.5958226  87.8356552  13.5017955   8.1248099  70.0236130
  13.2002878   7.4519444  70.6340027  13.9337122   7.6363093  69.3228626
  45.4032230 103.0108833  81.8288136  46.0954142 103.5804939  82.1644402
  44.8584604 103.5865974  81.2921524 109.6489811  77.1937943  25.2499461
 108.8568401  76.7973709  25.6127048 110.3654575  76.7840338  25.7347059
  18.1471491  95.1647282  69.7331905  17.8196979  94.7729111  70.5428123
  18.7828481  95.8187580  70.0236511 112.5409412  11.7318177  42.4216890
 111.9765186  12.4664927  42.6623249 112.8199673  11.9271255  41.5271330
  78.9635992   5.5654681  91.9826794  78.3833361   5.3015566  92.6967335
  79.1793013   4.7475821  91.5346050  44.2520142 106.5460873  54.2384958
  44.1731787 106.0246372  55.0373125  44.7991467 107.2898102  54.4909716
  30.0951266  86.5053272  89.2674828  30.9183741  86.0184193  89.2298222
  30.2327943  87.2538376  88.6869526  37.2110915  95.6217289  62.2360420
  37.9625916  96.1516380  61.9701958  36.4522219  96.1795044  62.0650434
  37.8576112 105.0423908  93.7299156  37.5713515 104.4928551  93.0003262
  38.2301068 104.4270611  94.3614578  22.0703149  31.5951681  66.1507177
  21.4755678  32.2215271  66.5632534  22.8095579  31.5327096  66.7555761
 102.5002956  63.7653589  16.8459964 101.9329548  64.1399384  16.1721647
 101.9036007  63.5240936  17.5545013  83.0703449   7.3368180  74.4667578
  83.7612820   7.9527932  74.7105169  83.3426857   6.9963628  73.6146116
  49.9874592  97.8614140  74.6709108  49.9480438  97.9880047  75.6188822
  49.1536570  98.2037354  74.3486881  33.5703468  88.4232903  89.5988274
  33.7536788  87.8770161  90.3631592  33.2761741  89.2571449  89.9654007
  86.6236973   0.9347886  54.5721960  86.1417580   1.7202497  54.3133259
  87.5125885   1.2451781  54.7447443  66.1918306 104.4964027  42.3243523
  65.5670738 104.3381596  41.6166306  65.6460285 104.6695423  43.0913973
  19.0225089  46.9466496   2.5417507  18.3640599  46.2679100   2.6900283
  19.6602869  46.5378857   1.9566151  60.2758741  95.0589943  52.9928446
  59.3219185  94.9857330  52.9639864  60.4846764  95.1019096  53.9260054
  10.8410370   5.9223801  79.7151327   9.9713254   5.7841265  80.0902557
  10.7077706   6.5880597  79.0403414  64.0760851  88.7753201  63.4272575
  64.4320869  89.3883228  64.0704679  64.7156334  88.0638695  63.3948946
  83.0760956  14.6269166  90.3626919  83.8644028  14.1243088  90.5680847
  83.1721306  14.8559237  89.4382668  84.8618031 101.1506271  74.0382242
  84.7618008 100.2090931  74.1787529  85.2303505 101.4774799  74.8589420
  96.4385509 103.4915352  54.3906736  96.3438511 104.0977764  55.1253366
  96.8528652 102.7170467  54.7711277  25.7567024  80.5295658   1.0692531
  24.8954248  80.6328583   0.6645754  25.9321380  79.5897388   1.0225128
  95.9614563   0.0082125  69.5786333  96.3819981   0.6685384  69.0278673
  95.0774002  -0.0742173  69.2210340  37.7848887  59.9560499   6.8515027
  38.0205536  59.3604326   7.5627959  38.6083889  60.3814983   6.6126049
  59.0264177   9.6180969  78.5661077  58.5231447   9.0480483  79.1474724
  59.5570087   9.0177310  78.0423975  82.7684784  15.5590117  85.1252556
  82.0795727  16.1947501  84.9316597  82.5278664  14.7833681  84.6185780
  29.1125321  55.9380770   1.3860711  30.0510788  55.9207249   1.1988342
  28.9798403  56.7533016   1.8698370 108.4232426  67.1404791  32.8443813
 108.4677982  66.6683388  32.0129180 109.3251514  67.4125910  33.0139279
 104.7215080  33.8329649   0.5353198 105.5800056  33.4181237   0.4510152
 104.1231537  33.1094575   0.7216987 102.7939892  16.5587938  86.7053604
 102.3192787  16.4679921  85.8791447 102.2531700  17.1504164  87.2285557
  14.5524991  96.8204021  56.3259602  14.9421942  96.0311413  55.9498739
  14.9504852  97.5404835  55.8367634 100.0835037   3.8863975  75.8644629
 100.2563381   2.9889748  76.1490488 100.8146000   4.3942517  76.2163305
  29.9738455 108.4320068  76.4317989  29.8801589 109.3675613  76.2523890
  30.8530688 108.3456516  76.8002319  58.6350822 105.6812286  63.4164524
  59.0062952 106.5608215  63.4853315  58.9382982 105.3590870  62.5676155
  92.3786259  21.3796449  78.5167027  92.6889229  20.8824134  77.7599287
  91.7270851  21.9815922  78.1569910   4.0258271  11.0312760  82.5038147
   4.3265906  10.4121745  83.1690121   3.5253859  11.6842294  82.9931355
  91.3031292  39.6521187   1.5212768  90.4544067  39.8591042   1.9125144
  91.1317253  39.6207356   0.5800706 105.0865173 101.6213703  79.4006681
 105.3572083 100.7722950  79.7499943 105.8263779 101.9066906  78.8645458
  69.2505217  13.1149662  77.5520802  69.5498133  13.9865637  77.2932863
  69.1638184  13.1643665  78.5040665  76.5140247  44.0680027  15.8845615
  76.2085867  43.8484144  15.0043797  75.8988094  44.7335291  16.1924863
  16.0814309 100.7146454  14.8067772  16.6832674 100.0971127  15.2223194
  16.4160109 100.8120728  13.9152634 102.1845531  65.2287054  93.8352680
 102.1237469  66.1837053  93.8578224 101.2860584  64.9349880  93.6847019
  46.7055750  73.3298826  68.7633944  46.8992043  73.9216566  68.0363846
  46.3147497  73.8920879  69.4322777  37.2925568 102.0512104  88.7818718
  36.9707775 101.6842937  87.9584312  37.7466822 101.3237000  89.2070007
  10.1308823 105.6359100  68.0350733   9.9686939 105.5928135  67.0926952
   9.8793381 104.7718334  68.3611584   3.0011714   2.0801276  72.3002768
   3.9426184   1.9125703  72.3431063   2.8947958   2.6574200  71.5441990
  98.1736755  15.0667882  68.7358475  98.1547165  14.3194056  68.1381083
  98.6261749  15.7536376  68.2462406  59.7285843  18.4049976  75.4751253
  59.8425341  18.5664344  74.5385456  60.2042580  19.1183138  75.9007359
  64.2025328  20.8746982  84.7140503  64.7297812  21.0702777  83.9394665
  63.3085680  20.7948399  84.3813610  18.3545804  65.0491524  24.2943835
  17.5601161  64.9249744  23.7751174  18.7296212  65.8665562  23.9666152
  78.5513449   2.0627089  64.9892282  78.2627296   1.1507690  65.0252581
  79.2482471   2.1193750  65.6429529  87.2821522   2.4678531  71.0874414
  87.8279591   3.1402653  70.6797791  87.1346951   2.7864724  71.9779301
  55.7629108  83.0549240  91.1643982  55.7334042  83.6157608  90.3892708
  55.1238632  82.3651314  90.9854031  14.4845176  96.3172436  78.8839340
  14.2065370  95.5807209  78.3394194  14.4049060  95.9948444  79.7816849
 101.0408783  24.8645735  29.9658084 101.9158554  25.2434897  29.8817587
 101.0195255  24.5056105  30.8528948  98.3096027  80.0302887  79.1752625
  99.1555500  79.8712873  78.7565517  98.5299778  80.2857208  80.0710392
  58.1282234 104.3566036  39.4327807  58.1516361 103.8754082  38.6056519
  57.7103662 103.7544537  40.0484419   9.3154895   8.7065279  74.8580503
   8.4711272   8.5321373  75.2738285   9.9219173   8.1007588  75.2840996
 105.5634880  10.3833532  70.0866079 106.4694309  10.6387568  70.2605629
 105.0403690  10.9669781  70.6361294  73.4469271  94.2646122  65.4010487
  72.7374363  94.3286037  64.7617102  73.5491753  95.1556873  65.7353592
  86.5669918  96.6804314  82.9074955  87.4368763  96.4914322  83.2593536
  86.0177708  95.9658432  83.2299232  61.9455910  87.7626991  77.6205683
  62.2378874  88.0881786  76.7691803  61.4396238  88.4852028  77.9923487
  68.9116240   1.4940235  77.9966927  69.2731428   1.1935566  78.8305092
  69.6467113   1.9212630  77.5569820  96.2431335  25.6103706  81.7168045
  95.5492306  24.9538517  81.7777538  96.7329025  25.5177951  82.5339890
   5.2693206  21.8299341   7.6411593   6.0770965  21.8386436   8.1546324
   4.5808572  21.6480398   8.2808185  85.9753227  92.2399330  74.1567802
  86.7551517  92.5719547  73.7119722  85.9741688  91.3012314  73.9694929
 105.7682514   7.3807132  93.7188339 105.6319332   8.1457281  93.1599045
 104.8964882   7.1701038  94.0533543  52.0909071  74.0511894   3.5715121
  52.2283077  74.8733711   3.1010184  51.2677908  74.1796541   4.0429047
  72.9499149  59.1789293  17.8981614  72.8306341  58.5289049  18.5906005
  73.8917923  59.1771078  17.7276015  29.7870350  47.8630877   7.6566100
  29.0382648  47.9528713   7.0671046  29.5598936  47.1245050   8.2215279
 112.7109432  31.6940928  78.5755444 113.4365845  32.2193384  78.2381964
 113.0765533  31.2401867  79.3348408  82.5853825  75.3467321  61.0335970
  81.7066479  75.2008820  61.3840008  82.8813744  74.4784737  60.7601976
  64.7330093   4.6981904  55.9376526  65.4003859   4.1919723  56.4008808
  64.2218399   5.1130384  56.6325188  64.7274065  10.8318830  51.1273909
  65.6142521  11.1919904  51.1350679  64.5757866  10.5493987  52.0293045
  95.1082611   1.2966949  52.6637411  95.8525562   1.3874018  53.2587385
  94.7896957   0.4064243  52.8126383  87.1399403  10.6103110  82.0665646
  87.6890755  11.3013661  81.6962624  86.3805580  11.0722995  82.4217224
  33.5255003  96.8614197  49.2094946  33.5170436  96.1099243  48.6166954
  33.4720516  97.6227760  48.6318159 109.9059486  17.3313224  64.1682434
 108.9912224  17.5022781  63.9439774 109.8779869  17.0334256  65.0774813
  12.7734411  17.1492219  61.1409950  13.1402421  17.4907374  61.9565058
  12.8578627  17.8720450  60.5191994  73.0516481   4.4142720  52.7540016
  73.5842705   5.2070552  52.6904440  72.2735977   4.6058351  52.2303915
  52.3974466  91.6040993  75.0318623  51.4878273  91.8867970  74.9374866
  52.7147627  92.0720005  75.8042669  94.3639088  52.1835899  15.7851934
  93.9787388  51.4845133  16.3135624  95.2977943  52.1541500  15.9931123
   6.2202400  19.0376294  82.1489811   6.8218613  18.9906335  82.8919983
   6.1742026  19.9698508  81.9366741  29.0635061  58.7291574   2.9669225
  29.1417193  59.5162201   2.4278045  29.7254896  58.8395882   3.6494291
  70.2643776  19.4549286  69.9902201  70.3491592  18.5626435  69.6542549
  71.1194038  19.8538470  69.8289013  35.3764772  89.8773670  81.9940281
  34.6761131  89.2253685  82.0188618  35.3809547  90.2576351  82.8724480
  59.7513103  72.2237921  93.6044598  60.4044724  71.7621899  94.1303349
  60.2351332  72.9435349  93.1993484  46.0037756 103.8261509  78.0048752
  45.4158401 103.4912109  77.3278379  45.9526873 104.7779369  77.9170084
   9.5024163  49.0054321  62.3005962   9.3084580  48.9784575  61.3636398
   8.9595222  49.7183418  62.6371431  55.4816389 104.1684723  61.4887190
  55.8591700 103.6342430  62.1875048  55.9649420 103.9118671  60.7033491
  53.5352230  97.2554684  76.1561298  53.6802483  98.1824017  75.9664297
  53.4147358  96.8511486  75.2969170  51.3556671  78.1018448   9.0402699
  50.5815935  77.5409317   9.0894723  51.6576958  78.1731892   9.9457633
  86.9233608   1.0927507   1.7854522  86.1911964   0.9985730   1.1761045
  86.6288662   1.7522424   2.4136072  85.4468250 102.2682285  76.4722252
  85.7027721 102.5618839  77.3465776  84.4897842 102.2701740  76.4895201
  11.3802135  12.0186424  23.8771439  10.7714355  12.4602258  24.4692802
  10.9335399  12.0188975  23.0305529  33.3529687  17.7355647  58.6885452
  33.1932402  16.8123162  58.4927607  32.9982138  18.2053208  57.9337502
  21.1981368  21.0409808  55.4776859  21.9546437  21.3864613  55.9515762
  20.9873891  21.7191696  54.8359108  27.7245188  65.3093958  12.1839821
  28.4660053  65.3955030  12.7831614  27.8571963  66.0027409  11.5375292
  34.9362731  84.4749928   5.3382683  34.9651766  85.3247452   4.8985875
  35.6406784  84.5159149   5.9850836 112.1605015  17.7835405  41.8002701
 112.6385403  17.5169349  41.0150099 112.7084351  17.4863493  42.5266838
 115.7553864  23.7628770  47.3067236 115.6784058  23.3718944  48.1770325
 116.4832306  24.3796349  47.3847580   9.6363723  74.3251514  73.9053726
   8.7643236  73.9681911  74.0737247  10.1031125  73.6175108  73.4608173
  55.8737993  64.9355841   1.3175663  56.1464643  65.8126545   1.5870731
  56.4621258  64.7129965   0.5960689  21.4978361  15.0610125  34.4726682
  20.7151890  15.5612373  34.2414331  21.5674663  14.3953228  33.7883878
 115.9830856  20.3836155  59.6775532 115.2650642  20.3038788  59.0496111
 115.7381916  19.8012102  60.3966284  68.3871794  78.5980272  11.6757834
  68.4891033  78.2146072  10.8046746  68.0560970  79.4810104  11.5115809
  91.8150520  11.8587947  80.1135921  92.1534824  12.7435613  80.2510262
  92.5734997  11.2894261  80.2432728  41.4841700  59.0446854  74.1437006
  41.6038322  59.7993946  74.7201824  40.8288860  58.5060406  74.5872068
  13.5913968  41.1036825  39.1568851  13.8318253  41.9528246  39.5275331
  12.7208078  40.9250164  39.5123887  71.9009638  92.9055977   0.0475925
  72.7721405  92.5781918  -0.1762222  71.7499590  92.5940037   0.9399681
 102.6991177  48.9641047  35.2925086 103.4208012  49.0323591  35.9176087
 102.1078873  48.3180475  35.6788778  16.8517578  39.6177220  66.4051294
  16.0020065  39.7336316  65.9800148  17.3077381  38.9777970  65.8584929
  14.1918015  32.4907637  61.2287331  14.5523238  31.7112231  61.6513157
  13.3228505  32.2215533  60.9309387 115.4959679  43.3064079  50.6718302
 115.9167480  44.0300369  51.1360884 116.1855221  42.9465485  50.1139307
 103.6398411  34.2744446  75.4309559 103.6539268  34.5945144  74.5289612
 103.4382725  33.3421183  75.3511429 113.2288170  24.0167761  40.8724165
 113.5345554  23.3039260  41.4333105 112.5163460  23.6314774  40.3623533
  97.3877716  33.6271572  51.3028765  96.7342091  33.3792520  51.9568110
  97.6358032  34.5209956  51.5390253  36.5908861  61.2908077   4.8304060
  35.9585071  60.5846453   4.6974912  37.0616221  61.0440731   5.6264973
 105.0941563   9.0579581  84.1274643 105.0294781   8.1876528  84.5206833
 105.6566715   8.9341629  83.3629513  16.9399107  14.2409003  49.7379684
  16.6763520  15.1129079  49.4440794  17.8456616  14.3494618  50.0279045
  97.5034237  27.9907584  75.6022358  98.0813217  27.2861266  75.3093958
  97.6893234  28.7162971  75.0061893  21.9609904  35.3682518  43.7438869
  22.2146177  34.8208404  43.0007553  22.1218991  36.2640524  43.4474373
  20.2446270  12.4318004  79.5801163  20.2652240  12.6843822  78.6570692
  21.1103344  12.0584619  79.7456455 103.4577465   9.5748895  37.6055598
 102.6147270   9.1846818  37.3747230 104.1076183   8.9749992  37.2394538
  30.9519553   0.4954230  50.4184389  30.1190233   0.4182421  50.8837271
  31.3689065   1.2678322  50.8002329  27.3341012  14.7856236  79.7029829
  27.5717306  15.5623925  79.1966295  26.7706156  14.2806721  79.1166878
  18.2531643   4.5157266  36.7738581  18.1677186   5.4689372  36.7917705
  17.3692656   4.1994926  36.5869117  63.7840414  65.1268339  24.5901561
  64.7022390  64.8909473  24.4578481  63.3796883  65.0067186  23.7309122
  98.6722469  50.4346752  87.6283932  98.5864544  49.7116852  87.0069790
  97.7780056  50.7539463  87.7493286 113.0217171  15.7273579  44.0013933
 112.3411369  15.1600802  43.6391401 112.8979111  15.6748486  44.9490976
 112.6349354  25.7770300  50.7637691 112.6315022  25.7407904  51.7202759
 112.1425819  25.0021195  50.4929590 109.1813850  18.3195710  89.2579937
 109.9902916  18.6333859  89.6622467 109.3386650  18.3959138  88.3168983
  44.0604448 103.8873196  15.0657380  44.1984320 103.7976360  16.0086858
  43.4019852 103.2250118  14.8559666  10.5775881  29.1122293  57.7622128
  11.1388218  29.0731597  58.5366297   9.8217529  28.5694432  57.9865503
 112.8641033  56.1801577  89.4574738 113.7723255  56.1002970  89.1659451
 112.9157257  56.1504078  90.4128265 113.9120865  14.3935525  38.8031602
 112.9864025  14.5656812  38.9755130 113.9881897  14.4257832  37.8495336
   3.0201045  32.2380733  22.5805044   2.4009813  31.9844937  23.2650590
   3.7797880  32.5731373  23.0567861  80.4295444  98.4695721  40.1101780
  81.1326694  98.3081436  40.7392979  79.8764896  97.6901627  40.1638889
  17.7022398  90.4804993   7.7338469  18.6148179  90.1947308   7.6917756
  17.2174263  89.8041821   7.2607821 112.9674244   8.7040192  63.3730650
 112.1335220   9.0757638  63.6605358 113.6001587   9.0009052  64.0270853
   6.1458278  32.7708960  78.0803108   6.9177926  32.8472972  77.5195408
   6.2641168  33.4499383  78.7444925  91.6229820  13.3802831   5.4069257
  91.4511013  13.9924622   4.6914348  90.9539318  13.5823536   6.0609645
  85.7662487  31.0232902  45.9062576  85.2789021  30.8405590  45.1029301
  86.2609863  31.8189955  45.7105112  88.2608223  35.6474090  72.1219158
  87.4056816  35.8660293  72.4922800  88.8837051  35.8552980  72.8183603
  86.7222786  80.0471878  17.2802556  85.7841110  79.9888277  17.4610209
  87.1201324  80.2217007  18.1331837  20.9272647  83.3365536   0.7812676
  21.2423253  83.8466454   0.0350972  21.4095616  83.6856174   1.5307862
  17.6709020  34.9158382  80.1150322  17.8688407  34.9123454  81.0515404
  18.2489693  35.5860782  79.7505474   7.1455598  61.8051243  76.0149765
   6.9138831  62.1565247  76.8746758   6.9731331  60.8662367  76.0856056
 102.8544617   0.3326926   1.0952608 102.9894066  -0.4037719   1.6916193
 103.4492588   1.0113820   1.4143799  40.8662462  16.5186357  61.9873238
  40.9843493  17.4666250  61.9273329  39.9423265  16.4060438  62.2107744
   5.8895433  52.3261690  73.9225960   5.9570098  51.5225124  74.4381714
   5.1556110  52.8004599  74.3132639  19.4207513  82.6845074  77.8626490
  19.4201779  82.6629257  76.9056892  19.7773349  83.5451508  78.0825949
 101.6526127  47.3867655  68.7351847 102.5859737  47.3556137  68.5252094
 101.5361023  48.2236242  69.1849947  67.3859978   4.9712542  69.6266794
  67.2504568   4.3097335  68.9482641  66.5384912   5.4088295  69.7072601
  25.2321315  55.8401585  86.6752625  24.5663166  56.5141296  86.8119621
  26.0571885  56.3236237  86.6331100  21.2028456  51.0651207  86.5637493
  20.6031752  50.3942823  86.2372494  21.8739033  51.1373568  85.8850098
  96.7208576  38.9323664  85.2192020  96.6547966  38.7333226  84.2852592
  96.3638401  38.1584382  85.6548691  77.3359921 109.4163119   7.9007626
  77.0864347 108.6145440   7.4412811  77.7019742 109.9792827   7.2185957
   9.4187528  37.9666567  53.8395643   9.2703718  38.4765768  54.6359301
   8.8115579  37.2300720  53.9101934 114.5546246  22.8029847  64.8231411
 114.0512753  22.4528813  64.0880871 113.9611721  23.4238863  65.2456760
 107.9333115  31.8555975  77.9909372 108.6368752  31.9872165  78.6264706
 107.5574780  32.7269888  77.8658009  47.3284531  33.4217525  75.3753567
  47.2992611  33.6392784  74.4436598  46.5321732  32.9128265  75.5275536
 105.3001022  14.0011251  70.7949162 105.8189297  14.3529832  71.5182781
 105.9391022  13.8292062  70.1032829  94.0384865   7.3190439  48.8459730
  94.5868587   7.9278404  48.3511162  93.6866951   6.7223495  48.1853437
  21.9733906  24.9356461  46.3497353  22.0631981  25.7911921  45.9299660
  22.3119044  24.3153501  45.7040787  90.7951260 102.2508335  43.3059692
  91.2703991 102.5348663  44.0867853  91.4760494 101.9303894  42.7144527
 109.1259575 106.0351753  69.9375582 109.2394924 105.3275871  69.3030071
 109.5362663 105.7073593  70.7378197   9.2722207  11.6080832  75.0903082
  10.1736212  11.9251871  75.1464748   9.3583816  10.6733537  74.9029875
  91.9788170 103.4607601  61.3651657  92.4580956 104.2801380  61.2420940
  92.6495457 102.8267479  61.6189194 115.7098866  17.4051821  50.8119631
 116.0867977  18.2087791  50.4536295 115.6504917  17.5675547  51.7534161
 104.4422340 105.4175282  91.0228348 103.5558224 105.3843403  91.3825512
 104.7658157 104.5199966  91.1000347  12.6257229  10.0809765  50.7042599
  12.8496695  10.9984541  50.5483246  13.3431613   9.7475553  51.2430954
  22.9479575   6.3653451  40.0836849  22.9125452   5.4287660  40.2781010
  22.3394394   6.4816755  39.3540215   7.8083807  38.9215279  32.7249098
   7.4572045  39.7012687  33.1549215   7.9707760  39.1980219  31.8230152
  25.2675819  77.2001743   2.8228775  24.3401861  77.3404789   2.6318741
  25.3260350  77.2513103   3.7769216  16.9933939  64.4511604  62.1250677
  17.3991668  65.0640202  62.7382421  16.9889367  63.6146069  62.5902414
  13.9372349  41.4966774  86.4751625  14.2167902  40.6913996  86.9106007
  13.2089603  41.2261820  85.9159851  37.1118402  99.9822330   6.6757071
  37.4770927 100.4136372   5.9032321  36.1661601  99.9864578   6.5277004
  28.0621624  24.1345072  83.4195328  28.5341477  23.5530829  84.0157032
  28.3640718  25.0125265  83.6522675  59.2545080   0.6778574   5.0955153
  60.0300407   0.3066678   5.5162239  59.5236492   1.5573573   4.8304206
   4.3468291  55.2336836  53.3053160   4.8339421  55.9921169  52.9832458
   4.0665179  54.7750854  52.5132656  25.3598714  60.3534460  40.5726767
  25.9224892  61.0118866  40.9802914  24.7226691  60.8609152  40.0700045
  20.3798175  46.1518574  79.9450779  20.0241256  45.6862640  79.1881514
  20.9623671  45.5182791  80.3639412 116.0152467  39.7573304  75.2165031
 116.5012519  38.9826918  75.4992819 115.6010270  40.0848484  76.0148668
 115.7486105   2.0204875  59.9343395 115.3446676   2.4300762  60.6993866
 115.5429469   1.0899771  60.0242519  14.0249658  38.3193731  47.0635748
  13.6770737  39.1769385  47.3080826  14.4529331  37.9992366  47.8576708
   7.0777106  32.2814298  83.3275986   7.1701318  32.2666144  84.2802143
   7.8962618  32.6655412  83.0134964   7.3328406  46.1623383  88.4124184
   6.9756788  46.1110258  87.5258350   8.0258721  45.5023146  88.4300232
 102.0675373  34.4998956  70.5018520 102.7459908  34.1968775  69.8984337
 101.2469769  34.3609142  70.0289869  40.2055502  35.1338553  78.2149696
  40.9774399  35.2559662  78.7676954  40.5574942  34.8490191  77.3716211
  44.9131584  21.4643359  76.9137621  44.1962337  20.9052801  77.2132730
  45.3630638  21.7275739  77.7165842  44.4465733   9.4602317  82.5364590
  45.2566719   9.9617600  82.4446106  43.9148331   9.7245210  81.7856979
  86.2329388  89.7669411   2.0799324  85.3526974  89.3951988   2.1367562
  86.5371609  89.5293999   1.2040009  36.8918109  38.3716989  49.7845364
  36.9122100  38.8275790  48.9431143  36.2347960  38.8432741  50.2965736
 100.8213139  20.6077099  75.6366634 101.0356522  20.0759387  74.8701715
 101.5391254  21.2378311  75.6993294  29.6501946  40.3511906  65.4248857
  29.1874552  39.8185611  64.7780418  28.9700842  40.6252909  66.0401487
  98.6252308  57.6927853  50.0083399  98.6364746  57.6831102  50.9654236
  98.8239288  58.5997534  49.7756290  15.0575089  66.1104918  75.1829672
  15.0772917  65.6162786  74.3634605  14.8730063  65.4536724  75.8543730
  42.7163076  24.5416617  90.3993797  43.4161520  24.4222426  91.0414028
  41.9764137  24.0513039  90.7576180 100.8649635  33.0133986  66.7179489
 100.3106976  32.9058218  65.9449959 101.5311718  33.6458206  66.4488125
   4.8870307  44.4794512  77.9570723   5.4670805  45.2356148  77.8676796
   5.4159242  43.8243866  78.4124804 102.9497719  61.9446802  70.3013992
 102.8260326  62.0735788  69.3610287 103.8099575  61.5313339  70.3753519
  74.1280222  87.6451778  20.3405142  74.5145321  88.5070801  20.1857018
  73.1933594  87.8184891  20.4527593 115.0544167  41.9038486  56.2054825
 115.7885075  41.7805529  55.6037045 114.3572903  41.3533401  55.8488369
  47.6854992 106.0434246   9.4651771  48.6422443 106.0632610   9.4433194
  47.4313545 105.7718658   8.5831904  39.1036153  44.1703749  71.6914368
  38.7701464  44.1021490  72.5860739  38.3281398  44.0734863  71.1387348
  56.4347935  97.5180340   6.1655343  55.5085897  97.2909641   6.2481081
  56.7890406  97.4033928   7.0473480 101.9581604  39.3597817  82.3622513
 102.4721146  40.0610828  81.9619274 102.4975681  39.0537572  83.0913734
 116.5090160 102.5537395  92.7709007 116.3428784 102.9553795  91.9180679
 116.2000890 101.6527939  92.6756001 103.7877846  30.3959894  87.2467804
 104.4313335  30.0667429  86.6193485 103.9486885  31.3388968  87.2824192
 104.0169334  32.4632668  80.3550816 104.1770649  33.1310058  79.6882105
 103.2782650  31.9579816  80.0155544  18.3666527  40.5484867  89.6567631
  17.6139557  41.1398077  89.6524429  18.2959878  40.0648117  88.8337803
  49.2094421  95.7877445  32.3146081  48.4111881  96.2612057  32.5488281
  49.7509336  96.4378929  31.8670249  58.0548334  96.3578033   2.0847702
  58.2131052  96.7057705   2.9623222  58.8991690  95.9969997   1.8143022
  51.9109011  89.1203785  21.8917179  51.1880779  89.6224785  21.5153503
  51.8558073  88.2650375  21.4655805 110.3734779  67.2222376  55.0124216
 110.5560875  68.1448269  54.8343420 109.5072556  67.0721102  54.6338177
 111.9186020  51.6103077  55.6844425 112.7815533  51.3832378  56.0308361
 111.7795753  52.5156450  55.9624195  12.4144280  14.8745322  69.8673201
  13.2509828  15.2699459  70.1123810  11.7856205  15.2390325  70.4901934
  31.4230251  54.7140884  62.7591276  31.7530870  53.9773607  63.2734394
  32.0792675  54.8409462  62.0739365 106.7166710 100.2641010  51.2072611
 106.7010593 101.0151577  51.8004751 106.9102764  99.5163536  51.7726040
 113.6454105  14.5339358  82.1519947 113.5402775  14.3157279  83.0780411
 113.1991673  13.8262093  81.6870022  99.5970154  18.1160271  86.1084747
 100.0589275  18.4241891  85.3287888  98.9086246  17.5442708  85.7687092
  38.7377453  78.2247400  90.8578014  38.3337140  77.9127216  91.6675186
  39.4879723  77.6451445  90.7256699  26.9753432  12.6129758  63.9538336
  26.9745684  13.4261799  64.4587421  26.4038372  12.0243549  64.4469213
 106.7213726  42.7922726  43.3475828 107.6656723  42.7033377  43.2186413
 106.4115524  41.8956232  43.4750795  72.1877909  92.9176044  10.8994329
  72.4739599  92.3447323  11.6108823  71.4702320  93.4270382  11.2760210
  75.5293083  55.6511450  56.8253088  75.3084421  56.1598206  57.6055002
  76.4641619  55.4667568  56.9163227 106.3855457  59.3013954  53.6643744
 106.8243504  58.7164116  53.0467367 106.2923527  60.1263809  53.1879854
  10.8097613  35.8274221  61.8501139  11.2361586  36.6513371  61.6143608
   9.8955745  36.0661483  62.0034266  30.0905585  48.4348917  73.8025522
  30.3462791  48.9534187  73.0396843  29.8851562  49.0839767  74.4754076
  38.8706875  49.1668749  67.3403645  39.4115496  48.5155392  66.8937540
  39.1909170  50.0080824  67.0146990  35.3495622  96.8876076   2.8882399
  35.9393811  97.6409435   2.9169780  35.6324649  96.3340187   3.6160713
  84.7080135  49.2080069  55.6707048  84.5818710  48.9411688  56.5812635
  84.4076633  50.1164579  55.6435347  13.6987233  95.7649422   3.0897471
  14.2887962  96.3815212   2.6562995  12.8552008  96.2167835   3.1130821
   6.9551194   5.9115452  58.2517719   6.4477372   5.2553403  58.7294626
   6.4898551   6.7335606  58.4068537  60.6544542  61.6979933  18.8098300
  61.5503454  61.9200516  18.5562468  60.2523136  61.3696480  18.0056524
  14.3910921  45.3286028  90.7196426  13.6848772  45.8809948  91.0548401
  14.8489165  45.0235605  91.5029621  22.3536754  37.9420209  25.4934406
  22.5484753  37.0370269  25.7368946  21.6186094  38.1881833  26.0549688
   4.0777186  35.4330683  58.1938934   4.8344269  34.8483086  58.1529236
   4.4558355  36.3090014  58.2713795  87.5923634  35.0403738  75.3232431
  87.6174450  35.2841091  76.2485504  88.4144688  35.3751278  74.9650192
 115.9125328  51.8966341  72.9904461 115.9384060  51.2363291  73.6829472
 115.3782368  51.5007973  72.3019171  35.0925136  41.2491703  83.7561798
  34.5439053  42.0316887  83.7021351  34.6809173  40.7145166  84.4351196
  78.0566359  92.8673553  82.6041222  77.9830456  92.3614693  83.4133720
  77.6032925  92.3375320  81.9483852   5.4836386  35.0023913  63.1293201
   4.8216230  35.0356889  63.8198709   5.1725346  35.6218219  62.4692059
  39.5887923  51.8362761  66.4523649  39.3973351  52.4255276  67.1819973
  39.1809225  52.2539568  65.6938028  21.7556238  47.7924061  70.8264828
  22.3691988  48.3117294  70.3068066  21.6483617  48.2892895  71.6375494
 106.6568851 102.5584030  93.9468670 106.0787296 102.6072025  94.7081661
 106.0663891 102.5996017  93.1946373  15.5605292  64.0093708  90.1791477
  15.8427227  64.1593933  91.0814190  15.6519449  64.8623991  89.7546291
  71.9293976  65.1326752  45.7877731  72.5675678  64.4456816  45.5953979
  72.4546432  65.8622456  46.1165285  56.5865278  31.4048195  83.2654285
  55.9010601  32.0727849  83.2519150  57.3195982  31.8230057  83.7170506
  16.5464783  47.0927000  81.1615181  16.6103780  46.1482763  81.0193253
  17.2859287  47.2994280  81.7331028  29.1864395  19.0228391  34.0314722
  28.8040781  18.4259701  33.3882141  28.4327030  19.4383144  34.4503927
  19.1864669  34.0298605  70.2592659  18.6394763  33.4307170  70.7672644
  18.7768471  34.8868489  70.3776503  97.1146965  53.1056404  86.6093636
  96.5694332  53.4010696  85.8802319  96.8259144  52.2084236  86.7762089
  28.3488515 108.5139244  10.2072012  29.2357925 108.6874287  10.5225790
  27.8909162 109.3482744  10.3091097 101.0437584  16.9188666  44.2963219
 100.9212303  17.8155267  43.9845276 100.1606369  16.6158628  44.5072985
  88.6264515  34.1889381  67.2363853  89.0060902  34.5885420  68.0189610
  89.1348267  33.3885217  67.1055317 115.3153706  50.9778500  78.7929058
 115.5741787  51.0037851  79.7140884 115.8334351  51.6681767  78.3790398
   0.9230582  38.7070990  67.7433681   0.4899909  39.1171050  68.4920883
   0.2518519  38.6844921  67.0613098 115.7219028  49.4868469  85.3017807
 116.2669086  49.5635128  86.0849285 115.0373268  48.8641500  85.5464077
  42.0100307  41.2093353  70.4815435  42.5393009  40.4824400  70.8097601
  42.2817326  41.3106632  69.5693207  25.3559399  31.0912609  40.8527994
  25.4597092  30.9360504  39.9139833  24.8253298  30.3561544  41.1598873
  45.5893469  65.5159235  78.8403511  46.5215206  65.6528711  79.0092468
  45.1856327  65.5194998  79.7082424  13.9528239  55.3558540  60.1069832
  13.0195272  55.1977921  60.2491283  14.0991020  56.2414932  60.4393530
  30.3619742  67.7189302  76.7086935  30.6706929  68.4343338  77.2646856
  29.6342611  67.3333549  77.1965408  92.1931839  30.4760742  53.4593487
  92.1473789  30.4313135  54.4144058  91.2924385  30.3318954  53.1693459
  92.7643490  67.1459007  75.3025913  93.3296680  66.8292952  74.5980358
  91.8870735  66.8533373  75.0555515  21.1875415  31.2508106  76.0586786
  21.9108391  31.0925698  76.6653395  20.4042363  31.2262917  76.6082859
   4.2007941  46.9189453  83.5922050   4.1640210  46.7497396  82.6508045
   3.4328017  47.4625492  83.7680340  13.4577763  22.1082664  90.8210182
  13.1250823  21.2144947  90.7390594  13.0952764  22.5690937  90.0644016
 114.2415905  30.4187417  80.4225349 114.3631268  29.8023605  81.1447144
 114.5769787  29.9566817  79.6542597 115.8827877   6.6563654  -0.1162581
 115.6995678   6.5355802   0.8154460 116.7799282   6.3414538  -0.2267239
  16.2177896  45.9232092  88.4983540  15.6609118  45.8546352  89.2738628
  15.9814012  46.7643261  88.1073570  35.5351782 107.8457069   1.7161050
  35.9124160 108.3710289   2.4217670  35.9021831 106.9712543   1.8460006
  32.5759482  26.5069556  26.3779449  32.2005033  27.3654485  26.1823320
  31.8439817  25.8977652  26.2812734 103.2467079  61.3805723  56.3209200
 103.4284592  60.4876804  56.0277653 103.7172318  61.4606953  57.1506310
  29.0948963  11.1052012  66.3605499  28.1858420  10.9422421  66.1089659
  29.5799422  11.0796607  65.5357409  22.8885317   0.6744584  64.4614458
  23.5193920   1.0356137  63.8386965  23.4263277   0.3280679  65.1735020
   6.7764568  32.3353720  88.6014462   7.6152343  31.8765163  88.6476612
   6.1887324  31.8159151  89.1500664 116.3094425  13.2127619  71.2398434
 116.0401440  13.8952744  71.8545675 116.4361858  12.4360740  71.7847538
  43.0839872  20.8232212  84.2313290  43.4258413  20.9115362  85.1210308
  43.2543802  19.9104667  83.9987755  15.6325161  47.2922897  35.1859760
  15.1752388  46.6558123  34.6364069  16.4547002  47.4595976  34.7252655
  31.2926316  11.5402067  76.8376064  32.1437979  11.1623192  77.0588493
  31.1461449  12.2087455  77.5068045   1.4519307  77.0864153  68.5842562
   1.7054863  77.8927517  69.0334320   0.9940858  76.5746021  69.2510843
 105.9598255  55.8023500  77.3223782 105.0417137  55.8250952  77.0525932
 106.4274311  56.2523508  76.6187620   7.1907127   3.2614702  40.4675484
   6.4745092   2.6765341  40.7148027   6.7637700   3.9770415  39.9964762
 110.7269096  57.9121351  71.0937452 110.8915615  58.0071306  70.1556110
 110.1555538  57.1470547  71.1603737 103.4176350  40.3558540  47.1765423
 103.6043644  40.8498573  46.3782167 102.9049397  40.9576464  47.7161884
  58.5862207  89.7658730   5.0457948  58.5699415  90.6799793   5.3293175
  57.8066778  89.6709442   4.4984990  78.8814592   5.4214692  12.9744220
  79.2803717   5.7802427  12.1817160  79.0023422   6.1047888  13.6337340
  93.7223339   7.4416041  60.3903770  94.6520424   7.2202903  60.4441404
  93.3505726   6.7753583  59.8123264  31.7013144  60.2504587  61.2979650
  30.7455444  60.2946043  61.3260746  31.9254041  60.4826450  60.3967953
  30.0972605  19.3373680  38.1089473  30.8470583  19.8656571  37.8351855
  29.6102762  19.9044251  38.7068796  31.7129779  30.8299756  36.7033076
  30.9649944  31.0910916  37.2404933  32.3981118  30.6135058  37.3357368
   5.8635080  84.4767189  85.0138950   5.9107590  85.3691006  84.6708870
   5.1826465  84.0545082  84.4900608  24.8142052  37.0209622  76.1571503
  24.8619485  36.6086245  77.0196629  23.8871241  37.2297835  76.0424900
  16.5723073  56.4026356  65.7166958  16.0186934  56.9397354  65.1498938
  17.1329510  57.0321703  66.1701250  23.1941795  52.2217846  84.5773602
  23.8128734  52.9435968  84.6888828  22.5620198  52.5451946  83.9354706
  22.4649286 106.7349148   3.1509018  22.3021817 107.3720360   2.4553290
  23.0262733 106.0746861   2.7444178  15.0907755  14.3305242  86.3436794
  15.4910302  15.1124609  86.7239475  15.7144237  14.0422070  85.6772137
   1.8153639  67.2827816  61.0086679   1.6728608  68.2116461  60.8266401
   1.8390228  66.8703794  60.1451874  18.0038810  37.4778271  77.7728319
  18.5695672  36.7057586  77.7846622  18.3651376  38.0498385  78.4499788
  22.6272321 108.3048344   1.0550356  23.1236911 107.8655910   0.3645074
  21.7160964 108.0670261   0.8832411  28.8252163 103.8776875  23.2249928
  28.1956196 104.5875645  23.0988312  29.0374684 103.9087677  24.1578460
  31.2031436  58.5214853  91.8393135  30.3727055  58.8047838  92.2218704
  30.9603095  57.8264713  91.2275791  98.1461620  35.2687168  91.4232159
  97.9995632  35.5624366  90.5240631  98.0188084  34.3206358  91.3892555
 102.3235989  36.7174339  68.9878082 102.1241474  36.4530706  68.0897188
 102.1255970  35.9433651  69.5149183   0.9522273  45.2959633  58.8118410
   0.9316935  44.8892975  57.9455662   0.5043659  44.6700478  59.3809414
 106.6485691  21.2796640  51.7398167 107.2334099  21.3789320  50.9885979
 105.7686996  21.3123059  51.3643217  38.6160684  24.3862796  77.8351450
  37.9334140  24.2332911  78.4884548  39.4207025  24.0796351  78.2531929
   2.0294677  11.3864446  58.3714867   2.6131570  11.0442686  59.0485764
   2.1109769  10.7646000  57.6483679  42.2917557  60.5955982  69.8548841
  41.5814686  60.2037430  70.3629971  41.8928289  61.3564920  69.4328308
  37.9107523  29.0210509  55.9409857  38.1700921  28.1845546  56.3273144
  38.3400273  29.6801400  56.4864731  96.5095234  31.9000125  89.1121292
  95.6244469  31.5801024  89.2868519  96.8174076  32.2266102  89.9575710
   5.8279824  31.5553498  70.7483196   5.7696658  31.7173076  69.8067236
   5.7195908  32.4187803  71.1470270 112.4267006  26.1635137  63.2733727
 112.1270561  25.3699112  63.7168121 112.9006004  25.8443451  62.5053978
  29.0416026  15.0401068  94.1812992  29.0143371  14.5383251  93.3666134
  29.8249483  14.7237718  94.6313286  23.9766002  47.4844408  54.9726152
  23.4790325  46.6687441  54.9152088  23.7602210  47.8367329  55.8359241
  19.9774039  41.4749908  73.3002996  20.1452041  40.6163120  73.6885691
  20.8002448  41.7084789  72.8705931  96.2859726  78.5508013  82.3450470
  97.1692944  78.6095619  82.7090931  95.8620453  79.3663406  82.6122665
  29.4505191  47.3470736  56.2547636  28.9665484  46.8372345  56.9044256
  28.9178872  47.2913980  55.4613924  23.6187315  39.7305560  63.7816811
  22.7867460  40.1849890  63.6493111  23.4408092  38.8256478  63.5253239
   1.8686354  35.4665399  82.6092911   1.0146478  35.0398159  82.5396919
   1.8234104  35.9608054  83.4277630  84.6908474  22.5148177   8.0239642
  84.8591900  23.3873534   8.3797395  83.8687801  22.6070285   7.5423801
 106.0099697  41.9629812  47.1011448 106.3677883  42.8507280  47.1114397
 106.1785316  41.6470861  46.2134361   9.2366409  39.1953540  73.0409384
   8.7818813  39.8185658  73.6075354   8.8069308  39.2870617  72.1905422
   9.1110611  67.0699453  61.3027191   8.5402733  66.5841961  60.7073307
   9.7767729  67.4567461  60.7339954  57.7089691  27.1259618  58.5610247
  57.5881147  26.4561009  57.8880358  57.4280691  27.9395866  58.1422901
 102.3642635   4.5732787   4.2886645 102.7807999   4.2066190   5.0685918
 101.7900372   3.8753942   3.9733040 108.3944511  43.1214666  86.6082191
 107.8924274  42.5239134  87.1624088 109.2728901  43.1197643  86.9884491
   4.6346027  49.5586681  63.6792231   5.0668049  50.2618313  64.1639805
   4.7474289  49.7975349  62.7591991 105.6455994  16.8592739  79.5228577
 104.8094273  16.6752541  79.0948534 105.4840946  17.6531076  80.0327396
  41.4923990  78.1005560   0.0347293  41.9790787  77.8932487   0.8324779
  41.6883564  79.0224134  -0.1326405   6.5390372  69.2978764  57.7379990
   6.7312115  69.8854733  57.0072269   5.7368922  68.8454628  57.4770069
 107.3096275  20.4820943  86.7894173 107.9926491  21.0589838  86.4474869
 107.5522327  19.6111369  86.4750767 101.9264030  17.0067871  77.3282528
 101.6759014  17.3193586  76.4588928 101.1075020  16.9951093  77.8237295
  31.5257812  53.7924862  82.6307011  32.2124648  53.1527090  82.8188038
  31.7622972  54.5584631  83.1537437  29.8588538  69.3572187  69.6059132
  30.1648927  70.2258444  69.8667955  29.1816998  69.5284319  68.9514065
  50.3717041   6.8955141  92.6902390  50.1656723   6.8767738  91.7556667
  50.7979679   7.7419645  92.8246021  15.7230735  38.3488393  55.8213377
  16.1452854  38.8026738  55.0919485  16.0601974  38.7864161  56.6030693
  63.4253597  99.7198200   7.5832558  64.2751074  99.3268394   7.3839360
  62.8050184  98.9935207   7.5208032  91.7037582  38.9474034  45.2695799
  91.3086128  38.0755711  45.2706909  92.2710133  38.9542532  46.0405540
 113.0548668  39.4932675  85.4898071 112.6947117  38.9723039  86.2075329
 113.2096863  38.8603210  84.7886372  71.7842197  73.4194660  21.9383693
  72.6211643  73.1375551  22.3075294  71.5250874  72.7036142  21.3581634
   6.5217656  35.8022761  69.3461227   6.9746906  35.6636047  70.1779032
   5.9629637  35.0315571  69.2462873  19.7126603  42.7572012  90.1115322
  19.2983031  41.9009256  90.2179909  18.9811361  43.3668900  90.0146580
   2.3868850  30.6627250  83.0665016   1.8422677  31.0881758  82.4042225
   3.2841134  30.8839679  82.8169727  48.3015919  31.2376642  94.4003105
  48.9411497  31.2434387  95.1124668  48.5452366  30.4819703  93.8657093
  12.1075833  40.3651810  75.7304764  11.4203393  39.6990585  75.7161045
  12.7663076  40.0430202  75.1152325  20.5030918  14.4016099  24.6651697
  21.2336254  14.0770042  25.1916528  20.6979442  14.1047084  23.7762856
  97.5446701  35.7578206  77.0461988  97.6743317  34.8471951  77.3111200
  97.3976517  36.2274957  77.8671885   8.6892360  12.5619042  37.2074842
   7.9589260  12.7230954  36.6100764   8.4418833  13.0122030  38.0151224
 114.8432446   3.5197815  93.8265419 114.2311954   4.0919140  93.3636284
 114.3810654   2.6848704  93.9009857  22.6630950  24.5082283  75.6370449
  23.1654119  24.7099304  74.8475981  23.3108902  24.5162630  76.3416910
   9.2938602  30.0464797  82.9186440   8.6754966  30.5497193  83.4483719
   8.8589585  29.9480987  82.0716476  96.6200447   9.7457629   5.1776928
  97.3919487   9.6723485   4.6164486  96.1090851   8.9592999   4.9863046
  43.6619186  82.4867439   4.5109677  43.9660740  82.3389339   3.6154935
  43.1917095  81.6849709   4.7396284 110.8214664  30.0195312  70.8108997
 110.1172352  29.8981571  71.4477348 111.1972809  30.8724141  71.0290384
 103.3969212  64.5017004  37.9382014 102.8362274  65.2026653  37.6057839
 103.4424496  64.6583462  38.8813996 110.0021172  20.9400129  77.8067636
 109.3056297  20.5154228  78.3076239 110.2595997  21.6900206  78.3428812
  66.8831062 109.6604252  81.5761757  67.2286177 108.8498402  81.2022686
  66.1394405 109.3801689  82.1096992  38.6240792  94.1207314   8.3407211
  39.0851688  94.5198536   9.0785092  38.6048722  93.1863308   8.5474664
  16.6534722  28.5268736  70.9861088  15.8474720  28.0810452  71.2465572
  16.4173234  29.4541836  70.9623957  34.0721059  30.9343505  68.2783890
  34.9204969  31.3766599  68.3071041  33.6003566  31.2714434  69.0400028
  72.6899052 108.9205933   3.4738442  72.1046925 108.6465263   4.1799936
  73.3847046 108.2622147   3.4694651  76.7974854   3.2505637   6.8191200
  77.2919750   2.8144303   7.5130218  77.3553038   3.9803493   6.5498984
  68.9325094  83.1637478   3.4187618  68.3450079  83.7985992   3.0088472
  69.6886158  83.1241989   2.8331241 104.6587753  23.3996010  86.1363220
 104.6197033  23.3130074  87.0887947 104.6600819  24.3442059  85.9815598
  13.1238425  36.8097901  75.4883862  13.8896620  37.0770597  75.9966421
  12.8090179  37.6192451  75.0860214  29.4984674  22.5134015  28.0184841
  29.4381094  23.3167315  28.5354471  28.7490845  22.5540519  27.4243426
  53.2926846  20.3972387  56.8533897  53.3518887  19.8955023  57.6663971
  53.2734632  19.7339916  56.1634874   3.3812320  41.5329885  81.7752075
   3.8473541  41.5112591  80.9394550   3.9920026  41.1425638  82.4003220
  96.1190891  52.7826214  20.1474380  95.6206989  52.0985794  20.5945635
  95.4630661  53.2700539  19.6491611 108.5245991  21.8327188  63.9106178
 108.9362717  22.1826768  63.1205034 109.2522335  21.6862726  64.5150423
  32.7854252  30.9975457  59.9949503  31.9442964  30.6699896  60.3134441
  33.1974220  31.3886118  60.7653761  11.0566175  26.8634963  82.5123310
  10.8009171  26.1827540  83.1347752  11.8714130  27.2188616  82.8673744
  97.3993301  16.4488935  83.9928246  97.8512383  15.7912564  84.5215321
  96.4693069  16.2685823  84.1298485 113.9649582  26.1331677  77.1618700
 113.5306072  26.0527611  76.3126945 113.5343456  25.4804373  77.7139139
 108.6347866  21.1487055  33.4656525 108.7526226  21.9480419  32.9524183
 108.1412888  20.5648160  32.8896618  14.4485712  46.1664724  57.4671268
  13.6811399  45.9812689  56.9258499  15.1745856  45.7480001  57.0045090
  95.1779842  30.8351374  70.7467318  94.7509480  31.6178799  70.3986120
  94.5620155  30.4947376  71.3955307 103.3303452  38.3665037  65.2361202
 104.2223740  38.5149264  65.5499411 103.0488396  37.5683427  65.6832552
  10.0661731  36.5359783  73.4677601   9.7500163  37.4338651  73.3673906
  10.0543904  36.1772990  72.5803804 111.7649269  41.1081028  55.8761406
 111.0817623  40.4800510  56.1108255 112.2802734  40.6615591  55.2043867
  22.5139785  30.6646943  73.6400461  21.8679595  31.0369635  74.2403030
  22.2326612  29.7579861  73.5176706  48.9484453  28.4441900  48.1387329
  48.2425928  29.0541196  48.3531857  49.1743612  28.6487842  47.2313595
  87.1965885   3.1315562   9.8181456  88.0033398   3.6347091   9.7075433
  87.2223282   2.4805076   9.1169286  25.9157944  12.3949409  92.6298046
  26.4566875  11.7559624  93.0938816  25.8877993  13.1535280  93.2128906
  13.5559428  44.0755463  45.6308126  12.9115689  44.3437052  44.9757528
  13.1711626  44.3384314  46.4669132  42.0984602  54.3146658  71.3983536
  41.9145203  53.4598160  71.0089588  42.6455402  54.7598886  70.7512760
  61.0591459  77.4576330  88.7715912  60.4222536  77.1250772  89.4040489
  61.7674208  76.8138695  88.7838364   8.2173830  79.9226427  14.7034442
   8.1076610  79.0520811  14.3209302   7.5074893  80.4415989  14.3253362
  45.1379728  76.4477634  64.9282026  44.4647551  76.6970444  65.5613470
  45.4875231  77.2801256  64.6100569  21.0976887  56.6546726  87.3004818
  21.3539100  55.8778763  86.8033218  20.1406503  56.6415739  87.2888660
  10.3989613  59.4606256  76.3131189  10.1154625  60.0598001  77.0036602
  10.0331879  59.8308086  75.5097485  28.0815005  53.6637688  72.2204685
  27.1668839  53.5585833  71.9584751  28.5706306  53.6386776  71.3980627
  25.9014583  36.4798331  57.7168512  25.5818176  36.4985371  56.8147898
  26.2301946  37.3651695  57.8728724  48.0184889  51.0561609  91.9528294
  48.0339289  50.3423977  92.5904274  48.8910389  51.0448217  91.5594292
  50.2816629  96.9714546  61.8612432  50.3714514  97.8821182  62.1420717
  50.3878975  96.4615726  62.6643372  14.9233973  56.4543390  89.6065712
  14.4472575  57.2465134  89.3576050  14.2390335  55.8259487  89.8367977
  28.0286694  32.7916217  86.6370869  28.1541705  32.0264816  86.0758018
  28.9121389  33.1309462  86.7805195  28.6354661  74.2175388  82.3060703
  27.7037168  74.1388416  82.1014214  28.8219213  73.4646320  82.8669643
  55.4178524  66.2486649  86.4654446  54.9395704  65.4448700  86.2619877
  56.3264704  66.0506344  86.2386703 115.6592274  51.0358000  81.5575600
 115.8444118  50.1885557  81.9626808 115.0059032  51.4374733  82.1303177
  17.2712553  46.2357473  63.1907225  16.9326723  45.3525066  63.0441570
  16.4903402  46.7876768  63.2328796  25.2477670 107.1730614   6.5467739
  24.3375707 107.0152187   6.2960601  25.7531762 106.5612316   6.0115629
 114.5205498  53.6706018  55.7509470 115.0140953  54.1706610  55.1008892
 114.7253323  52.7561760  55.5556822   7.7739221  15.8691299  47.4274206
   7.2114438  15.8452511  48.2015514   8.4617138  15.2293086  47.6112747
  35.9901071  27.2102904  80.0595570  35.0726295  27.4802113  80.0996876
  36.2769198  27.4661684  79.1829205  15.8637905  72.3752880  82.2371483
  16.0123014  72.2899389  81.2953949  15.9904706  71.4908934  82.5807190
  68.1213760  86.5221500  30.4705501  69.0481567  86.3136005  30.3530049
  68.1212187  87.3630428  30.9278560  23.9813423  19.1944373  57.8755665
  23.7561584  20.0856137  57.6084948  24.3196893  19.2894983  58.7659121
  56.7512894 101.5395069  13.3976495  56.5768719 102.0346069  12.5972211
  57.6869011 101.6637993  13.5570788  10.0360918  10.1650524   6.3737231
   9.6782160   9.5073622   5.7774007  10.6758225   9.6870518   6.9014460
  27.1228623  44.5575905  75.8030033  26.5145254  44.3644619  75.0896597
  27.6900721  43.7879276  75.8490562  65.5285263  87.5300026   9.8086053
  64.9775410  86.7486954   9.8554569  64.9993944  88.2205200  10.2079022
  22.5273895  47.0533943  28.7922239  22.8122497  47.7915287  28.2534790
  21.8211436  46.6480970  28.2890511  41.3611174  43.8634586  53.9440203
  40.9838295  43.8970804  54.8230839  41.0178804  43.0534029  53.5668898
  28.4419727  94.5683193  56.7811346  28.8331866  94.4307709  55.9184313
  28.6039615  93.7501431  57.2507906  18.5447121  73.5744143  77.8108835
  19.2047000  74.0858507  78.2789469  18.0475020  74.2233944  77.3130465
 107.6782608  46.6625547  75.4798985 107.6216698  45.7385731  75.7233953
 107.6255035  47.1331263  76.3117695   3.6266366  11.0454369  87.9540730
   4.0317577  10.6312752  88.7160301   3.8824716  11.9656420  88.0173492
  16.7613780  61.4523649  65.9748840  16.5650547  62.2409964  66.4805984
  16.1448503  60.7977819  66.3029814  89.4276714  54.4181776  54.7438478
  89.9205685  55.2327633  54.8424864  90.0978756  53.7464237  54.6181202
  28.8391852  56.5466213  82.5109577  28.0471730  56.0100174  82.4792767
  29.4764042  56.0057974  82.9775429  30.2250028  28.9873528  78.9364386
  30.3920269  28.6172342  78.0696344  30.6064534  28.3543301  79.5447254
  48.5458803  34.6717334  69.2425823  49.1414356  34.8173404  69.9776602
  49.1223764  34.5247316  68.4927368  49.8596239 104.9804497   5.0300777
  50.1197863 105.2854633   4.1608757  50.6333685 105.1226902   5.5753452
  77.5374794 100.4060364   1.1060838  77.5294828  99.5656109   1.5641806
  77.7248192 101.0495472   1.7894781  11.0837066  87.5218868  75.6144381
  11.2877011  87.2078133  76.4953279  10.4715884  86.8742371  75.2650118
  44.0678644  19.9155903  50.4160547  44.3623066  19.4382131  51.1917162
  43.3267784  19.4061160  50.0882483  22.7409649  51.9524336  60.4925728
  22.0917964  51.3151455  60.1947880  22.9312229  51.6966438  61.3951254
  61.2939692 107.6483250  11.2348390  60.3494501 107.7986813  11.1960828
  61.6577625 108.4841061  11.5269935  32.0721745  99.4134712  64.3782663
  32.0034957  98.6203098  64.9096966  33.0060172  99.6236038  64.3811703
  99.1374874  67.3513412  66.4471054  99.5514202  67.0842791  67.2678185
  98.5174751  68.0343294  66.7027187  -0.0550683  37.1150661  59.3774366
   0.4650839  36.4793444  58.8859797   0.3591920  37.9578590  59.1921854
  38.2651520  32.6303434  43.2055759  38.4967637  32.9459763  42.3321009
  37.4959636  32.0783377  43.0646181  32.7515745  29.1082382  74.9130201
  32.6923871  29.8325920  74.2900896  32.9204392  28.3383965  74.3698215
  17.3952687  25.7844687  75.7748842  17.8098428  25.6384587  74.9245644
  16.4659035  25.8925653  75.5728245 116.0577774  50.2264500  44.9479151
 115.7937145  51.0100174  44.4657087 116.1083317  50.5122328  45.8600569
  25.2885652  60.5618525  69.8284578  24.3690085  60.3520584  69.6652651
  25.3089237  60.8573914  70.7386637  31.4368248  37.3137164  78.0070925
  31.7497778  36.4786577  77.6592827  32.1307421  37.9373932  77.7932310
  63.8604927  99.9947071  13.5395563  64.0063095 100.3415108  14.4197226
  64.1195250 100.7073498  12.9553676  34.4775701  44.5149469  60.9070253
  34.3432808  45.4228592  60.6351757  34.4515562  44.0144110  60.0915384
  16.4333034  50.6238365  38.3359551  16.8675280  50.4179859  37.5081229
  17.0330322  50.2999592  39.0080118  11.8377829  40.0557947  82.4026585
  12.4000967  40.8133841  82.2411156  10.9745765  40.4310083  82.5767803
 108.1414700  17.7026641   3.3573478 108.4352589  17.0898092   2.6833063
 108.0841923  17.1739554   4.1532236  28.5348797  45.7760286  53.6842728
  29.1402435  46.1675644  53.0546188  27.6755452  45.8522320  53.2695818
  72.9168081   3.9844728  14.6904278  73.5959959   3.4814140  15.1397252
  72.0943546   3.5955751  14.9880111 112.6284599  65.8945990  51.4435339
 112.0984268  65.7321644  52.2238636 111.9953823  65.9260178  50.7262707
  70.1767826  80.1102257  84.8184299  70.4945230  79.2966747  84.4267750
  69.5321560  79.8279095  85.4672623   9.9561608  33.6018419  79.5654297
  10.3999531  32.8291512  79.9150467  10.5744433  33.9673662  78.9327002
  28.4018159  64.5316219  79.7640944  28.7293291  63.8366985  79.1930866
  27.9625821  64.0684319  80.4773712  10.5585122  51.5850687  64.4097900
   9.8207343  51.7146111  63.8138628  10.1605880  51.2551689  65.2154303
  77.6780367 105.6853008  17.9001832  78.1700897 104.8960209  17.6740253
  76.8297672 105.3604412  18.2020664   2.2928435  51.8732595  58.3830929
   1.9598579  51.2699318  57.7187490   1.5162817  52.3371267  58.6961555
 108.0514717  80.7054615  68.9013290 107.1212292  80.6200600  68.6925411
 108.3687019  81.3860035  68.3076382   2.3418750  48.1464291  62.0949411
   1.4801966  47.9792643  62.4767780   2.6547635  48.9315367  62.5443220
 111.1636257  45.3865337  66.6523838 111.0438633  44.4679642  66.8934727
 112.0715714  45.5791569  66.8863916  32.9203367  49.4665527  58.2882690
  32.6156688  50.2280760  58.7817192  32.6648831  49.6492100  57.3840475
  11.4402306  24.6722007  50.7903385  10.5317080  24.9359655  50.9360981
  11.6689420  25.0580835  49.9447489  32.6150751  67.9591036  83.6148643
  33.5537767  67.7763510  83.5739803  32.2125363  67.2618151  83.0972004
  44.7619438  47.7001619  55.5904818  44.8143387  46.8085337  55.9347010
  45.1461458  47.6421452  54.7156906   8.4407336  41.3339663  81.1060047
   8.2042623  42.2306919  80.8689499   8.8836038  40.9900093  80.3302574
  13.9633918  51.2106609  76.2886381  13.2498276  51.0052824  75.6845856
  14.1854739  52.1216154  76.0961056  92.1520710  63.7902641  67.7808857
  92.9569626  63.8253355  67.2640038  91.6684818  64.5755863  67.5246716
   5.6606841  51.6419077  85.2157021   5.7573718  51.2722397  84.3380737
   5.5209285  50.8825111  85.7813931  26.3359427 108.6495972   3.7588090
  27.0613527 108.8318825   3.1614941  26.1735368 107.7115536   3.6591244
 105.8867550  27.3393369  67.5816393 105.9372711  28.2431149  67.8928614
 105.1216316  26.9751358  68.0268145  16.5405917  39.5573473  69.5246506
  17.1524930  39.6043587  68.7900782  16.0941684  40.4040527  69.5190668
  20.1595449  77.3780632  69.5821428  20.5993700  76.7687511  68.9892483
  19.8317206  78.0730534  69.0113974  99.9307537  62.4680996  83.1686687
  99.5628643  62.3980427  84.0495682  99.5080757  61.7646694  82.6759529
 113.5228539  20.5958033  94.6927261 113.0284309  19.8093760  94.4618416
 113.8168526  20.9490085  93.8530540  18.7405288  45.0958633  48.7859488
  19.6412325  44.8163700  48.9498043  18.5187972  44.7058582  47.9403925
 103.4609032  59.8404503  93.6803055 102.6575184  59.3202972  93.6958218
 103.9628029  59.5284891  94.4333076 108.8354397  29.6391320  92.0974255
 108.5724354  30.5145431  91.8133163 108.3320236  29.0452647  91.5405273
 112.8733158  72.8145361  40.1583719 112.2263527  73.0343962  39.4880486
 112.3774242  72.3343468  40.8214998  99.1924095  38.7988853  83.1990910
  99.2508888  37.8861094  82.9168701 100.0436401  39.1742420  82.9738140
  77.5104237  13.4349942  64.4746971  76.9670677  12.8606319  65.0142431
  78.2391214  12.8813171  64.1942215  98.5509968  44.1569424  85.8868122
  97.9165173  44.8716688  85.8335114  98.2231903  43.4994221  85.2732658
  47.7807522  41.2569427  59.7352171  48.5828304  40.8152866  60.0142241
  48.0799246  41.9407988  59.1359949  37.9228401  71.7788076  87.8719330
  38.5904574  71.4837933  88.4911919  38.0891943  71.2686062  87.0793152
  23.9055943  15.9486568  65.1257896  23.4645057  15.3115821  64.5638227
  23.3630729  15.9894359  65.9133434   6.5469629  83.7241936  94.5469284
   6.3344252  83.1819916  93.7872696   5.7247597  83.7885952  95.0327969
  44.7930050  34.5067024  58.8074112  45.2023554  34.0381408  59.5348167
  44.2615414  35.1832008  59.2270899  30.6086302  53.1660223  78.2929134
  31.2156367  52.8908491  77.6058531  29.8399234  52.6089287  78.1705809
  29.6310616  21.8255281  50.1761961  29.1672611  21.0009193  50.3215933
  29.1122770  22.2780800  49.5111465 115.6145477  48.9779806  54.6664858
 115.2040958  48.7155533  53.8425303 115.7430649  48.1573057  55.1420975
  43.3879089  41.8131399  68.0601454  44.0464497  42.4933052  67.9189825
  42.8406906  41.8430185  67.2753572  62.2882748  84.1144943   6.6307259
  61.5333319  83.7296391   7.0759022  62.0016479  84.2235851   5.7239860
  20.7594824  66.2329388  72.7477741  20.3258610  65.6575584  72.1175814
  20.0889897  66.4157820  73.4059858 100.6506252  42.2524023  26.4891100
 100.0081539  41.5965509  26.2183189 100.3101349  43.0778742  26.1442971
  10.5027926  61.9776106  35.9562349   9.9618584  61.5223789  36.6015172
  10.0489128  62.8067493  35.8053994  95.1530075   3.5344085  83.9954662
  95.8669949   4.0425238  84.3805218  95.5891228   2.8083551  83.5494995
  50.6752062  94.7890282   9.9266523  51.3590431  94.2626381  10.3407836
  50.8605194  94.7280502   8.9895439  28.5329676  65.9764194  63.8455677
  28.5255146  66.8886852  63.5558414  29.4482350  65.8023167  64.0651178
  91.1223698  70.4447746  78.9889622  91.7048931  70.6857347  79.7092628
  91.5458107  69.6895218  78.5808849  45.6433201  66.2834597  67.3347425
  46.0884571  67.1271992  67.2560692  45.5223179  66.1634111  68.2766438
  32.2916889  48.9939260  65.7501507  32.7637911  49.6846151  65.2850676
  31.8596673  48.4919405  65.0590706  15.4151416  79.6608257  69.6108150
  15.4526162  80.4915333  70.0849009  15.1627123  79.9044847  68.7202311
  31.0771537  25.4953718  55.2110720  31.9780564  25.7703805  55.3812981
  30.7087421  26.1991620  54.6770430   7.3657531  42.4579573  61.9227362
   7.3546922  41.5443659  61.6373158   6.6615295  42.8730154  61.4247131
  45.3158426  62.7044201  85.1878452  44.5442390  62.6982784  84.6214294
  45.9178877  63.3173370  84.7658157  20.5143189  56.4472342  68.8071156
  21.1999846  56.4083767  68.1403494  20.2651691  57.3708248  68.8409185
   9.8560745  64.9135208  48.4190893   9.6080947  65.1874352  49.3021011
  10.7989657  65.0723934  48.3749628 107.7815628  41.7469406  56.5421772
 106.9179344  41.4091015  56.7793274 108.3801460  41.3307619  57.1624374
  60.3312254  20.8071160  86.7838192  60.0205278  21.5076256  87.3573875
  60.4222441  21.2224102  85.9262180  41.1938667  34.1540742  52.0122433
  41.5882158  33.7560129  52.7883005  40.4919672  33.5521507  51.7647457
   8.7240088  77.6633549  53.1847477   9.1390294  76.9132376  53.6105490
   8.5329396  77.3595619  52.2973728  19.4439149  31.8807697  80.9886456
  18.9665818  32.0833254  81.7932320  18.8457096  31.3254905  80.4885960
  52.3254061   8.7340546  31.9717097  51.6787863   9.4344980  31.8851519
  52.0812941   8.2811403  32.7788734  17.8288376  29.6617746   8.3521044
  17.7242076  28.9529228   7.7174300  17.7010417  30.4612517   7.8414804
  30.5856466  27.6161814  44.3548584  31.0071540  26.8264294  44.6937656
  29.9063897  27.2905087  43.7642813  98.6209106  53.3156586  57.4200773
  98.9431095  53.5632467  58.2867479  98.7014198  54.1136646  56.8976402
  56.4687681 106.4797688   7.1839052  57.4149609 106.3367653   7.2062993
  56.2177181 106.2806416   6.2819332  26.8230200  34.2270398  82.8110218
  26.4086676  34.6724534  82.0720005  26.4955878  34.6886063  83.5830116
  31.9850254  41.1175013  76.9251108  32.5260854  41.6160822  76.3128185
  32.6129627  40.7022142  77.5162649  16.2345374  12.6657581  46.3922834
  16.5518808  11.8591928  45.9861088  16.8892384  12.8715694  47.0595455
  74.8199987  14.8902583  16.6090739  74.4813633  14.7473621  17.4928951
  75.1927042  14.0457225  16.3559330 103.9321136  98.4818840  61.6610575
 104.1583157  99.0881538  60.9557199 103.6858177  97.6732254  61.2120247
  24.0537333  62.2388887  91.7387962  23.3796310  61.5692902  91.8548203
  24.4750357  62.3056126  92.5957012  21.8501091  73.2262182  87.3633194
  22.5583601  73.5798597  87.9014206  21.8921828  73.7302256  86.5506458
  11.6324830  53.8272667  74.9049282  11.5182734  53.9987993  75.8396816
  11.8243802  52.8908300  74.8549557  40.7876587  38.0666208  67.1789837
  40.1748466  37.6961136  66.5438318  40.5251598  38.9837050  67.2582340
  34.2238426  34.9062395  53.6511326  33.5540557  34.2263651  53.5777140
  34.2550874  35.3065038  52.7821970  37.5245595  53.6050892  80.6077480
  37.0341730  53.0476189  81.2118816  37.5581861  53.1038046  79.7929955
  69.0665913  92.9144096   3.1944188  68.5872412  93.7269783   3.0325857
  69.2781591  92.9429054   4.1275096  46.3447380  54.7167683  66.4371252
  46.2409878  54.2336941  65.6173038  46.4219666  55.6320143  66.1676884
   8.0426085  48.6975431  84.7987938   7.3857892  48.1781244  85.2624989
   8.6125213  49.0351248  85.4897785  61.7727995  75.6515503   8.1314290
  62.1108103  75.5698061   7.2396338  61.0080147  76.2208605   8.0464530
   2.5646219  36.7758060  77.4296570   3.4097534  36.3341570  77.3464012
   2.6071954  37.4951458  76.7995977   7.3579013  21.5759254  70.1175976
   7.5474626  20.8794332  70.7462406   7.5270808  21.1796594  69.2628574
  42.2316313  86.0739803  64.8709154  41.4585018  86.5931606  65.0921631
  42.9713774  86.6398811  65.0917339  42.9130697  41.9096708  62.2687769
  42.2756195  42.4253559  61.7748594  43.7617540  42.1742010  61.9138241
  80.9654522   7.7231109  17.8095031  80.6969261   8.6310506  17.9501224
  81.6541481   7.5739497  18.4573364  37.0284295  91.4003468  10.5463898
  36.3645577  91.0548401   9.9496257  37.8424239  90.9806252  10.2680409
   4.1496912   9.1895121  50.6602716   3.2979554   9.0203637  51.0629702
   4.1355121   8.6829734  49.8482084  19.1302204  64.0176773  71.9545889
  19.1991603  63.8705635  71.0112762  18.4072483  64.6380091  72.0480490
  42.2878361  83.9616299  70.6991434  42.4664593  84.8847961  70.8782673
  43.1055021  83.5132027  70.9149456  13.7736773  65.8811474  77.9627275
  14.4877911  66.3546133  78.3894682  13.9811575  64.9573326  78.1032515
  17.2292089  22.9655743  60.2355719  17.0616007  23.7251043  59.6776724
  16.9702852  22.2144532  59.7017145  15.5282342  62.9191208  72.8488111
  16.0349643  62.2163820  72.4418592  16.1375511  63.6556292  72.8990555
  94.1712093   9.3755352  12.1698976  94.1473866   9.3700987  11.2130094
  95.0986385   9.4728553  12.3858452 111.1648655  81.2214470  50.5501223
 111.0771561  81.7812443  49.7786522 110.2945805  81.2247658  50.9486437
  97.0977592  15.7405257  -0.2103549  97.1394062  16.3345194   0.5390911
  97.4755096  14.9220145   0.1114805   4.3447295  25.4455686  87.4601841
   3.5806906  25.3135490  86.8988895   4.9025354  24.6870494  87.2877407
 114.3614292   3.4356537  70.9845829 114.7783566   3.3313802  70.1292896
 114.6176338   4.3124515  71.2706280   8.6499423  16.5101838  21.4436150
   7.7019638  16.4177716  21.5386367   8.9213908  15.7222819  20.9727049
  52.6437092  61.8368435  91.7640686  51.9824076  61.2100792  91.4706707
  53.0381441  62.1647692  90.9559059  15.8535564  82.1312428  52.7107859
  16.2132108  82.7141857  52.0421648  15.2316904  81.5786266  52.2373629
  48.0422115  54.6871710  82.9733658  47.5547981  54.0757370  83.5254669
  48.5020161  54.1291857  82.3460960   7.0812315  55.6685448  92.2312164
   6.9127142  55.6270933  91.2898827   6.2794346  56.0370827  92.6020718
  11.1991632  36.2984824   2.3827234  10.4846299  36.7475009   2.8344479
  10.7635999  35.6434345   1.8373537   1.9460164  39.2241335  89.9056339
   2.2461091  40.1042080  90.1328850   1.2331830  39.3674493  89.2830849
  44.7807360  68.8664961  74.9949360  44.6161699  68.1003094  75.5445766
  45.7292128  68.8695431  74.8660469  11.4093304  69.4714165  93.0942345
  11.0537052  68.9618111  92.3661804  10.8263624  70.2273273  93.1647778
  38.0882168  44.6372652  54.6961069  38.3498240  44.5290470  53.7817287
  38.5938072  45.3901291  55.0023842  26.9300342  21.5553164  52.4210596
  26.4843583  21.4324832  51.5828943  27.4482012  22.3513412  52.3024035
  33.4223247  26.7609620  73.2158756  33.4679842  25.8852696  73.5996866
  33.4035563  26.6077495  72.2712040  19.4933641  78.0371666  61.5872145
  19.6375287  77.8776693  60.6544733  18.9660728  78.8355541  61.6149855
  90.8163357  52.6076794  14.8634207  91.5373039  53.2277489  14.7541571
  90.1399040  52.9184055  14.2616463  29.9710679  84.9032593  63.3676481
  30.4557824  85.2990341  62.6433229  30.1081228  83.9618874  63.2615137
  17.1084261  52.3105526  41.6959953  17.9466736  52.3233318  41.2340307
  16.9297087  51.3816357  41.8422890  15.9399128  36.3600540  87.2981358
  15.2986598  35.7540798  86.9268894  15.7127023  37.2099376  86.9209003
  16.4776552  58.1377363  82.2270298  17.3431289  58.1630182  82.6351261
  16.6508341  58.2426643  81.2914848  51.9638634  79.3989277  53.2179213
  52.6565695  79.6601295  53.8246870  52.4299479  79.0485907  52.4588013
  28.1682467  10.4960334  75.9724903  28.3698773  10.5301762  76.9075918
  27.4802542  11.1504984  75.8517694  25.6664443  39.4818401  54.9339962
  24.8613501  38.9898229  54.7728252  25.3969264  40.2021408  55.5038786
  12.5230527  41.3655281  89.2137909  12.7867448  41.8185186  88.4128571
  11.8136597  40.7849979  88.9381409 107.8581047  65.8530426  65.9380054
 108.6213207  65.7467985  66.5058470 108.1640053  65.5820799  65.0724220
  16.1064720  47.8972483  65.8681440  16.1849535  48.2821417  66.7410278
  15.1971996  48.0584145  65.6161833 109.4624615  82.5671959  62.3375607
 109.3855953  82.1394062  63.1903934 109.5889091  83.4931469  62.5445986
  33.2416368  93.4731770   1.5743099  33.2402158  94.4291115   1.6236456
  33.6492658  93.2775021   0.7306397  13.8430774  50.9617519  72.7017403
  12.8899002  51.0430479  72.6689434  13.9971054  50.1231241  73.1367207
   1.5252003  38.4115386  56.3870096   1.7571589  37.5682831  55.9979773
   1.5514074  39.0281677  55.6553602  83.7034225  68.6171246  16.1866879
  84.4222736  67.9858923  16.2186933  83.9621162  69.2405033  15.5079305
  94.7449493   1.2594007   5.9637946  94.7783661   1.7603616   6.7787504
  94.4585323   1.8922296   5.3052181  88.6795139  61.1030006  35.1169562
  87.7490520  61.0048962  35.3190398  89.0863705  60.3127098  35.4721236
  23.3294106  50.0552654  69.9781179  23.1760025  50.9472132  69.6664667
  23.6779904  50.1672029  70.8625317   6.5605998  66.0009623  77.0558500
   6.7360735  66.7611599  76.5012884   6.6237628  66.3370037  77.9498959
  79.5947456   3.3776549  41.6131878  79.1421223   2.8853318  40.9283638
  79.9281263   4.1565153  41.1676884  11.0537899  57.8342915  52.1721792
  10.3729534  58.1760216  51.5925980  11.5474117  57.2218370  51.6267681
  45.4603243  46.0054970  69.5037794  44.6122169  46.3528395  69.7800016
  46.0136938  46.0782003  70.2814245  27.4023056  43.3857250  81.0840893
  28.2405043  43.4922075  81.5338802  27.4843693  43.9209366  80.2947521
  15.4349029  75.1445150  78.5854721  16.1675692  75.5584478  79.0416431
  15.2127790  74.3870831  79.1269398 111.1639500  21.9152641   5.1836091
 111.3472843  22.7128553   5.6800634 110.6012917  22.2043204   4.4652098
  37.3224187  74.1275883  67.2383022  37.1924353  73.2225037  67.5214386
  37.2448564  74.6431541  68.0410528  36.6393542  70.7911396  82.4801445
  36.0829115  71.5105486  82.7785683  36.0252690  70.0981712  82.2374058
  15.6489456  86.3198662  49.8344755  15.1952922  87.0778656  50.2030849
  16.0326052  86.6434002  49.0193892   5.0855350  61.6587162  41.1424398
   5.1063585  60.8545160  41.6611576   4.4223472  61.4942455  40.4720974
  26.1743093  48.3075571  68.1187487  26.5642285  48.9517164  68.7097263
  26.0276699  48.7879658  67.3039246   4.9084875  77.5022078  67.2690058
   5.2378404  77.8474903  66.4392233   4.1973516  76.9127989  67.0177746
   2.3234682  59.0185642  61.4481735   1.7948565  58.4355211  60.9033203
   1.8147241  59.1214514  62.2524309 109.6626759  62.5456810  78.5942268
 109.5461559  62.6494265  77.6498222 110.2003098  61.7588615  78.6842155
   2.2523099  16.1589539  76.2555504   1.7660472  16.3285530  77.0624065
   2.9571924  15.5680132  76.5204287  93.4621048  55.1432467  84.8241997
  93.6306286  56.0848618  84.8587608  94.3084812  54.7411251  85.0195885
 102.6493263  81.3494015  29.3296885 102.8879070  80.6102848  29.8891664
 103.0050755  82.1153927  29.7801566  25.0009871  43.3421135  82.2349453
  25.1255870  43.0352354  83.1330204  25.8464098  43.1931973  81.8114853
  21.2739253 104.4040108  87.1094704  22.0994091 104.2026329  86.6687298
  21.4836144 104.3601894  88.0423927  35.3144789  80.6845856  70.9742641
  34.7105432  81.4148521  71.1091757  35.8594084  80.6759262  71.7611647
  42.5730562  38.2898784  74.6126461  42.2105265  38.8093472  75.3302479
  43.3680725  38.7573457  74.3564081 114.3456078  58.0437994  83.8075066
 115.2527142  57.7474499  83.7328911 114.4144058  58.9632463  84.0646362
  43.1233692  47.5047302  70.4674101  42.7763462  47.7591753  69.6123838
  42.5951385  46.7492151  70.7250977  15.6331193  82.3047352  94.0278625
  15.0611103  82.4053860  94.7887230  15.3228581  82.9631424  93.4061909
  49.1901684  68.8980389  67.8733063  48.2920504  68.7224579  67.5926161
  49.5463896  68.0362606  68.0893517  99.5821285  83.7880898  68.9880085
  99.6135235  84.7446442  68.9721918 100.3730488  83.5302830  69.4615221
  89.3967247   2.0235451   1.0386971  89.2988968   2.1073394   0.0902031
  88.5650444   1.6524729   1.3334008  29.4366026  76.9910765  66.9480753
  30.0642800  76.9471979  66.2267351  29.0879965  76.1022520  67.0166254
 108.0769253 106.2460804  36.2906718 108.5002041 105.4469013  36.6043329
 107.2011089 106.2203407  36.6760349  28.3478522  78.5937166  85.9293747
  29.2359352  78.7906837  86.2272739  27.7848673  78.8808250  86.6483021
  20.9718227  77.0365381  78.3120346  20.3470349  77.6337671  77.9007149
  21.6622210  76.9248247  77.6585054  55.1236629  84.3164825  65.0780869
  55.2523565  84.9338055  64.3579626  55.8873796  84.4427204  65.6411505
  80.9068584  29.9924755  11.0024524  81.3991737  29.5229292  11.6757894
  80.2309513  29.3741083  10.7249403  26.3970709  38.5420060  67.6073503
  25.8861518  39.2887998  67.9195833  25.8889914  38.1937408  66.8746853
  39.7090578  74.3039989  78.2432079  38.9839911  74.5105124  78.8330078
  39.9547482  73.4072304  78.4705305  42.1598816 101.7476749  50.0348091
  41.2942123 102.1519756  50.0930643  42.5178289 102.0664310  49.2062569
  28.3755302  43.8247824  50.8603525  28.3441496  42.9327631  51.2061119
  27.5206375  44.1962576  51.0780573  35.0830245  57.3965025  66.7848587
  34.3580174  56.9805765  66.3183784  35.2914023  58.1707907  66.2620878
 110.0289726  67.2999525  60.2303886 110.7195854  66.8320084  59.7610092
 110.4861355  67.7555466  60.9372616   0.3531830  99.5533943  84.4725609
   1.2779182  99.3068600  84.4904232  -0.1172295  98.7198925  84.4871521
   6.6787630  58.9240599  77.7948999   5.7335639  58.7868595  77.8582001
   6.8652320  58.8778114  76.8571806  46.6689777  67.7492189  61.1254692
  45.9030581  68.3231211  61.1407614  46.3048077  66.8641329  61.1102438
  35.6591368  54.9361706  62.7838802  36.3277102  55.3751373  62.2580004
  35.7481503  55.3222132  63.6552477  18.9009988  45.8614922  58.9640617
  18.2514381  45.3023624  59.3902922  18.8088799  45.6674671  58.0312729
  65.8443451  67.8077793  80.4836845  65.1695871  67.4433613  79.9108601
  66.0470629  68.6617804  80.1018333  78.3693886 102.1068573   3.3145377
  78.4390688 103.0473995   3.1509578  78.1302261 102.0416260   4.2390788
 112.4190998  63.1460476  56.1437035 112.4253559  62.2743225  56.5390348
 113.2775116  63.2266521  55.7279348  40.0175905  80.8555889  58.7261152
  40.2821398  80.1726627  58.1097937  39.5833778  81.5133190  58.1829071
  76.3320541 107.5074291  16.1140251  76.7473030 107.4752808  16.9758642
  75.6923676 106.7955399  16.1296666  28.3891821  81.6703987  84.2402744
  28.5815907  82.3688030  84.8659325  29.1378069  81.6702366  83.6437988
  50.0809002  55.2553177  79.5634460  49.8215246  56.1232710  79.2542315
  51.0375834  55.2665806  79.5339918  10.1875544  71.7684937  82.9912472
   9.6988112  71.9808245  83.7864113  10.3988779  72.6187754  82.6057625
  44.3442345  48.6417294  65.1475811  43.4158802  48.8648224  65.2155542
  44.7842216  49.2707682  65.7193756  15.0147748  92.3085976  80.0143051
  15.7786942  92.7615929  80.3713226  14.3020976  92.5327301  80.6127071
 101.9749165 109.6309566  10.3318584 101.0672474 109.7560787  10.0548828
 102.0975018 108.6816406  10.3290355  15.8447075  49.1577339  62.4453402
  16.0439897  48.7415218  61.6067171  15.2888107  48.5252619  62.9005194
  40.3301334  77.7881908  79.8760414  40.4702377  78.7287569  79.9852991
  39.7239161  77.7204323  79.1383839 103.6847878  60.7234192  49.7208309
 104.2051029  60.0203419  50.1096582 104.3284416  61.3834667  49.4633913
 107.2052193  76.8027973  47.0334291 107.5165844  76.3230038  47.8009462
 107.9603672  76.8308210  46.4458942   3.8404247 100.4549408  70.7704830
   3.6112216  99.6149540  71.1681080   4.7680709 100.5718231  70.9755278
  21.4677835  58.5955524  83.9171600  22.3904991  58.6684799  84.1611099
  21.0181689  59.2138529  84.4931698  25.3505135  69.0200567  70.6507969
  24.6661305  69.3080950  71.2548590  25.3505683  69.6794271  69.9569178
 107.3569107  37.8413773  56.0365534 106.7503643  37.8866172  56.7756701
 107.1694946  36.9981384  55.6241798  82.1126366   0.0208890  88.5937309
  81.5458870   0.6404656  88.1342125  82.9886818   0.4001593  88.5235596
  84.5037365   7.6400149  47.9792309  84.9225807   6.7929631  47.8265667
  84.6416283   7.8109479  48.9108944  10.5230772  54.3729782  90.3188133
  10.3448856  54.0429401  89.4381523   9.7857016  54.0629339  90.8445358
  17.6004815  15.7838428   0.8776194  17.9400551  16.0663307   0.0284301
  18.3700240  15.4652047   1.3493240  34.7910094  85.7086945  91.7694950
  34.6709633  85.9195423  92.6954365  35.2610493  84.8748589  91.7727089
  10.2282739 101.3672161  47.5087595  10.4968858 101.2957573  46.5928030
  10.0342345 100.4677105  47.7723265  31.5483284  57.9793882  76.3246584
  31.6080618  57.5422049  75.4752302  32.1783590  57.5166130  76.8770456
  20.4337168  66.9621277  53.9443207  19.8684323  67.3885918  54.5883799
  21.3054371  66.9837856  54.3391180  18.0356181  21.6831112   7.3385805
  17.6888263  21.8722320   6.4666855  18.3352196  20.7755589   7.2855061
   8.5039216  44.0190983  69.6591473   7.7284402  44.2515469  69.1484356
   8.9079148  43.3031750  69.1687679  59.3925142  21.9479513  37.8652954
  59.5052624  21.1704540  38.4121203  58.4591150  21.9584537  37.6534271
  28.1981802  66.6232586  77.8589725  28.3685160  67.1909571  78.6105967
  27.8919411  65.8019972  78.2436514  28.1170297  39.0668082  54.5126486
  27.1678424  39.0961671  54.3926001  28.4343910  39.8755884  54.1109133
  44.8901272  96.0527992  91.6065979  45.6264400  95.4896164  91.3680649
  44.8156500  95.9602261  92.5563908  51.2349463  89.3284130  57.5710106
  51.5036011  89.7869682  56.7749023  50.8401108  88.5148811  57.2571564
  16.6669714  68.3670092  46.8398333  16.0314214  68.3315086  47.5547075
  16.3891685  69.1136837  46.3092327  93.6506081  45.4925156  30.0269318
  93.9129829  45.3973913  30.9425426  92.8596306  44.9592876  29.9478078
  25.2178812  66.5788269  83.8044071  25.5245948  67.4411154  83.5240173
  25.0352883  66.1126232  82.9886055  26.0881329  84.8849964  87.8109550
  25.2113080  85.0435352  87.4612713  26.2308240  83.9471054  87.6835632
   0.0914277  80.6364155  56.5870810   0.9678917  80.3007984  56.3989353
   0.2367462  81.3521194  57.2058630  42.5310659  88.9725208  53.0546713
  41.6924095  88.8443184  52.6114368  43.1853628  88.8698959  52.3635864
  39.2461967  21.3131523  71.5664864  39.5827460  21.8109131  70.8213663
  39.7346210  21.6480494  72.3184967  85.0152206  13.8070929  72.3983097
  85.4575539  13.0530107  72.0085192  84.1119671  13.7414873  72.0883894
  20.4292893  55.0581264  65.0168753  19.5977056  54.6195078  64.8371077
  21.0055470  54.7800589  64.3049526  15.5566883  57.2698927  70.0343180
  16.1042118  56.8038797  70.6662035  15.0287950  56.5850210  69.6238232
  66.6250324  13.9554858  14.0144467  66.8604136  14.7910285  13.6110926
  67.0145178  13.9930868  14.8880136  13.0525804  19.9534559   8.6707306
  13.7063015  19.6201158   8.0561042  13.5547054  20.1856422   9.4518775
  31.6219497  63.1374979  66.5962172  31.9503188  63.6559486  65.8616352
  31.2276268  63.7803173  67.1857309 108.4566021   8.9777768   6.3538325
 107.7937984   8.7826294   5.6913835 109.1711044   8.3697110   6.1641562
   0.9559018  42.7943897  79.6771765   1.4136437  42.2342491  80.3040314
   1.4586958  43.6088896  79.6721077  15.1040900  67.8885221  48.9844704
  14.7214556  67.0111418  48.9899111  14.7209835  68.3216286  49.7472763
   8.5689527  55.6417418  86.3806057   9.1352725  55.0033951  86.8142223
   8.2997268  56.2371635  87.0800495  34.4521451  75.9633636  63.9795065
  34.4479942  76.9087601  64.1293001  34.2093849  75.5858374  64.8249531
  25.7895780  65.0033426  57.9476690  25.0378799  65.3878975  58.3985615
  25.4086566  64.3482399  57.3628855  14.9505019  52.7945757  62.5403929
  14.3785453  53.5470009  62.6918936  14.4124711  52.0355701  62.7654886
  25.5166364  68.3395767  63.2116747  26.4478993  68.4508228  63.4030008
  25.4891300  67.6503229  62.5480413  21.5778184  60.0148630  71.3809776
  21.7260408  60.1124382  70.4403687  21.9579434  60.8042336  71.7665052
 111.0894775  73.0602264  78.5531521 110.6144238  72.8639603  79.3606377
 110.8720970  73.9728498  78.3631659  53.8460493  82.7795029  51.3271093
  52.9387474  82.4886608  51.2352324  53.7823582  83.7259197  51.4554167
 114.2801762  74.3339205  86.4053631 113.6805534  73.5943890  86.5042782
 115.1451492  73.9318895  86.3252831  64.7241640  76.7392254  68.6263609
  64.4425488  75.8646870  68.8948965  65.6749296  76.7290974  68.7367105
  17.5856018  85.5676365  60.0896454  17.4704742  84.7260094  60.5308151
  17.5960314  86.2103748  60.7988739  43.0651188  38.9301538  56.5079975
  43.2314205  39.8727226  56.5198755  42.3335123  38.8083768  57.1131039
  10.9502661   5.8353066   3.1152567  10.6706619   6.7127085   2.8540680
  11.8978655   5.8357298   2.9800269 112.6106834  60.3345060  71.9059181
 112.5918293  59.4856787  72.3479223 112.8077412  60.1248360  70.9929848
  93.7457561  86.5784168  65.3272152  92.8291512  86.8518257  65.2908850
  94.1294956  86.9189835  64.5191336  83.9926529  18.5366309   7.2322118
  84.5438385  18.7052226   6.4680135  83.1724834  18.9915943   7.0410210
  23.9465952  55.3671265  81.8803596  24.4716024  55.9005928  82.4770260
  24.2992330  55.5615711  81.0119915  99.5751286  73.5288620  24.7383833
  99.5729542  73.3207750  23.8040757  99.8723221  72.7237892  25.1623750
 112.1273041  54.6565533   8.4781665 111.7033672  55.2689457   9.0793991
 112.9020786  54.3536568   8.9516735 108.3291721  27.6072025   1.4360520
 108.1157398  28.3965826   0.9385023 107.4799347  27.2146225   1.6382889
  44.9135399  72.6622343  74.2471838  45.5190229  72.6117992  74.9868250
  45.2857971  72.0717430  73.5922194   2.1299903  81.4799690  43.6620045
   2.1949674  80.5308819  43.7680626   1.4403383  81.6013813  43.0094147
  35.1931906  35.5624890  66.4374781  34.5930004  35.4149151  65.7065725
  35.7914901  36.2402582  66.1230040  42.5832796  95.4500198  87.4467087
  42.5365543  95.5291557  88.3994865  42.6249170  96.3534260  87.1330929
  11.4200032  51.0447073  75.3139973  10.6969309  50.6548023  75.8052921
  11.1581337  50.9628296  74.3969631  32.8021145  69.9013519  66.2653399
  32.0888662  70.1677370  66.8454647  32.3626709  69.5647955  65.4844093
  43.8282108 105.6483364  56.8010807  43.9494610 105.8277988  57.7334547
  43.0282974 106.1197853  56.5684748  25.6409121  73.2739639  84.3914413
  26.3000846  73.8354397  84.7994423  25.9240866  73.1951475  83.4804916
  24.3566990  83.9823151  64.5830488  25.2667856  83.9707279  64.2866707
  23.9716506  84.7410583  64.1445541  39.7137070  55.9547281  71.8966341
  40.5813789  55.6095648  72.1069622  39.1074371  55.2768803  72.1952915
  28.0223680  99.2014885  69.3326283  28.7444139  98.7766457  68.8696051
  27.4739337  99.5660973  68.6379957   8.1623679  28.0454373   8.7142777
   7.2294962  28.2321143   8.6087590   8.2840747  27.1912503   8.2998115
  18.1055796  61.8276358  82.2226429  17.1929169  62.1143770  82.2551823
  18.5880232  62.5108337  82.6881790 100.7906723  36.8636322  14.6065247
 101.0576534  37.6734114  15.0415099 100.0694180  37.1256566  14.0343678
  48.4622478  42.2948360  53.0246162  47.6283884  42.5784683  53.3993959
  48.2858276  41.4178324  52.6840687  23.1533480  59.7338438  92.1977806
  22.6628113  58.9994192  92.5668621  23.0866408  59.6144533  91.2504005
  25.1491046  52.8254700  64.9810457  24.3308663  53.0843735  65.4049397
  25.0532508  53.1199455  64.0753269  13.0722570  72.6531982  59.6944952
  12.3793304  72.9506445  60.2840805  13.4571886  71.8979406  60.1390791
  31.1962056  87.7798080  91.8507671  31.6645074  87.7134609  91.0185909
  30.4351425  87.2092724  91.7434597  41.4019012  85.5729866  56.4553928
  42.0417738  86.2490654  56.6783428  41.2694740  85.6701851  55.5123949
  17.7441299  50.1944780  77.8220940  18.3598804  50.7525015  77.3470259
  18.2858741  49.4920874  78.1818056  17.3207629  71.4479256  47.9141283
  17.7356172  70.7975435  48.4808159  17.0641077  70.9567165  47.1336985
  33.0523014  65.4690695  73.9165258  32.1164012  65.6698513  73.9136267
  33.4743452  66.2977648  74.1431952  20.8799124  68.1331730  49.9566889
  20.0188708  67.8372669  49.6612597  20.7014298  68.6303425  50.7549381
  76.2007952  15.5998003  73.1567860  76.3310719  14.6923065  72.8816223
  76.8812370  15.7512128  73.8127613  45.5844784  55.2770376  82.2096920
  45.6546116  56.2136030  82.0248699  46.4590597  55.0252819  82.5062752
  17.9173851  48.0754328  72.6199102  17.3327768  47.7814341  71.9213200
  17.3939323  48.6984968  73.1239176 111.3440514   1.9760849   3.8581842
 111.3393497   1.0211153   3.7930474 111.9823551   2.1661215   4.5457000
  61.2114763  77.6405430  61.6730261  62.0028639  77.1878338  61.9645643
  60.7132053  77.7930021  62.4759674   5.3497994  58.0594158  53.5457706
   5.9768325  58.7741280  53.6564350   5.8196604  57.2803545  53.8433027
  28.5467529  68.6561537  63.2025576  29.3709397  68.6632776  62.7158356
  28.3966827  69.5730257  63.4328938  30.5120564  45.6374598  73.8845158
  31.3027883  45.4564476  73.3763742  30.5424833  46.5802431  74.0472031
  32.8653526  51.8810940  87.1421814  31.9804883  51.7913580  87.4960041
  32.7943850  52.5824308  86.4946270   8.7254548  20.6988215   3.0260703
   9.0113878  19.7971094   2.8798157   7.9740196  20.6194830   3.6136779
  41.5578270  65.9349680  66.9346619  40.6293821  65.9530449  66.7025137
  41.7865324  65.0054932  66.9351768  52.3230314  69.4984865  75.7302952
  52.7016068  69.4164944  76.6056156  52.9915047  69.9582148  75.2223301
  62.2850370  26.5280700  68.1409645  62.6288891  27.3654437  67.8298378
  62.8552055  26.2920260  68.8726950  34.7544098  78.9754868  74.1381264
  35.3178501  78.2073879  74.2318869  35.2601075  79.6917915  74.5220613
  36.8218064  80.3347683  81.3263607  36.7744684  79.6802044  82.0231628
  35.9649539  80.2947998  80.9015751  25.4964495  69.1528749  46.7456388
  25.0978756  68.8052511  47.5434685  26.3891411  68.8075256  46.7537737
   7.0115113  85.9439373  90.0073910   6.7330688  86.8351555  90.2181530
   7.5797886  86.0448265  89.2437744  11.2434351  94.9234009  58.4778976
  11.9429207  95.3642368  58.9601946  11.0760856  95.4915428  57.7259445
  88.3330822 107.0491695   1.4378643  89.0660477 107.4692440   0.9878282
  88.5800743 107.0630836   2.3625448  43.0307722  71.6017771  85.6905651
  42.1647692  71.3079214  85.4078770  43.3355474  70.9141874  86.2826443
  43.7256718  68.0147648  92.1126938  43.8664627  67.0700932  92.1760178
  44.0222502  68.2425928  91.2315845  11.6735327  76.1564398  72.9412222
  12.1977997  75.8690357  73.6887360  10.8704877  75.6387043  72.9986811
 106.9787025  88.4407330   0.2233750 107.1370029  87.5636387  -0.1257394
 106.0424042  88.4541321   0.4218712  19.9028599  37.4686527  47.3514605
  19.9417460  36.5690231  47.0268250  20.8150792  37.7583575  47.3641062
  49.3571234  67.3162889  85.6841755  49.6644974  67.7695942  86.4692020
  50.1008081  67.3483896  85.0824070   6.4629585  12.0820451  18.2919049
   6.5216255  12.7464306  18.9784777   5.5703729  11.7434788  18.3618796
  10.2065539  42.1086216  83.2015800   9.7586274  42.0798445  82.3561478
   9.8107821  42.8516245  83.6571503  13.0812836  81.5056324  63.7627268
  13.5982847  80.9050179  63.2258797  12.5266516  80.9347057  64.2943859
  18.7978303  16.7083919  91.0076427  18.2421756  16.5203214  90.2512646
  19.5573175  17.1606255  90.6403637  51.0323620  30.5070996  54.2177725
  50.6048441  30.9737659  54.9358845  51.0966206  29.6026611  54.5245266
  52.9365587  37.5618243  81.9659519  53.8514280  37.8184819  82.0815659
  52.4578476  38.3900428  81.9324780  94.1129303  20.6802654  17.0491874
  94.9377632  20.8671379  16.6008997  94.3536854  20.6060386  17.9726374
  50.4429960  79.5341301  79.0852022  51.1368084  79.9333763  79.6100378
  49.6746063  80.0812244  79.2479801  21.5896273  45.5898523  59.2693615
  21.8573236  46.3596392  59.7713614  20.6506562  45.5092907  59.4369268
  24.7772980  93.2095909  63.8236761  24.0834546  92.5568199  63.9169598
  25.4514194  92.9329681  64.4443750  54.8049021  77.8294277  58.1286526
  55.3011179  77.0516348  57.8736258  55.1722431  78.5336828  57.5944948
  69.0028858  96.7265987   3.3175415  69.9591875  96.6858768   3.3094600
  68.7687492  96.6742039   4.2441842  48.1675816  66.3668537  79.8113298
  48.1265688  66.5072823  80.7572842  49.0724182  66.1009073  79.6476793
  38.3602381  65.0601816  66.6011000  37.8054905  65.3673649  67.3181248
  38.1268787  65.6203413  65.8608341  32.8626251  77.9831648  13.7980330
  33.4728885  78.2858896  14.4704676  33.0640674  78.5208845  13.0321956
  26.3724780  80.9574604  69.0324926  25.6460667  81.3916397  68.5852289
  26.6728663  80.2931118  68.4123039  10.1622117  63.4195948  79.2812109
  10.6503451  62.5962210  79.2848444   9.2903131  63.1797457  78.9673662
  36.7521834  38.4117723  72.4436045  37.1368980  38.6293173  71.5945435
  35.8365440  38.6801934  72.3675108  19.5543718  61.6089773  65.3772354
  19.6727180  62.5564909  65.4438972  18.6237895  61.4708233  65.5537653
  16.7702842  90.7786846  88.1000423  16.1270750  90.7624245  88.8087463
  16.3231218  90.3658390  87.3612404   2.9321650  56.5295267  39.7247958
   2.7981982  56.7096138  40.6553078   3.3457327  55.6665087  39.7049809
  35.8014679  42.0501518  54.2035580  34.9282646  42.2236013  53.8519001
  36.3884878  42.1701956  53.4570789  28.2184649  45.5745077  87.2833061
  28.1847000  46.4987278  87.5301075  28.9618802  45.5137968  86.6834164
  22.2161579  95.7945824  57.6549864  22.7997160  96.4752960  57.9901361
  21.5246511  96.2748337  57.1995640  29.5020390  62.1799612  70.2579927
  29.7403240  61.4003181  70.7596016  29.7190475  61.9578171  69.3525743
  21.4826250  59.8572350  74.6744013  20.6096959  59.5830393  74.3932533
  21.4632535  60.8125877  74.6182537  37.6039672  53.3939934  85.6844234
  38.1626892  52.9295206  85.0612640  36.9512701  52.7461529  85.9499836
  45.6364393  62.0974636  87.7690697  45.4272795  61.1832905  87.5773048
  45.6444693  62.5259542  86.9131660  58.8940716  78.4608078  79.2037630
  58.8638735  77.5263309  79.4088793  59.3711567  78.5088825  78.3753252
  15.7730508  16.2607920  11.6560328  15.9365284  15.3887904  12.0153654
  16.3746178  16.8328547  12.1325755  18.1696510  41.5663433  59.9056435
  19.0507054  41.4330006  60.2552080  17.7104521  40.7481194  60.0950718
  51.3776159  81.8160057  51.9057751  50.5629635  81.5609550  51.4727402
  51.6067553  81.0615635  52.4484921  24.2028093  59.7464514  76.1961031
  24.4419432  59.9811220  75.2994537  25.0317621  59.7533321  76.6746664
  77.8102589  34.4749975   0.5984216  77.4174356  33.7109470   0.1763422
  77.2511196  34.6435618   1.3568293  40.6893826  67.7772951  90.2865410
  40.0258923  67.2488928  89.8429203  40.4804993  67.6924610  91.2168121
  20.2063298  48.1677389  57.9499865  19.4433308  47.8668022  58.4434462
  20.3478861  49.0651083  58.2515192   3.0601245  56.2139845  55.6232786
   3.0560374  55.8566761  54.7352791   3.1337848  55.4461622  56.1900711
 108.1182766  29.5590520   5.2421665 108.5969830  28.7951851   4.9203396
 107.7095509  29.9321008   4.4611317  39.9517488  90.8886814  90.3615379
  39.9483085  90.0006866  90.7188702  40.0574493  90.7667732  89.4180298
 105.1515579  19.4355178  29.0801883 104.8750973  19.5374346  29.9909067
 104.6269512  20.0744319  28.5976934  91.7606163 100.0754738  94.6400547
  92.5181007  99.8816109  94.0879154  91.5355206 100.9814262  94.4283772
  31.0262609  25.4423618   6.2127507  31.2368655  24.5997763   5.8103478
  30.8679318  25.2350426   7.1337187 112.5539398  49.5951700  51.1042404
 112.5121403  48.6569595  50.9191847 112.1238327  49.6910858  51.9539690
  55.3791094  74.7615290  63.0120611  55.3745842  74.9745893  63.9452362
  56.2339258  75.0607347  62.7022171  44.4186974  62.6511526  69.4096994
  44.2377853  63.0187893  70.2747679  44.5573997  61.7177773  69.5703554
   2.7658132  68.0152798   1.8607685   2.5264606  68.9036894   2.1247303
   3.5825661  67.8385687   2.3275875  34.4947839  92.5229454  53.3336020
  33.6770105  92.1182346  53.6228848  34.8257208  92.9753399  54.1095209
  60.1448870  84.8305607  67.5946665  60.2957439  85.4811096  66.9089127
  60.7185078  85.1009369  68.3116674  22.5861740  90.5586052  62.0299292
  22.6649594  89.6515179  62.3252392  21.6529751  90.7561970  62.1094847
  21.7818975  94.3253040  60.0483131  22.5216794  93.7194633  60.0920439
  22.0131493  94.9355507  59.3480682  44.3516493  75.6592417  75.3924274
  43.4769773  75.5249929  75.7573366  44.2376280  75.5452013  74.4489098
  71.1940432 102.1958637  52.9677439  71.6314888 101.4995670  53.4576845
  71.3068056 101.9499111  52.0495796  26.4275742  75.9545851  73.8792944
  27.2659469  75.5651426  74.1276884  25.7713962  75.3387976  74.2055941
  42.0678377  95.5917263  65.2015066  42.3626089  96.1389351  65.9294558
  41.7548704  96.2143421  64.5452785  46.9700241  79.7111511  89.9916458
  47.6533365  79.1964054  90.4209995  46.6853428  80.3353786  90.6591225
  81.4479733  89.7051048  58.0362988  81.5802002  90.1075268  57.1779299
  82.3320675  89.5175362  58.3516407  55.6554413  86.5862083  44.4126654
  56.3936043  87.0184135  44.8422623  55.1293802  86.2384605  45.1327753
  28.3597279  56.9896126  69.2041588  28.8345432  57.3467779  69.9546337
  27.8457880  57.7262306  68.8732624  62.3214149  83.2986736  60.8042002
  61.5325403  83.4245968  61.3315058  62.0884466  83.6377430  59.9399185
  30.7739329  57.2129631  89.4486141  30.1138234  56.5302324  89.3287659
  30.2854061  58.0332136  89.3796253  33.8901901  90.3353310  78.4043121
  33.5497952  89.5578289  78.8468647  33.1667829  90.6328869  77.8526068
  70.8184767   6.1491907  92.6324844  71.5152693   6.2116408  93.2857990
  70.0090170   6.1692500  93.1429768  75.0999641  75.6388950  56.7050171
  74.1832113  75.5531979  56.4433861  75.5309868  76.0273600  55.9437370
  91.6424847   6.6042972   6.2534130  91.7070293   5.6509542   6.1968076
  90.9420395   6.8336248   5.6426638  51.7835188  86.0343552  75.0145674
  52.1245527  86.8313026  74.6086216  52.3240805  85.9129620  75.7951403
  70.3276730   2.7706513  85.1697540  69.7538948   3.5360673  85.2036572
  71.1449528   3.1003347  84.7961426  24.6015906  76.4835119  85.0786018
  25.4213262  76.1367464  85.4307652  24.7339845  77.4311495  85.0525284
  19.6639729  89.2414284  60.1775455  19.8741770  89.4318485  61.0917568
  18.8551950  89.7258377  60.0118351   4.9510336  20.2921486   2.9357159
   4.8075145  19.3860590   3.2089087   5.3838873  20.7023573   3.6844474
  75.6815863  86.4035320  49.1638613  76.0595560  86.5581226  50.0295830
  76.4267492  86.4521503  48.5650253  57.7451754  86.3700962  86.2048721
  58.5543442  86.7554283  86.5410137  57.1052837  87.0806217  86.2487030
  56.9580126  86.4102173  64.3717957  57.1690607  85.8703995  63.6100292
  56.8255997  87.2880936  64.0139771  11.7127371  16.3648713   6.9776535
  11.3961017  16.6950846   7.8184462  12.5242519  15.9044564   7.1914148
  55.8656311 105.9612656  63.8904524  55.5042171 105.1990795  64.3428755
  56.7745733 105.7228661  63.7081909  57.7524614  99.4623280  72.9095459
  58.3444595  99.9703598  73.4642315  57.9772758  98.5499573  73.0919313
  72.8716278  79.9718666  50.6719446  72.9289293  80.9136200  50.8333302
  72.2835779  79.6473360  51.3539314  46.4512253  99.4903946  88.6318398
  45.8445835 100.0541592  88.1518555  47.0331812  99.1370869  87.9589939
  77.2763014 100.8668041  69.6737766  77.5115776 101.7474079  69.9660301
  77.6929426 100.7796860  68.8164234  62.6628971  92.7774143  84.2305088
  62.3096800  92.7530384  83.3411980  63.4098291  92.1792316  84.2080307
  39.7316456  99.5430756  53.1157303  38.9566207  98.9897442  53.0187988
  39.9372005  99.5058441  54.0498590  83.2178783  91.9786739  78.0256224
  84.0330219  91.4826393  78.1012821  83.1372356  92.4360085  78.8626242
  39.6622396  72.2045374  93.9777660  38.7347841  72.3968124  94.1159248
  39.8203731  72.4331045  93.0618000  52.6292181  67.6423740  58.6482763
  53.3933544  68.1442928  58.9318228  51.9125652  67.9694939  59.1919947
  19.4420028   5.4888105  20.8929157  19.8930323   6.3153034  20.7205391
  19.0329909   5.2605253  20.0581527  27.5618577  84.7366333  71.0143900
  26.8014503  84.2062283  71.2524748  27.2427773  85.6386662  71.0419178
  47.3235512  83.5910988  72.1259785  48.0639458  83.7671280  71.5454054
  47.7165651  83.1867981  72.8994846  16.5113294  56.3660097  58.7855291
  15.7611668  55.8624268  59.1015816  17.2746706  55.8766413  59.0922213
  40.1354408  66.3254642  64.1634512  40.2220106  65.3858757  64.3244314
  39.1974139  66.4598799  64.0283012   8.8984120  27.7586389   3.9529100
   8.1692189  27.2195840   3.6464319   9.5259124  27.7460027   3.2301959
  67.2154999  87.9326439  49.2733955  67.3888922  87.1481419  48.7530851
  67.0083475  88.6077023  48.6271620  66.0677242  74.3542957  58.9705038
  65.2293015  74.8008347  58.8526917  66.0665512  74.0806866  59.8877668
 111.1678791   4.1185093   6.5797174 112.0878220   4.0855187   6.8421000
 111.1668491   4.6363258   5.7746726  17.2389948  82.6148415  63.9951515
  17.6369131  81.7665195  63.7996197  17.8447914  83.2552338  63.6221266
  32.0627475  95.3115177  62.2262239  31.5144515  96.0931683  62.2942495
  32.6320815  95.3507042  62.9946995  46.2798834  13.3014250  91.2865829
  46.9568062  13.3456123  91.9619083  45.9854221  14.2063046  91.1830521
  22.4504161  91.7457199  44.5989180  21.9092035  91.1086464  45.0652456
  22.3667574  91.5018845  43.6770821  53.5085535 105.1622486  16.7405534
  52.7444744 104.7726059  16.3155925  53.1676817 105.5296612  17.5560546
  86.7943764  86.6440296  63.0483913  86.3923931  86.5758896  62.1823645
  86.1381626  86.2854385  63.6459208   7.9140443  35.4600835  74.7178411
   7.2398627  35.8670354  74.1736889   8.7371141  35.6706214  74.2768621
  83.2725620  76.0182858  58.6541510  82.8828907  75.9590054  59.5264292
  83.8127804  75.2316570  58.5791922 112.3865128   0.9369197  41.5139103
 112.5590992   1.7536661  41.9822836 112.8868484   1.0162389  40.7017517
  28.6459994  81.7387772  60.9496880  27.9425144  81.0916042  60.8995199
  28.4183407  82.3917961  60.2878952  39.9090385  80.5902386  70.4991865
  40.2952433  79.7144127  70.4955482  40.0041199  80.8901691  71.4031982
 112.2266197  90.6715202  77.8035688 112.1070290  89.7774124  77.4834013
 111.6658115  91.2046909  77.2401381  43.7301874 105.1115990  80.0751495
  43.5730553 104.2643452  79.6583748  44.0358496 105.6751442  79.3643713
  24.4623542  21.7123532   4.4031513  23.7297630  22.3284125   4.3992531
  24.5513344  21.4518237   5.3199059  93.4570980   9.4766629  77.3025703
  93.6728573   8.6614358  76.8497086  93.8311195   9.3709576  78.1773043
   4.3205664   4.9352354  78.6885357   3.4414652   4.7962093  79.0407896
   4.8249272   4.1835651  78.9997292  54.1819286  70.8996010  60.4048014
  53.3063221  70.9098244  60.7913685  54.3761635  69.9711752  60.2762365
  67.7825403  62.5091219  55.6781149  68.6618137  62.2764444  55.9764004
  67.6858282  62.0555210  54.8407841  70.9592867  80.0995350  65.8187294
  71.1871624  79.3797922  65.2302742  71.7412376  80.2263260  66.3560438
  23.6502361  53.6482239  78.6477566  22.8496742  53.1482458  78.8069963
  23.3436012  54.5286274  78.4307337  47.0251274  71.4661694  61.9101381
  46.2089205  70.9688616  61.8579435  46.7558575  72.3794365  61.8118048
  82.3847389  63.2999706  62.3977041  81.9062328  64.0505981  62.7495766
  82.9120159  62.9862642  63.1324100  36.9494438  43.9774752  81.7908764
  36.5722871  44.4597054  82.5266933  37.8320694  44.3357658  81.6968918
  77.7840233  79.8799086  59.5982552  77.9484320  80.6271839  59.0231276
  77.5914288  79.1564465  59.0018129  54.0188837 106.2488651  38.4212542
  53.7734842 106.2575626  39.3464231  54.7290897 106.8872738  38.3558321
  23.1252956 102.9844856  59.4970369  22.7394819 102.4231911  60.1695919
  22.8288460 102.6053143  58.6696482  41.4158583  81.3801575  88.7912941
  41.1681843  80.6126213  88.2757759  42.2353315  81.1284161  89.2171192
  40.2110338  68.3255005  86.2327576  39.9003315  67.7074385  86.8943405
  39.7274375  68.0915260  85.4405308  96.7877960   5.7238269  93.8128090
  96.8372726   5.6302851  92.8614712  95.8612347   5.8864921  93.9896107
 102.9087543  33.6414886  20.2687836 102.4990177  32.8012347  20.0630665
 102.3294544  34.0374327  20.9198356  55.7498646  84.6779251  57.3857212
  55.5722761  84.2723370  58.2343626  55.0096798  85.2677250  57.2425652
  40.4884195  71.9129896  79.4800615  40.5776930  71.0185099  79.8089504
  41.3418913  72.3144770  79.6432495  49.8203135  85.6182194  69.7685528
  50.0961781  86.4223576  69.3286657  50.2183533  85.6718540  70.6374121
  16.0079920  63.8471556  44.3667316  16.4884865  64.5630980  44.7824049
  16.5098298  63.0623388  44.5868444  67.6427603 102.4340630  57.7569151
  67.2339821 103.0201054  58.3938599  68.3541679 102.9505825  57.3783112
  83.8402748   2.6925048  56.5291548  84.2122459   2.9240149  55.6781101
  84.0066433   3.4578353  57.0794487  47.2866058 100.1989460  60.8051777
  46.8891478 100.7141590  61.5071869  47.9679155 100.7678318  60.4468250
  45.9452486  86.0273647  82.7535629  45.4713583  85.2675724  83.0917549
  45.2932501  86.5092850  82.2447491  51.4515114 104.6162701  84.5707321
  52.0849562 104.0832138  84.0902805  51.8799973 104.8025417  85.4061604
 111.8564415   6.5500057  13.1665719 111.5413475   5.7489830  12.7478695
 112.6533794   6.7739457  12.6859736 114.1149712  92.4485493  84.6558762
 113.2323933  92.5943565  84.9965286 113.9864826  91.8906307  83.8887787
   8.7209702  41.9906473   3.8378966   8.6115086  42.4231243   4.6847820
   9.4090116  42.4918652   3.4001619  60.9105253  18.0761623  86.7149544
  60.4519749  17.6216447  87.4216270  60.6203604  18.9854658  86.7870998
  16.9493401  36.9077420  12.5888526  16.0766208  36.7643476  12.9549527
  17.4623096  37.2516608  13.3201635  58.0085087  86.3510609  48.7930584
  58.1188059  87.2031689  49.2149305  58.4020996  85.7284260  49.4043303
  30.2460504  94.2212868  83.5100937  30.2966142  94.7294235  84.3197060
  30.8129191  94.6898460  82.8974342  13.1956947  67.7049971  85.2202415
  12.2547269  67.6709938  85.3924561  13.3063507  68.4602785  84.6427250
  15.7414031  79.3139410  43.7399149  16.5131271  78.8038492  43.9858484
  15.8287799  79.4400501  42.7950907  55.0152636  65.3249788  74.5886230
  55.4079247  64.4589043  74.4792747  55.4441261  65.8676720  73.9269686
  70.0658417 107.1571636  69.1547203  69.5835447 106.4407921  69.5675611
  70.9416294 107.1084118  69.5379400  22.3674512  80.1883984  64.6395445
  22.2162795  80.2230930  65.5840921  21.9938374  79.3500662  64.3678141
  39.4908285 100.9287167  44.8040962  40.3362131 100.6449223  45.1519775
  39.0811419 101.4030170  45.5275822  11.5452671  17.9410172   2.8913707
  11.4461195  17.5680447   2.0154181  11.5746689  18.8868189   2.7470559
  62.9038668  99.2383957  80.3664684  62.0580101  99.5734978  80.0690365
  63.3045435  98.8677025  79.5801640  22.1408677  97.3895931  89.8929596
  22.4883795  96.6201496  89.4419289  22.8084803  97.6078796  90.5432510
  57.6661253  86.5064240  71.0153961  57.7254677  87.1937370  71.6789484
  58.0532694  85.7367611  71.4324951  59.9277258 100.6309032  66.6888332
  59.4262314 100.0962543  66.0732937  59.7732067 101.5317917  66.4046812
  29.9741292  98.8508797  84.7460079  30.3931403  99.5150661  85.2932930
  29.4350648  99.3508434  84.1330814  40.9611177  73.0515909  62.7827692
  41.0109377  73.9835835  62.9952288  41.2769556  72.6091194  63.5706139
  54.6037531  87.6406097  65.1868534  54.7688055  87.4484348  64.2637825
  55.2692318  87.1397018  65.6585026  38.2227015  73.1382084  80.7172489
  38.9826179  72.5598288  80.6521797  38.1451082  73.3274508  81.6523361
  34.1123939 105.4075146  75.2950191  34.5007348 104.5327282  75.2819204
  33.4713864 105.3743935  76.0051203  46.1293077  55.4247046  91.5308285
  45.3817081  55.5056572  90.9385586  46.7048931  54.7896910  91.1045742
  61.3855076  81.6205025  90.8627224  60.5415583  81.6714382  90.4139709
  61.5890121  82.5268364  91.0937500  27.9025841  72.6424170  67.2099304
  28.7523317  73.0066824  67.4578667  27.5304890  73.2891607  66.6103458
   3.3454466  29.9020481   6.3342643   4.0116578  29.7645473   5.6608492
   3.1455961  29.0231371   6.6564572  36.6340065  90.1105785  74.6716452
  36.3586330  89.1967201  74.7441435  37.1731734  90.1362705  73.8811541
  19.4921589  34.1802645   4.7732696  18.7248635  34.6780610   4.4909787
  19.5989299  33.5045958   4.1037154  13.9565086  45.9177732  12.3517358
  13.7961352  44.9764967  12.4189115  14.7167325  45.9906292  11.7746878
  45.2594852  73.3781719  76.7919922  44.4455433  72.9441929  77.0477104
  44.9876976  74.0439463  76.1602402  45.9310961  97.1638298  83.1119633
  45.0288868  97.2776794  83.4107876  46.0490799  97.8389549  82.4437428
  35.7734179  83.8265705  69.1600513  36.4649963  83.1882763  69.3347645
  36.1206079  84.3678474  68.4510279  45.9292126  77.5157785  93.8843060
  45.3561497  76.8845367  93.4491444  46.5425539  76.9773722  94.3844604
   3.8207549  19.6067810  21.5319133   3.6115021  18.9701438  22.2153878
   3.4344196  19.2400682  20.7366157  52.4906635  76.3475847  53.6642027
  52.8786755  77.2218943  53.6287546  51.7486572  76.3902044  53.0610085
  32.3025823  84.8542309  79.9817657  32.1219492  83.9143467  79.9963856
  31.9849563  85.1723480  80.8268452  25.1101589 107.7418518  65.1846838
  24.9092627 108.6183262  65.5128050  24.8856378 107.7769184  64.2548513
  30.1278162  72.0314264  69.9844074  30.6460953  72.5280714  70.6176233
  30.1631498  72.5542450  69.1833782   3.6914590  16.7390418  64.2715597
   3.3311439  17.4777865  63.7809896   3.0159402  16.0630679  64.2171097
  44.1918802  89.5609093  63.8219786  44.0141678  90.4059696  64.2349195
  43.3823919  89.3457890  63.3586359  84.1907597  72.0893002  46.6446114
  84.7513580  72.5981569  47.2302914  83.3417034  72.0661545  47.0859814
  18.5858440  70.2426243  85.9294128  19.0063453  70.5208540  85.1157761
  19.2277002  70.4417849  86.6110134  45.1267862  83.4178829  89.8387241
  44.5694447  84.1925907  89.9123955  44.9852943  82.9423237  90.6573009
  30.0099897  86.1715031  85.0204468  29.9012995  87.1216774  84.9805355
  30.5373669  85.9582138  84.2506313  12.2839189  71.9255495  77.5294924
  12.4980736  71.6576099  78.4231234  13.1205738  71.9011259  77.0651150
  53.0055094  70.4854488  73.1461430  52.2565985  70.6901741  73.7060118
  52.7578640  70.8185053  72.2836018  52.0007229 100.2318096  77.2195435
  52.8392124  99.7860718  77.0991468  51.8843460 100.7434654  76.4189816
  62.1985912 102.2864437  59.0364647  62.7026033 101.5655518  59.4139767
  61.4572906 101.8606758  58.6058474   1.7162605  57.4306774  79.1914034
   2.2367463  57.9761076  79.7811794   1.0593586  57.0252228  79.7573709
  95.3965664  88.4512329  71.0157394  95.7100296  88.2929611  70.1252794
  95.9616756  89.1486263  71.3481855  72.6649189  70.1765060  75.0121593
  71.8534231  70.4901743  74.6130085  72.3769236  69.6442509  75.7537746
  24.4529366 107.6761341  57.4146128  24.1925859 107.2493649  56.5983295
  24.5330620 106.9597912  58.0444336  56.6385889  88.9396000  63.4175253
  56.8210602  89.8204803  63.7446022  56.7635584  89.0049839  62.4707747
  22.9789519  93.7547779  86.7479134  23.7063169  93.1325626  86.7522526
  23.1042290  94.2752266  87.5414276  72.6395702  67.6377916  42.4568176
  73.2462978  67.1644545  41.8875551  72.8643274  67.3472166  43.3407164
  13.2653129   3.9268649  68.8812017  12.6626492   4.5438683  69.2963362
  13.7112606   3.4990546  69.6121883  53.0255032  73.6055374  64.9442434
  52.6944828  73.5111475  64.0510750  53.4259939  74.4747734  64.9606371
  51.0844660  67.1920061  62.7719021  51.4927483  67.8785133  63.2993937
  50.2321482  67.0488071  63.1833458  24.6937323  82.7058029  61.7926407
  24.6302366  83.6433125  61.6101980  25.4148245  82.4027348  61.2409115
  32.6564050  77.0561838  69.0461874  33.1962943  76.9522762  69.8297405
  33.0208087  77.8230572  68.6042070  59.1376829  93.5587502  91.4500618
  59.4559193  94.0783119  92.1883106  59.1468620  92.6567745  91.7703533
  67.4799967 105.9622383  57.4955130  68.1963205 105.9349823  58.1298399
  67.8951216 106.2340927  56.6769791  66.8750429  67.9494429  94.3963146
  66.8193531  68.0540848  95.3461456  66.8678141  68.8440561  94.0559578
  53.0952406  69.6654129  69.3172407  52.8274488  70.4666042  69.7673655
  54.0493822  69.7250652  69.2693806  59.2444658 105.3945351  49.1899538
  59.9538994 104.8751354  49.5683193  58.4579086 105.0924969  49.6441984
   0.9889265 107.6398659  57.3460674   1.1185858 108.2023335  58.1096458
   1.2044331 108.1974697  56.5984917  55.1224709  91.2075615  67.4791527
  54.7585154  90.3227425  67.4496746  55.6278849  91.2857246  66.6700268
  77.0916843  86.9718933  91.1649799  76.7988491  87.8645134  90.9813595
  77.9300308  86.8963337  90.7092381  51.5113449  70.1578569  67.2258472
  52.0904493  70.0597000  67.9816484  50.6793022  69.7801924  67.5109863
   9.9294651  33.9106703   4.8101577  10.1262879  33.3591604   5.5673432
   9.3346286  34.5795822   5.1492137  31.7549157  65.3873253  64.2006588
  32.5919795  65.4341698  64.6625710  31.9911027  65.4152775  63.2734776
  54.3594742  74.2237759  82.7029991  53.4730291  74.5073271  82.4792957
  54.6797848  74.8934126  83.3073330  97.1428013  22.6716495   4.8984674
  97.8055668  23.3561087   4.8063242  96.8183136  22.7713823   5.7934505
  40.2503443 100.6384182  65.8025932  41.1224508 100.6365776  65.4080629
  40.4092503 100.4954433  66.7356205 115.3656914  18.3568013   9.2722142
 115.7993385  18.9674973   9.8682272 115.6412714  17.4912167   9.5739597
  47.8472996  85.5920601  66.1905146  48.2380342  86.4403343  65.9807587
  47.4693537  85.2915192  65.3640413  88.9386463   0.4316447  73.2266092
  89.2085266   1.3271838  73.0231237  88.9902210  -0.0300656  72.3897171
  79.5749712 102.2450829  51.0684824  78.8554001 102.7547264  50.6960487
  80.3496647 102.5386429  50.5890036  81.2792683  70.0376511  81.0734940
  81.1302948  69.6771669  80.1993752  81.3058662  69.2717981  81.6470718
  69.4067860  72.4208450  77.0799351  68.5749292  72.0110559  77.3172522
  69.9678946  72.2832489  77.8431225  36.1618519  81.8696785  77.3625469
  36.0493851  82.1561337  76.4561653  36.8956518  81.2558937  77.3304558
  83.7422466  77.8448486  76.2457514  83.3921337  78.0763435  77.1060181
  84.0860176  76.9585514  76.3576603 100.5813789  27.7979994   9.6075195
 100.7704639  28.7306571   9.5044410 100.7991791  27.4141526   8.7581336
  42.0145178  73.5040522  66.8718243  41.4306879  74.1504097  66.4748383
  41.6783142  72.6602316  66.5698910  30.4311943  79.8779011  92.4736595
  29.5385242  79.5330524  92.4948978  30.3491497  80.7285404  92.0424747
   2.9794309  34.3310881   4.4969645   3.1415221  34.8089719   5.3103435
   3.6850581  33.6857629   4.4536310  15.4042768  19.2603385  48.0291224
  15.2363861  18.8460886  47.1826935  14.5886087  19.1472590  48.5171127
 108.1716347  10.1819158  17.5128913 108.6622429  10.4017401  18.3048582
 108.2223701   9.2277062  17.4568415  44.7840166  75.1248360  56.1636591
  44.1686392  74.4681597  56.4897203  45.1229715  75.5480051  56.9524956
  49.6092319  93.7945271  69.5800924  49.1530752  94.4596767  70.0955772
  49.0367413  93.0283070  69.6174288  38.8996148  64.4942570  70.2592707
  38.6792994  65.4144859  70.1148081  39.6364236  64.5173740  70.8698511
  35.0323915  57.2375011  73.6810017  35.1261449  57.0393085  72.7492523
  34.9491644  58.1904316  73.7159824  54.2360306  73.0841684  76.0673189
  54.4731665  74.0043020  76.1828804  53.5155964  73.0998039  75.4372740
  38.5567141  61.1222458  65.5440998  37.9547334  60.5813599  65.0329304
  38.0028105  61.5383482  66.2046194  18.1520498 101.6555691  57.7124882
  18.6578131 102.2756958  58.2377386  17.9633820 102.1270180  56.9010830
  20.4391599  85.3765106  49.6096992  21.1901355  85.2081776  50.1788521
  20.0272417  86.1566353  49.9811363  52.3740959  79.1516352  64.7902727
  52.5893593  80.0347996  65.0901270  52.1858692  78.6653852  65.5929947
  50.0428772  76.3994217  52.1689081  49.5848179  75.8148193  51.5650415
  49.3438292  76.8445969  52.6478481  81.6146278  67.5883818  83.0519295
  81.2313175  68.1054068  83.7604427  82.4898911  67.9570961  82.9327965
  59.1599703  80.8731556  75.8817673  59.4935846  79.9902678  76.0412884
  59.2062855  81.3044930  76.7350101  35.8510923 105.0848770  64.7474003
  35.1876855 104.4468403  64.4846678  35.5154753 105.4574108  65.5627584
  40.1978254  89.3126488  72.8608131  40.8943367  89.1911030  73.5060453
  40.2318335  90.2444172  72.6443005  89.7108650  10.1838207  45.9751415
  90.4239941  10.2628624  46.6087341  88.9162827  10.1745260  46.5087843
  38.7975860  78.0777931  54.5508862  39.5569444  77.5564289  54.2905235
  38.5524035  77.7318621  55.4090500  45.9545422 104.1094971  60.6255913
  45.8271408 103.6967850  59.7713900  45.0737095 104.1725636  60.9948921
  24.0226793 100.4893398  84.7270584  24.7162461 101.1489964  84.7343063
  24.3120503  99.8446369  84.0814114  32.7390981 102.7200890  47.2733498
  33.2499909 103.5122299  47.1068048  33.3224320 102.1627426  47.7884436
  25.5904794  62.3888016  94.3107986  25.5486488  62.2177982  95.2516651
  26.3481545  61.8873167  94.0096664  70.2759409  71.6212606  87.3480415
  70.7180166  72.4686337  87.4005795  70.9807396  70.9782171  87.4253845
  95.1446247  18.3149362  91.9565678  95.7216263  18.0788517  91.2302303
  95.6427574  18.9603019  92.4581623  94.3574524  59.9811220  18.4673274
  93.7951946  60.6176424  18.9088535  95.0717831  59.8236704  19.0847170
  41.7536020  68.2965279  64.9165010  41.0472202  67.6694155  64.7616386
  42.4438429  67.7814579  65.3342438  17.2338688  51.5859556  60.8991289
  16.2788141  51.5286589  60.9277725  17.5013852  51.5875721  61.8181849
  28.6578488  98.5871887  73.9484358  27.8513360  98.2076168  73.5995865
  28.4278750  99.4941044  74.1505098  57.0441103  72.0648623  76.4795971
  57.3632622  71.9571209  75.5836296  56.1134815  72.2653961  76.3798666
  68.3078289   4.3222213  54.9566460  68.8064289   4.0373409  54.1908360
  68.8529062   4.0738949  55.7032776  61.1473751  97.0111561  51.3238001
  60.4331493  97.6114750  51.5376234  60.9622574  96.2256718  51.8385506
  32.6573944  81.4736843  77.5732946  33.2190371  81.8920803  76.9208097
  32.7156758  80.5389690  77.3754644  93.6177158   7.0942587  75.7192135
  92.7463913   6.7580712  75.5094147  94.2189217   6.4388728  75.3653097
  37.6700258  87.6525021  78.4017420  37.0817924  88.3542442  78.6806059
  38.0903029  87.9920769  77.6116228 116.1550272  17.9057777  26.6882706
 116.8896160  18.1446886  27.2535443 115.7612860  17.1452451  27.1158099
  33.4556389  16.6427290  20.7427311  32.6807809  16.9715011  20.2869511
  33.8530922  17.4216914  21.1319351  50.0664139  91.9574261  53.9719296
  50.7131433  91.3484001  53.6154795  49.6302652  91.4641094  54.6666527
  54.7826481 105.5715275  35.6161976  54.4153786 105.8027267  36.4693666
  55.3775597 106.2920189  35.4083371  42.9600573 104.1559601  35.4417849
  43.8844013 103.9420128  35.3150821  42.9381895 104.6464443  36.2634778
  51.7027712  70.7371569  61.6842604  51.5709019  71.6782331  61.7992210
  51.5939951  70.3710747  62.5619745 101.4836407  85.8728409  85.9123421
 101.4264965  86.7203712  86.3535500 100.7846355  85.3504372  86.3056946
   8.5196888  87.8425503  57.5656605   8.6345869  87.1857166  58.2523918
   9.3299425  87.8021717  57.0576334  58.2454205  72.1526670  81.3652992
  58.8784790  71.6202450  81.8469620  58.0507708  71.6413021  80.5799007
  47.4345589  84.4892502  57.1924353  47.9059887  84.9145222  56.4761019
  46.7404556  85.1069641  57.4223995  69.9403763 108.9670467  78.4447861
  70.5290222 109.6965313  78.2509279  70.1801586 108.2908821  77.8111124
  27.7227139  76.8815660  77.9333735  27.0999074  77.5875902  77.7605343
  28.4805942  77.0918369  77.3878098  68.5204220  70.3831863  91.7305946
  68.1309795  71.0692453  91.1884785  69.3508053  70.7551908  92.0277500
  68.5109854  74.5973110  65.8709049  67.7340746  74.0528107  65.9980440
  68.2332230  75.2693462  65.2484512  90.4605675   1.3652846  39.8850107
  91.0053921   1.0720895  39.1546440  90.7778072   0.8645424  40.6365728
  57.8771257  95.5774975  59.8317719  58.5048819  96.0334492  60.3923655
  57.0217657  95.8018017  60.1982212  56.0203266  86.1038589  81.1323166
  55.6184101  85.9331608  81.9841099  55.9005308  85.2896595  80.6434822
  50.5033588  84.9349308  89.3469620  49.5526648  84.8358250  89.3978500
  50.8316183  84.0425873  89.2364979  51.3773060  86.1698055  20.9179473
  51.5228558  85.3655910  20.4196596  51.2989235  85.8779430  21.8261909
  73.8035011  79.6416330  79.8789597  74.5357418  79.5713663  79.2664909
  74.2122364  79.8573112  80.7172012 112.8289318  34.6592903   7.8326577
 111.9191456  34.9332714   7.7166724 112.8734684  33.7962103   7.4211478
  30.2609801  95.8573246  65.7785273  29.9258614  95.8902264  66.6745424
  29.6202469  95.3291130  65.3024149  25.7831788  34.3222260  12.2075391
  24.9495435  34.6123385  11.8372452  26.3088536  35.1198626  12.2681522
  46.0479021  69.1951036  53.4186554  45.3396130  69.0903759  54.0539408
  46.2278700  68.3064175  53.1119251  35.6613541  35.0020313   9.3504649
  35.2456427  34.6409416  10.1334262  36.3821054  35.5350161   9.6861392
  33.0063796 103.4899330  82.2283077  32.3428726 102.9048729  82.5939465
  33.6945248 102.9041672  81.9127560  97.8410721   4.6370763  23.6007214
  97.7892113   3.7471157  23.2521343  98.1794071   5.1597387  22.8736806
  49.0684748 103.7476826  81.8667603  48.9794683 103.9913273  80.9453773
  48.9479589 104.5684719  82.3442650 105.9358501   2.5441611  41.9343042
 105.1711750   1.9775067  42.0362854 105.5725861   3.4274268  41.8701982
  23.9327359  68.9680004  10.0534415  24.0141153  68.0412483  10.2787054
  24.3287802  69.0390444   9.1849166   8.6815542  43.7873220  29.9183321
   9.0204197  43.9265299  29.0340114   8.8322431  42.8575850  30.0889683
  99.8759556   6.3850009  84.7930908  99.8857212   6.0646600  83.8911343
  99.3470478   7.1820509  84.7584629  72.9779673  10.8011842  53.2801390
  73.7570381  10.2451015  53.2730961  73.1401873  11.4494181  52.5947857
   3.0629885  90.6424236  32.1448135   2.3027322  90.2125645  32.5365567
   3.6378825  89.9224472  31.8852520  31.5411115 100.6469631  85.9259987
  31.2890601 100.4349422  86.8247509  31.9745564 101.4977551  85.9931850
  17.5640726  26.4974546  10.1110101  17.6338387  26.9633079  10.9442854
  16.6266441  26.4917541   9.9175519  44.6618319  95.0195980  54.6570396
  45.2474499  95.0909328  53.9032507  43.7976122  95.2420616  54.3108320
  97.7408409  16.9424701  75.1831245  97.5267506  17.6746881  75.7612705
  96.9327259  16.7763209  74.6977663 110.7369232  20.1765347   7.1761751
 110.9875298  20.7998657   6.4943498 111.3558197  20.3386879   7.8881431
  48.2501984  91.7338753  24.2638445  47.7394247  91.3053417  23.5770392
  48.2632160  91.1016655  24.9824357  52.0334387 102.3672581  75.0703955
  52.8612328 102.6936626  74.7176218  51.4708805 102.2622967  74.3030977
  44.7646713  77.4100828  72.8178263  44.3698549  78.0358553  73.4250832
  45.5105448  77.8782940  72.4427462   9.6461442 109.3626184  61.1341047
   9.4375852 110.2022164  60.7244587  10.4225495 109.5412876  61.6646767
  48.9740324  64.2792130  25.7285094  48.8681984  65.0259972  26.3178682
  48.8279629  64.6412516  24.8545384  22.1824002  57.5330973  24.7476935
  22.1038008  57.3045969  25.6738901  21.7247558  56.8293810  24.2877173
  69.9249506   8.2938570  60.0983334  70.6346893   8.9068741  60.2899504
  70.2862692   7.7100158  59.4313908  53.5731745  86.1435986  56.2611866
  53.7509012  86.7184734  55.5167627  52.6797915  85.8323479  56.1155128
  76.7120075  73.7367487  28.0124903  76.0236979  73.7442780  28.6776233
  77.1318150  72.8822851  28.1119084  70.8389330  91.5711117  56.7617369
  71.2526894  92.3319530  57.1693659  71.3580084  91.4095974  55.9738922
  77.2290277  95.8092976  46.2528133  76.3150883  95.5636978  46.1091805
  77.7299786  95.1869202  45.7256269  61.6530323  92.9750729  93.7653160
  62.4948263  92.5290489  93.6721325  61.7240143  93.7418365  93.1967545
  37.9885030  99.3472767  64.4847488  38.6135650  99.9804211  64.8378086
  38.2633781  98.5079765  64.8538780  24.8471236  79.3297100  85.9181690
  25.4767799  79.2796040  86.6373730  24.5855999  80.2501297  85.8924866
  63.0621862  82.1401787  63.7595940  63.3982325  81.7160892  64.5491886
  62.3215008  82.6636028  64.0656042 111.5765953   1.7029931  45.6811285
 110.9061146   2.3593162  45.4915905 111.1225605   0.8648050  45.5944204
  61.1838055  77.8633165  83.3718300  61.6022062  77.7220011  84.2210674
  60.3153276  78.2038116  83.5864067 112.3191357  88.7916183  44.4738626
 112.9094601  88.7545872  43.7212849 112.5333500  88.0111504  44.9849415
  47.6902103  82.3298264  65.7188320  48.3007336  82.7966022  66.2894583
  47.5090122  81.5111828  66.1805868  68.6615229  99.6759319  57.7843046
  67.7907085  99.2975616  57.9057550  68.5328341 100.6167412  57.9049301
 112.8605080  25.9231400  74.6977854 113.1405067  25.9918690  73.7850380
 112.1399212  25.2933049  74.6804905  15.0496650   9.9495417  44.7563601
  15.3473425   9.7118294  45.6344891  14.9605656   9.1133428  44.2991257
 116.0741043  11.4095545  68.6572504 116.4969921  12.2288334  68.9145088
 116.1257458  10.8579600  69.4378328  62.0686722 103.5143375  79.2758274
  62.8711367 103.8885593  79.6394777  61.5554476 103.2577419  80.0419807
  63.5703135  94.6170044  71.3669729  63.8724947  95.4820061  71.6439104
  64.3410158  94.0556622  71.4515114  14.5742512  74.0074730   1.5743142
  13.7486780  74.4031429   1.8537855  14.6833372  74.2957449   0.6680953
  33.0492353  66.7791605  79.6771240  32.5060868  67.4299145  79.2324495
  33.9287710  66.9220638  79.3275213  59.3757105  80.9803677   1.5085325
  60.0020170  81.7042255   1.5085997  59.6617317  80.4161072   2.2268920
  19.2194664  72.7480745  62.5724125  19.3743432  73.6662912  62.7940369
  18.6663640  72.7800846  61.7918444  55.2480078  17.3331571  92.9418373
  54.4072819  16.9295311  93.1574726  55.7590485  17.2676778  93.7485504
  46.7457199  60.6734419  65.9594250  46.4388323  61.3732576  66.5358877
  47.2067451  61.1285019  65.2547216  66.9429541  88.1917477  53.2801294
  67.0628166  87.5325394  53.9637327  67.7190065  88.1063557  52.7263451
  44.7396183  68.3420134  79.9868441  45.3738880  68.6114931  79.3225288
  45.0775480  68.7093353  80.8036041  85.9695244  97.1308708  74.8664904
  86.8251228  97.3682213  75.2240562  85.9387398  97.5623226  74.0125942
  70.0616741  71.2507105  74.1805124  69.3886089  70.9553480  73.5673475
  70.5556631  71.9107962  73.6942053  37.7623320  88.4999275  28.7881684
  38.0866933  88.1519508  29.6187925  37.5448465  89.4122887  28.9792991
  85.6144619  78.4951878  86.9165230  84.9606609  77.9267693  87.3235607
  86.2675381  78.6379337  87.6016045  78.8093567  16.2163508  56.5999985
  78.0485106  15.8623707  57.0604753  79.1546965  16.8875098  57.1886539
  32.2498083  36.8014836  15.3936911  32.0282674  36.6613793  16.3143003
  32.3849845  37.7462959  15.3209746  62.6731920  88.1891060  54.7917223
  62.0663691  88.7970161  55.2141428  62.1768284  87.3749924  54.7075510
  68.1734991  97.8747654  83.6217213  67.4135065  98.4462452  83.5119247
  68.7075663  98.0343246  82.8435612   2.2170807   6.8594313  89.7330761
   2.2711736   7.8136289  89.7861099   2.1607064   6.5717226  90.6442738
  25.5404830  64.5553732  13.2063496  26.3888359  64.8859787  12.9110014
  25.3060365  65.1208878  13.9421892  49.0474796  97.9219913  67.3968506
  49.0138721  96.9699383  67.3035574  48.9866447  98.0725002  68.3401871
  24.9491835  44.0123987  10.8127058  24.4565415  44.5953369  10.2350199
  24.3590212  43.2751417  10.9688938  35.9542799  75.6081343  11.0286450
  35.9436965  76.1919165  11.7871439  35.1734948  75.0645113  11.1338961
  84.7162437  91.8794918  87.2500038  84.8602486  91.8014908  88.1930828
  84.2067337  92.6837730  87.1512222  37.7902102  95.2254200  91.7502308
  36.9269514  94.8200607  91.6683960  38.4062409  94.5160770  91.5670109
   9.8008549  25.8377838   7.3034465   9.8763359  25.3369927   6.4912015
  10.3795063  26.5895462   7.1759748  65.0999546  97.1610737  91.9880199
  65.7703352  96.6010475  91.5966225  65.4043531  97.3090744  92.8833866
  58.2551765  91.3017559  61.3717079  58.7397861  91.3606644  62.1950674
  58.6803865  91.9386578  60.7974291  40.9511137  95.0805473  60.4336023
  40.3729010  94.8535728  59.7053289  40.5217505  95.8234978  60.8577538
  89.1246223  87.1205139  61.5934229  88.2950020  87.1381950  62.0705414
  89.0261364  86.4023876  60.9682608  84.4650364  81.9551563  89.3178844
  85.1827431  81.3218307  89.3228436  84.7637272  82.6601410  89.8923397
  52.8396416 106.6329479  88.0872154  53.7708759 106.7150497  87.8815746
  52.6332474 105.7168579  87.9016781 100.8984280  32.9794812  82.5571060
 101.5907764  33.6274004  82.4263763 100.1024914  33.4144497  82.2513103
 113.0971909  63.2982731  69.1331434 113.6290169  63.5538435  68.3794355
 113.2836056  63.9644384  69.7947359  39.5163178  88.9773273  68.0527782
  39.9511886  88.6169529  67.2799635  39.9482584  88.5493851  68.7920523
  30.6514192 106.9541264  38.9727139  30.3725219 106.6150856  38.1221271
  30.2373910 107.8149033  39.0348959  49.3122816  83.7198067  67.7023602
  49.6775055  84.1624832  68.4684420  48.7699270  84.3844032  67.2776318
  26.4621782 105.1148510  47.1700811  26.7541671 104.2040730  47.1319628
  25.6714845 105.0905323  47.7090120  68.5802364  98.4724045  48.0557060
  67.8710461  98.9255142  48.5117388  68.9591980  97.8936958  48.7173128
  43.9711046  67.3834038   2.1598490  44.5322657  68.1580114   2.1960233
  43.4694958  67.4127722   2.9745629  86.3346291  23.1919098  43.4862900
  86.0935974  22.4122238  42.9860687  85.7816315  23.1561732  44.2667723
  37.8659916  99.7296810  77.1373987  37.4340367 100.2033424  77.8482389
  37.7437901 100.2873039  76.3690567  65.5910254 107.7868652  50.6497145
  66.4593887 108.0765724  50.9294271  65.0764370 108.5920334  50.5936670
  98.7191391  29.2752433  88.4630680  99.1814899  29.8594189  87.8620625
  97.9058933  29.7368145  88.6675453  35.6561732 105.3278637  36.1614084
  36.4126635 104.8391438  36.4856005  35.8258295 106.2329388  36.4227533
  36.4020324  87.4307537  83.7177563  35.6356049  87.9020023  83.3910275
  36.1885619  87.2286606  84.6287060  57.9543257  94.3401718  46.2319183
  57.4691963  93.7433720  45.6620884  57.8579140  93.9663792  47.1078253
  36.0644484  79.1163921  86.6234112  36.1895823  79.3160915  87.5511551
  36.2524986  78.1805372  86.5523815  77.8403330  85.6516171  57.9608536
  77.1148920  85.7954025  58.5685492  78.4028482  86.4178085  58.0738068
  61.8125725  97.5854778  68.0399942  61.1205912  96.9286442  67.9627752
  61.7515802  97.8924274  68.9445925  48.8763046  82.2774887  74.5668650
  49.1924620  81.4041424  74.7982359  49.2107058  82.8450394  75.2613401
   5.3623486  19.0256798  76.0028315   6.1723685  19.3594098  76.3884783
   5.3088087  18.1191134  76.3053274  38.1992316  97.2854233  78.2793617
  37.9188275  98.0032539  77.7116203  37.4799562  96.6550064  78.2413435
 107.1620083  50.8626318   3.8174778 106.2638187  50.6845427   4.0963733
 107.2133446  51.8172932   3.7703824  11.5902781 103.9968204  42.2833538
  11.2876952 103.8090038  41.3948727  10.7922161 104.0032101  42.8118277
  34.9227142 102.2491169  66.3479424  34.3911576 102.2199917  65.5524349
  34.6050358 101.5161419  66.8752480 112.6739216  44.8940992   4.9927568
 113.5412788  44.8430157   5.3943902 112.5583076  45.8223391   4.7896826
  74.3583012   3.4988788  46.8103266  75.2185297   3.3963272  46.4032364
  74.5492268   3.7610498  47.7109098   6.0457629  26.4768314  30.1753068
   6.1433828  26.1439800  29.2831683   5.7395804  25.7232785  30.6799269
  16.9530666  47.5010252  21.3098025  16.0422397  47.2255802  21.2060928
  17.4295557  47.0096731  20.6406522  74.4290733  17.3144853  72.0441103
  74.7942400  16.4340401  72.1318579  75.1930189  17.8911936  72.0387697
  46.8997812 107.5406170  36.0151863  47.6540470 107.2038841  35.5315304
  46.6369295 108.3248043  35.5333185 113.0212975  79.7253132  12.6751733
 113.4889698  80.3713512  13.2044661 112.2845078  80.2093506  12.3022413
 108.3926201   9.3195176  84.4330311 108.3188820   9.2014933  85.3800583
 109.2097950   8.8790464  84.1996765  37.6404095  69.1304684  93.9542866
  37.5130296  70.0641680  94.1222477  36.8048668  68.8361692  93.5916710
  33.5718107  59.5793867  78.1204748  33.5384703  59.9233484  77.2278309
  33.8068557  60.3346252  78.6595440  50.8248425  86.3345909  72.1558094
  51.3990164  87.1000862  72.1798372  50.9553623  85.9105778  73.0039930
  59.9800873  98.2165718  71.0999680  59.5705652  97.7862740  71.8505478
  60.5969095  97.5685692  70.7595778  66.4631796  97.7661800  64.8520327
  65.8035898  97.1900558  65.2383566  66.4883184  98.5256481  65.4341125
 111.0200310  20.2331018  36.9914412 111.0733891  19.5358896  36.3377738
 110.2329636  20.7236934  36.7546511  72.8193903  86.3280201  76.3578033
  72.9322910  86.7832947  77.1921921  72.8135443  87.0261002  75.7029200
  52.4483109 108.7048531  41.2040949  53.3042049 109.1322136  41.1717844
  52.6344395 107.7823830  41.0290289 103.1859016   4.7594976  52.8530025
 103.1776619   3.8074893  52.7537870 102.8905010   5.0912380  52.0051146
  30.4384899 109.1378498  89.4515610  29.5999455 109.5787144  89.3147659
  31.0201097 109.5202065  88.7944794  56.2542343 107.0918751  56.8234444
  55.7606220 107.8561115  56.5259266  55.8274508 106.3496304  56.3954735
  58.0835962  68.5264349  81.6083813  58.7824726  69.1655159  81.7475986
  58.0594587  68.4007454  80.6597805 110.4518700   5.1449579  81.2022495
 110.9088707   5.2539974  82.0362091 111.0954380   5.4002541  80.5412865
  65.3562164 101.3473320  30.8531833  64.6471071 101.9381237  30.5994868
  65.0376558 100.9178257  31.6470790  91.3402462  34.5360923  17.6220477
  91.2884426  34.4858599  16.6675711  90.4605579  34.7952247  17.8963459
  48.2066345  96.0806751  92.2541809  48.8902140  95.4197407  92.3642445
  47.9483986  96.3091660  93.1471252  47.8753328  80.7296562  79.3654823
  47.6630354  81.6332245  79.5994043  47.2148323  80.4889202  78.7158585
  65.7788134  83.8456726  57.8096342  65.3289127  83.9347267  56.9694614
  66.6033030  83.4094524  57.5947666  88.6558628   3.2875726  80.9183788
  88.5369492   2.7892911  81.7269611  89.3607903   2.8322673  80.4579353
  56.2567949 101.5345097  77.3119497  56.8557644 101.2812519  78.0143166
  55.5809641 102.0528412  77.7487755  76.2257528  83.6876011  49.1636896
  75.8538961  84.5612240  49.0422964  76.9052887  83.8066196  49.8272419
  82.5490093  96.5949726  77.0817232  83.1483650  96.1210251  76.5052032
  81.9538784  95.9226322  77.4134016  98.0351448  32.9867268  76.0859203
  97.9923725  33.2781625  75.1751709  97.2339535  32.4785423  76.2126637
  92.5610161   3.2648662  59.6147919  92.8248119   3.2713276  60.5349016
  93.0515289   3.9857805  59.2199326 110.9032440  28.0975080  93.1289387
 110.8566475  28.1459880  94.0837669 110.1404476  28.5904074  92.8265762
  17.6393676  77.9647875  64.9998569  16.7809463  78.2529259  65.3102160
  17.4598050  77.1628904  64.5089865  45.6580925  83.8040352  93.3436489
  45.0212049  84.4595432  93.6281204  45.2279186  83.3510780  92.6183796
  37.6335406  93.1162453  63.6874485  37.3012590  93.5687923  64.4627047
  37.5002122  93.7377453  62.9717779  73.2047272  94.6263218  59.8378611
  72.7203512  94.9241638  59.0678644  73.3481646  93.6924934  59.6841526
  41.4302540  93.2254982  69.4844675  40.7332659  92.8512096  68.9456272
  41.1316586  94.1138649  69.6790934  89.0783024   1.4615576  91.2790966
  89.9266148   1.8759745  91.1214447  88.5747623   1.6366737  90.4841137
   6.7383653  36.5696192  45.3254461   6.9791895  36.4769483  44.4036818
   6.0411406  35.9270406  45.4566050  43.2372618  70.9339619   4.3401507
  42.3314762  70.8781862   4.6445796  43.5207558  70.0229120   4.2636535
  72.2777939 101.2277794  67.5343323  71.7534924 100.5155659  67.1681356
  73.1575394 101.0806179  67.1870136  65.8911943  18.2854915  80.5423355
  66.5738010  18.8576829  80.1917934  65.7891607  18.5640728  81.4523983
  25.8796334  87.7641296  67.1049738  25.4628229  87.2150135  67.7690315
  26.1132050  88.5672569  67.5704479  13.5569882  18.6792159  20.2128983
  13.0291140  18.9168835  19.4506037  13.2188296  17.8249657  20.4814816
  55.5711269  94.2720222  79.6502686  55.5010796  93.4850693  80.1906586
  56.3767958  94.6953011  79.9468565  58.1910849  99.6222496  68.8824415
  58.6944294  99.1970348  69.5767546  58.8528728  99.9538040  68.2755327
  61.8678617  93.3958244  81.6110134  61.0015249  93.3363247  82.0136929
  61.9348669  94.3053246  81.3202286  89.9168777  13.8012159  74.6407890
  90.2739239  13.1283236  75.2204084  89.2750072  14.2647290  75.1787472
  74.7143221  76.6117525  45.7356453  74.6023226  77.2737980  45.0534534
  75.6615925  76.5546370  45.8607626 106.6290951  28.8088799  51.7483759
 106.7562199  28.1358576  52.4170399 106.1541080  28.3630347  51.0470629
  13.9384961   3.9186677  55.6436825  14.3064964   4.3246189  56.4285469
  13.1305599   3.5032952  55.9452391 115.8610916  77.9685688  64.5425558
 115.0568104  78.3969450  64.8355818 116.2346554  78.5732937  63.9014673
  50.5589628  99.8939037  62.4718142  50.6515217 100.8112621  62.7289534
  51.2050819  99.7738743  61.7758560  45.1939297  62.4959135  79.0751457
  45.3943872  63.3850813  78.7828588  44.7841072  62.0809650  78.3161354
  46.0350323 100.8180523  52.8276920  46.1210728  99.9526119  53.2275009
  45.9693384 101.4192009  53.5696697  69.8871326  97.9346943  89.8651791
  69.1348219  97.9538822  90.4566956  70.5392551  98.4927559  90.2888966
  19.5634401  58.2427788   2.4820645  19.1340172  59.0087843   2.1011910
  20.4506707  58.2625151   2.1233681  27.1273732   8.1224281  67.9259920
  26.3563251   8.4534252  68.3865976  27.6926780   7.7818656  68.6193037
  76.5356207  23.8146996  66.4410686  75.9482288  24.3384576  65.8962011
  75.9894276  23.0962586  66.7600489 110.2666950  83.5404778  78.9817476
 111.0865211  83.5337734  79.4757843 109.8540592  84.3724251  79.2137241
 105.0790024  34.1130805  53.0631733 105.2929115  35.0460219  53.0535650
 105.8591557  33.6848283  52.7107668  71.1638212  56.9943666  65.1351452
  71.1339092  56.0395432  65.0748014  70.7265234  57.2984409  64.3398190
  84.8802948   7.5115561  45.0924683  84.0791893   7.7850229  44.6456289
  84.8135757   7.9017770  45.9639645  12.2722697  86.0217381  88.7844753
  12.2360373  85.1527309  88.3848095  11.8734252  86.6008663  88.1350422
  30.7088971 106.8744946  62.5441360  30.3192997 106.0072422  62.6551151
  31.5672922 106.8067360  62.9622221  27.2473335 105.9683037  60.2412176
  27.1639514 105.1923847  59.6869326  27.2550702 105.6247425  61.1346054
  40.7271767  75.5088472  57.7746916  40.4031992  74.7779322  58.3010244
  40.7035828  75.1846504  56.8743753 112.9313374   3.7747610  50.3453636
 113.0115604   2.9354998  49.8921156 113.1324291   3.5735619  51.2593174
  97.6354504 107.7674675  40.9352779  97.9994774 107.5132465  41.7832661
  96.7835331 108.1500244  41.1453247  93.6384678  11.7213857  66.7313957
  93.0571556  12.2287595  67.2978640  93.2363796  10.8536577  66.6912651
 104.7332096   8.3290774  68.2591152 104.8375034   9.0296376  68.9029884
 104.9684811   7.5313365  68.7329149  53.9999485  96.5772247  81.5885162
  54.0460205  96.7055035  80.6410694  53.5353422  97.3488998  81.9123745
  54.2523098  86.3284302  62.6480293  54.8020840  86.5857601  61.9079256
  53.3696508  86.6004181  62.3966932  46.4648342  91.3850212  65.8285093
  47.0732117  90.8123970  66.2956381  45.7563019  91.5418243  66.4527130
   9.4465226  71.5487003  58.1598473   8.7667370  71.6296196  57.4908400
   9.0681481  71.9603205  58.9367867  57.2377300  11.5802097  86.2057114
  56.6206551  12.2380519  86.5261745  57.9813719  12.0876563  85.8805561
  81.4956379 103.7259102  49.4719315  81.1225224 104.5786190  49.2485094
  82.3187256 103.9331532  49.9144316  55.5823946  98.6203289  70.2947569
  56.4857626  98.7814617  70.0223684  55.4146671  97.7122021  70.0429726
  21.4585114  81.9289112  47.2383404  20.8128166  81.8597126  47.9415655
  21.0717869  82.5469112  46.6180515  10.2348816  53.8243628   0.3903309
  10.2716029  54.7401333   0.1141945  10.5265403  53.3311224  -0.3764030
  44.8727036  83.6194134  86.4622974  44.6692896  83.2658768  87.3282433
  45.6346655  83.1181145  86.1718655  31.3988280  99.2477322  24.7190452
  30.8064532  98.5127831  24.5604205  31.7931032  99.4261551  23.8652611
  17.1588600  97.8172112  57.1692514  17.4127877  98.2330608  56.3453484
  16.2770569  98.1469822  57.3421860  26.7470932  83.7423801  51.4738655
  26.9119740  83.2339382  50.6798029  26.6704202  83.0863762  52.1667004
 116.2551113  51.7563963   7.3702192 115.6862483  51.4988470   8.0956805
 116.8191298  52.4367332   7.7379978  47.1495581  82.6614189  51.6550446
  47.6707411  81.9104290  51.3711119  47.5128603  83.4022617  51.1698723
   1.6657311  56.3187933  10.7689428   1.0402029  55.8240080  11.2982178
   1.1713487  57.0787764  10.4619563 103.0461597   9.3620086  75.4576015
 102.8295708  10.2503014  75.1742983 103.9761162   9.2652696  75.2525616
  54.8638868  81.9545460  69.9749184  55.3550196  82.7014065  70.3173018
  54.5798397  82.2334385  69.1044188 111.2479973  45.0475550  17.8210402
 112.0458317  45.3789139  18.2332182 110.6503487  44.8864555  18.5511756
  38.9363670 106.9235039  88.9227390  38.9348221 105.9663105  88.9196110
  38.1569672 107.1659088  88.4227371 105.4850292  18.0048215  56.0321379
 105.8770943  18.0049503  55.1589155 106.1593342  17.6279449  56.5973854
 107.4215889  33.6892533  48.3596468 106.8155575  33.1586194  48.8767385
 106.8989658  33.9962530  47.6188040  34.6967173  55.5462027  18.0678916
  35.0707102  54.7235632  18.3835220  34.0790367  55.8062935  18.7513053
 100.9299278  14.2711604  91.8960094 100.3298378  14.9408031  92.2241783
 100.4365253  13.4536862  91.9632530  93.8608360  39.4472170  83.2302094
  94.7037697  39.6223259  82.8118324  93.7713623  38.4947109  83.1992531
  44.1113758 101.4497852  47.8589535  44.1985464 101.0645199  46.9870615
  44.6362495 100.8834362  48.4246302  81.5434074  12.5853646  46.0427713
  81.7928219  13.0924392  46.8153620  82.1039867  12.9223275  45.3438950
  87.0860481  12.5284529  60.0391150  87.6910400  11.9858074  60.5448389
  87.3076153  13.4267223  60.2845812  14.8275411   3.2416481  53.2516384
  14.2713141   2.9757220  52.5194311  14.2243719   3.3351862  53.9889765
  39.6476722  34.4940257  55.4492235  39.2059827  34.5633459  56.2955904
  39.1686702  35.0954914  54.8791122  86.6432667  17.4950421  74.8919630
  85.8554935  17.9650593  75.1653194  86.3146782  16.7433512  74.3987894
  46.5102816  29.6246099   5.6905097  46.4634562  29.5887065   6.6458893
  47.4286652  29.8184919   5.5028415   2.8503978  76.7793226  13.7154317
   2.2522797  76.0705090  13.9522314   3.0016994  77.2490883  14.5355880
  38.7822127 104.0248585  85.7982159  39.2658663 103.9055252  84.9808598
  38.7602425 103.1531239  86.1929703  64.3624115 107.5972176  66.3002491
  64.7614336 108.3888340  66.6612864  65.1048183 107.0408344  66.0646439
 112.9579067   9.1968191  40.4621458 112.8063965   9.8962396  41.0978222
 113.0237293   9.6481442  39.6205950  20.0407791   0.1562505  86.8505859
  19.7608232   0.9898558  87.2286892  20.9600091   0.0746657  87.1047306
 108.8703823   3.0713999  71.0987806 108.8420582   2.1152049  71.1322641
 108.8965511   3.3425221  72.0164061  77.8948355  80.0199795  85.9433937
  77.5697088  80.3203869  86.7920876  77.9149866  79.0659571  86.0186672
  84.6072388   7.3121488  82.9583073  84.7198296   7.8419316  83.7475395
  85.0747585   6.4985454  83.1472683  88.2889843   5.8067155  63.0854177
  88.5545826   5.7068413  63.9995956  87.4144936   6.1932570  63.1309319
  74.3297434   1.4491399  75.4562378  74.9407053   1.9923908  75.9540701
  74.8898840   0.8982822  74.9094009   3.0186033   8.6418879  74.2362547
   2.7271247   9.5466661  74.1237879   3.4083900   8.4093159  73.3935165
  99.5315552  11.0900795  66.3262272  98.8416004  11.0862947  66.9896841
  99.6172714  10.1733315  66.0645819  48.7172461  98.4666157  94.4148731
  48.5611248  97.5734520  94.7216511  48.0321074  98.6195564  93.7641621
  11.5507257   3.2019466  81.0534191  11.4500117   2.4145183  81.5882587
  11.1670017   3.9014128  81.5823269  96.3447571   0.9363202  57.7579594
  95.6476784   1.2648243  58.3257627  97.1290874   1.4024343  58.0474281
  43.2581568   3.7367633  80.8059502  43.7901354   3.1975204  81.3911438
  43.8697672   4.0344384  80.1324844  71.5989828  69.9343872  43.1770658
  71.9340134  69.1676044  42.7122784  72.3554516  70.5154133  43.2570505
   2.9322270  13.2676804  72.0824337   2.4468182  12.6319373  72.6082087
   2.7359214  14.1127121  72.4869299  61.4579821  96.8611431  77.6577759
  61.3103151  97.6354313  77.1147394  62.3932886  96.8851757  77.8598976
  26.2778616 101.8192959  85.7926750  27.0230031 102.4075127  85.6701946
  26.6728497 100.9602928  85.9421349  89.7885418   6.9200665  85.2153587
  89.4708920   7.2604007  86.0517216  89.4141483   7.5083798  84.5596600
  46.0474443  91.5274811  81.3289261  45.4573441  92.0676327  81.8545246
  46.9246197  91.7877197  81.6101170  69.1979790 106.3556099  66.8840599
  69.2349100 107.0345879  66.2103701  69.5525694 106.7759991  67.6674891
  59.2029905  96.6608047  73.5821676  58.9810801  96.6342545  74.5129108
  58.7858963  95.8818054  73.2141733  60.5344105  11.1836028  66.4688253
  60.0794506  10.3423548  66.4294958  61.1790466  11.0748124  67.1679974
 108.2266140  78.9650059   1.4770168 108.8229275  78.3213425   1.0944713
 108.3888340  78.9117146   2.4188635  38.9148068  77.7312803  72.2255421
  38.0398393  77.4320221  71.9783497  39.4394875  77.6179790  71.4330101
  76.1134720  63.0307579   6.4011401  75.2638865  62.7892447   6.7700630
  75.9764624  63.0150747   5.4539257  80.5187321   3.1613562  83.2579327
  80.2708912   3.7361619  82.5337791  81.4635658   3.2847443  83.3490944
  14.0996253  39.1043258  18.4723496  13.4089565  38.8701081  17.8523898
  14.6313000  38.3120775  18.5491431  41.0666227 100.5517578  41.5044355
  41.1484909 101.0753822  42.3015213  40.4818964  99.8342037  41.7482519
  40.7192516  76.1118317  90.1341438  41.4912748  76.6383886  90.3413773
  40.6336164  76.1763477  89.1829681  55.8253098  93.5617924  87.3962879
  56.7407942  93.6888695  87.6452160  55.7062483  94.1202736  86.6280651
 102.3130417   8.7428814  45.7694340 101.7369080   8.0728376  45.4015446
 101.9178486   8.9614654  46.6133976  69.7682285 102.6604557  79.6688557
  68.8662481 102.3749733  79.5233631  70.2530241 102.3134708  78.9199877
  86.7316532  20.6948781  83.7642193  86.8618298  20.3835011  82.8684902
  86.1917496  20.0203252  84.1761875  21.9629407 109.1701126  72.6007605
  21.5354252 108.7831306  73.3647680  22.7693200 109.5532608  72.9459810
  98.3961010 103.8568497  49.8574591  98.8479233 103.5713577  49.0633631
  98.5137367 104.8066807  49.8716211   4.8749378  41.4552975   0.6470485
   4.5049733  42.2266865   0.2177188   5.7078636  41.7586088   1.0082544
  57.4781227  87.9778767  91.9716835  57.9479885  87.5017071  91.2870502
  57.1934414  87.2989178  92.5834084  60.3248501  71.4417839  74.0859461
  61.0901594  71.2776375  73.5349512  60.5424118  71.0359478  74.9251127
 104.7024059  14.6493185  75.1042557 104.0209675  15.1199746  74.6242952
 105.3755188  15.3086638  75.2728176 110.3677654  17.8447890  48.7345505
 110.3252029  17.2688413  49.4979000 111.1914539  18.3209908  48.8394403
  67.2103214  55.9540224  14.6998930  68.0520296  55.8554363  14.2548692
  67.2068071  56.8604040  15.0076151  59.9369335  83.3466244  56.5089703
  60.2031851  82.8149033  55.7588959  58.9813423  83.2915020  56.5144968
  44.4967318 101.7778587  62.8160620  45.3966951 102.0987320  62.8738451
  43.9902925 102.5361919  62.5250721  26.3074875  93.4203815  34.2302823
  25.9138083  93.6156654  35.0806451  26.0108495  92.5332928  34.0270638
  90.9501076  89.1698360  87.8437710  90.8980656  89.8110580  88.5525417
  91.5234280  89.5767975  87.1942234  89.2501736   8.0644494  55.0372505
  90.0788403   8.0015028  55.5122137  88.7906933   8.7940603  55.4529142
 108.2096481  75.7182455  53.6436224 108.4768581  75.6176090  52.7300024
 108.1626797  74.8231125  53.9794207  42.2194815  85.8942413  61.4100981
  41.2956905  85.8714771  61.1604500  42.2236013  86.3022518  62.2759724
  97.0683002  87.7259350  51.1126804  97.4536896  87.2733974  51.8629646
  96.4898491  87.0766449  50.7126188  59.5916748 107.0632458  83.6851788
  59.9008989 106.1597633  83.7510300  59.7872400 107.3182201  82.7835274
  71.1838341 104.6636009  27.5031781  70.7786655 103.8759708  27.8661013
  70.6237221 104.9025059  26.7646408  92.0914142   3.8886846  93.3684438
  91.9014530   4.2726816  94.2244192  92.8184407   3.2877935  93.5315163
 101.4770985  12.4135959  82.2431374 101.3220310  12.5827956  83.1724072
 100.9957790  13.1058991  81.7900562  55.4238176  91.6673374  84.6822166
  55.0767994  90.8941269  84.2373085  54.6847057  92.0041370  85.1886845
 109.8944950   7.1230817  74.5374441 110.0868893   6.9783485  73.6110163
 108.9831924   7.4156755  74.5499420  93.4601212  12.6076901  59.9384689
  94.3753719  12.4662185  59.6965551  92.9598045  12.1829259  59.2416954
 103.5882092  11.6415000  65.4754448 102.7910805  12.0915616  65.1956940
 103.5976505  10.8316731  64.9652290  13.5575342  32.6433039  83.8763428
  13.0212414  33.4245777  83.7413025  12.9525828  31.9125533  83.7487888
  12.9376602  21.9197655  35.0689864  12.8360057  22.7587366  34.6195173
  12.3467875  21.3264513  34.6052194  37.7850103  97.8295612  36.1228633
  37.9640985  97.5503254  35.2249861  38.5999680  98.2390213  36.4134073
  42.5570869  98.4537315  71.2388659  41.7754936  98.9667892  71.0336494
  42.7996302  98.7298870  72.1226883  70.8802748  21.0497832  78.5676384
  70.6150198  20.6961679  79.4166565  71.2323093  21.9168854  78.7687397
   3.0435964  84.5308208   2.7906549   3.1069839  84.8531437   1.8915850
   2.1030228  84.4686031   2.9570326   0.3746567   2.4889806  81.7248726
  -0.2472152   2.5587082  82.4491882   1.0672246   1.9182974  82.0578957
 103.2804775   2.0957157  52.4324656 103.4736347   1.5140817  51.6971922
 103.4540558   1.5648386  53.2098150  59.3147469 103.2603741  85.8734322
  59.1574907 102.3288536  85.7192516  59.6203327 103.5944939  85.0300980
  58.8375616 107.4210835  69.9484205  58.6435366 108.3253574  69.7016764
  59.3899679 107.0925331  69.2391014 114.8169327  12.8021848  46.4131165
 114.7577572  12.4152935  45.5395889 114.9557781  12.0561790  46.9965792
  72.5174665 104.7508144  72.7570391  72.8089666 104.7952557  71.8463898
  73.3147430 104.5708656  73.2552290  15.2867210  18.0672729  91.5049458
  14.8430479  18.4271562  92.2729778  14.6252918  18.0905819  90.8134270
  56.8222332 107.4842644  46.0307503  56.8565035 108.3372211  46.4637852
  56.0611773 107.5394535  45.4528379   7.4121493   5.7666510  67.7740288
   7.4515152   4.8107406  67.7437353   7.6332128   5.9869105  68.6789322
  52.6809406  90.0134182  64.6809006  53.0904436  89.2275143  65.0426865
  53.1049442  90.7378483  65.1409674  29.5607543  18.0701458  76.8671703
  30.1837587  17.3828089  76.6312408  29.7421122  18.7796581  76.2507820
  61.4306498  92.2733307  59.0733862  61.3118744  91.9369698  58.1851387
  60.6099653  92.7249527  59.2702055   1.6946268  55.7136440  19.5375717
   2.2007519  56.1283875  18.8389623   0.8001240  56.0269785  19.4037127
  28.3612561  57.3500490  12.2343540  28.7003589  57.4243116  11.3423193
  27.4487686  57.0835114  12.1222937  84.1762257  81.0753918  67.9096699
  83.7921715  81.7529583  68.4661293  84.3328571  80.3396702  68.5016203
  70.9332943  90.4259491  84.7047710  71.5525436  91.0260391  85.1202965
  70.2321339  90.9915352  84.3811703  34.2503333  34.1688061  64.2379904
  34.7278309  33.5446072  64.7844410  34.7640657  34.2236614  63.4321976
   4.8457685  27.6067448  81.8297863   4.4278345  27.9645777  82.6130676
   4.1614598  27.6308966  81.1609364   2.3056249  63.7746525   1.1499190
   1.7312571  64.4748020   0.8398804   1.9649936  62.9831743   0.7330611
 109.8444176   7.5169426  47.6724005 108.9644241   7.8754169  47.5568581
 110.0151157   7.0355088  46.8628836 104.1341209   7.1019065  30.6315494
 103.5737896   7.8397435  30.3910041 104.9608803   7.5052887  30.8961034
   2.4072170   0.2955195  75.7775211   1.4759877   0.3390738  75.5603886
   2.4872400  -0.4785245  76.3349104  92.7815914  89.3902493  50.4352093
  92.1987915  89.6012306  51.1646318  92.6778698  88.4468365  50.3109121
  62.7497435 106.0564232  31.1030173  61.8248558 105.9760857  30.8698487
  62.7495146 106.1470890  32.0559144 106.4729977  17.1051228  70.8783817
 106.6915226  17.8529835  71.4344263 106.5328503  16.3479567  71.4609194
  18.4109640  80.6484699  81.7090225  17.5236702  80.7810020  82.0427513
  18.9789915  80.8469963  82.4534416 115.2939892  71.5333271   2.7645272
 114.6654797  71.5760612   2.0438510 114.8566914  71.0055876   3.4327289
  52.1149158 104.2928314  57.5528479  52.1630478 103.3457756  57.6832008
  52.6299810 104.6599674  58.2712841 103.2060814  33.1667662  35.5431151
 104.0454388  32.8893399  35.1760387 103.2853794  34.1166091  35.6311226
 100.7868290 101.7773724  32.7285767 100.0758457 101.9641209  32.1155047
 100.6876945 100.8478165  32.9343319  99.2303276  90.0450420  86.4547253
  98.3896828  90.4981709  86.3898182  99.8392391  90.5987263  85.9659576
  37.2467709 109.6474171  73.7054491  36.9202280 108.7974453  74.0006542
  38.1898093 109.5192814  73.6030293  73.4983158 105.2471924  76.5821648
  73.2538891 104.3412781  76.3929462  74.4138384 105.3100967  76.3099527
  71.6124105  96.6508389  60.9456730  72.2640657  96.0342026  60.6120110
  70.8619595  96.1039162  61.1778975 103.8615131   9.2566395  88.3680153
 104.1830444   8.4426272  87.9804134 103.4892178   9.7418505  87.6316738
 115.3693199   8.6949152  73.7535715 114.4805050   8.3429831  73.8024330
 115.4770660   9.1871983  74.5673752  82.3723984  30.6495166  29.4948888
  82.1744251  30.2742219  28.6368752  83.1642818  31.1680675  29.3525553
  59.0929127  76.2225008  52.9627085  58.2968235  76.5803909  53.3556318
  59.3541574  75.5153894  53.5526037  53.6399412  80.9790039  66.7010069
  53.0928898  81.7629814  66.7494631  54.5361996  81.3137913  66.6715288
  91.2171459  20.0942469  92.0152760  91.5862751  20.5752039  91.2745571
  91.1840820  19.1850042  91.7179203   5.4855716  80.0010777  19.3539155
   5.2088410  80.2331448  18.4674633   5.5043405  80.8342361  19.8247993
  61.6377974  89.1131687  93.1234169  61.2149954  88.6708832  93.8595200
  62.5363493  89.2623138  93.4176826  16.7833459  83.6869335  70.4481030
  16.2378871  84.3601799  70.8548403  16.8142319  83.9303780  69.5228958
  97.9594898  24.6729589  87.0436287  97.7182770  25.5973458  87.1032429
  97.1395016  24.2242718  86.8374062  56.2653494  94.1298771  71.7459822
  55.7507038  93.4401417  72.1650696  57.0558119  94.1978455  72.2815037
  53.2470274  72.5871420  91.2499046  53.8980722  73.2852125  91.1787415
  53.3825970  72.0525265  90.4675770   7.9777724  15.8983564  77.8798580
   8.2399887  16.4488578  78.6177063   8.3331788  15.0341976  78.0875778
  91.9949436  36.9657969  76.1745882  92.3818302  36.6841674  77.0035839
  91.4091778  37.6835656  76.4152527 102.1332550   0.6433719  45.4313135
 101.8835354  -0.1198726  44.9104214 102.3801517   0.2819927  46.2825918
  71.0377979  96.0298729  83.0829620  71.5463066  96.7439461  83.4673309
  70.8914232  95.4226303  83.8082695   8.9715004   9.2754424  85.7848263
   8.5527253   8.9426321  84.9910450   9.7971016   9.6520257  85.4801941
  98.9332104   7.9504490  76.5739012  99.6315479   8.4133261  77.0368385
  98.2192326   8.5857505  76.5204763  51.8313789  83.2859421  66.6646481
  50.9036827  83.1230164  66.8351507  51.8380642  83.8332176  65.8793640
  66.0234785 105.8503723  52.4577188  65.6595945 106.2887955  51.6885614
  66.9695473 105.9717178  52.3773813 102.2523308 104.8742104  50.4020834
 101.9642925 103.9650822  50.4841900 103.0589771 104.8244953  49.8891640
  69.3037701  84.5441246  51.8583679  69.4529343  83.6467457  52.1561766
  70.1469851  84.9803352  51.9806147  92.7501011  35.4386902  78.4798050
  92.1583939  34.7923851  78.8650465  93.2000542  35.8283043  79.2294502
  98.8468933   8.7574393  91.4134502  99.4804859   9.4213259  91.1413383
  98.5841465   8.3289748  90.5988216  25.8676362  96.4790440  83.6019421
  24.9193740  96.5380764  83.4855556  25.9895682  95.7477570  84.2074013
  44.5012760  87.6778698  24.5262408  45.1424217  88.2110596  24.9962068
  44.9256134  86.8257046  24.4263291  62.2162580  87.2981834  66.0220861
  63.1564331  87.3216820  65.8438921  62.1532345  87.0431805  66.9425344
  55.0643873 108.8003063  79.8453188  55.1133394 108.6366463  80.7871532
  54.2014647 109.1935444  79.7150803  91.3484478  19.6097767  59.7412205
  90.4228783  19.3683457  59.7056723  91.7561340  18.9194429  60.2641582
  71.3413334  92.2548962  65.4033756  70.9731627  92.8485203  64.7489357
  72.2829199  92.4252510  65.3785038  78.9115715  84.7824860  55.5088282
  78.4733486  85.0891209  56.3026619  78.6676311  85.4209900  54.8387241
   3.8831446  12.3425353  55.6825399   4.8345917  12.3479664  55.5778933
   3.7379080  12.6707041  56.5699196 105.8977985  40.3951406  60.2345085
 105.7088375  40.5344677  59.3065453 106.1070633  39.4633269  60.2990484
  40.5262995 104.0939331  75.8388662  41.0069418 103.5051918  75.2569771
  39.6160889 104.0250015  75.5507755   6.2993425  25.2365446  70.4932594
   5.9088212  24.5403361  71.0214806   7.1624756  25.3770065  70.8824968
  35.4264665 106.9489002  62.2084808  36.1387873 106.9702148  62.8475237
  35.8397508 106.6484356  61.3990688 100.2797604  11.4961898  92.6684761
 100.7074547  10.9066951  93.2896042  99.7263813  12.0567036  93.2123852
  40.1868057 109.0981674  80.5624104  41.0326576 108.8940144  80.9612656
  40.3993702 109.3416023  79.6614218  19.8512900  65.0269556  15.4095793
  19.2973232  64.4614983  14.8714221  20.3615761  65.5336905  14.7778690
  81.2393951   1.9648623  75.6073236  82.0238018   2.4894795  75.7677031
  80.6420803   2.5596139  75.1537657 100.8694363  21.2003756  84.7784519
 100.1508522  21.7091465  84.4029331 101.5683651  21.2559366  84.1268063
  95.3578758  12.0575762  46.9800043  96.0036469  12.7242029  46.7458868
  94.8765278  12.4379897  47.7147341  44.3181658  87.6648521  92.6867199
  43.9025974  88.2214737  92.0281506  44.0579462  88.0491734  93.5238647
  74.3945980  99.6166706  76.3416290  73.7464619 100.1953793  75.9400654
  75.2304363  99.8989105  75.9702206  90.5981064   7.8084141  92.9059029
  91.0537148   7.3347813  93.6018372  89.9517822   8.3449966  93.3647823
  14.2133439   5.7000643  76.4049101  13.9055300   4.8001698  76.2968683
  14.7422075   5.8675778  75.6248617 112.4272251  30.3571582  61.9333696
 112.1933651  30.6267238  61.0451841 111.6088676  30.4196787  62.4259377
 104.3433094  55.6153250  89.4734097 105.2079201  55.2285147  89.6114445
 104.4921684  56.5594292  89.5257568  13.1960356  17.7620733  82.0189857
  13.3595479  18.0202258  81.1118698  12.8526771  16.8707860  81.9561768
 107.2133923   2.5257885  88.2674694 106.2930679   2.2626765  88.2648659
 107.3818874   2.7988404  89.1692829 115.3141022   7.5933069  35.7360125
 114.6452141   8.1886083  35.3977203 115.0429344   7.4152726  36.6365719
  39.5148563  15.2673388  73.3827543  39.0865302  15.6454766  72.6147795
  40.4468870  15.2741230  73.1647921  12.2041345  29.3923807  64.5315742
  13.1096554  29.4486570  64.8366976  12.2777092  29.2558289  63.5870266
 112.6499653  16.1848307  55.5479574 112.3778725  15.2789199  55.6946754
 111.9795513  16.7100310  55.9849262  46.6545677 104.7805500  40.3201056
  47.0021677 105.6500053  40.5186939  46.6098452 104.7530365  39.3643475
  60.4065847  76.5244627  56.2287617  60.5307770  75.6093979  55.9768295
  60.1699686  76.4877319  57.1555281  78.3564091  15.0961494  67.3322964
  77.4428844  15.0700927  67.0476389  78.6322069  14.1795540  67.3364878
  30.0925183  32.4031377  68.9265442  29.2580676  31.9376922  68.8692236
  30.3615642  32.5254774  68.0161142  67.7787542 108.9115238  76.5424013
  68.2242918 108.8628864  77.3881912  67.5233984 109.8302269  76.4586830
   3.1388104  64.5824432  11.9877398   3.8189417  64.9622250  12.5439966
   2.3410200  65.0526047  12.2300482  40.1443243  98.6249161  37.0736003
  40.2719021  99.5673370  36.9649839  40.6460190  98.2314491  36.3596582
  56.5274763  97.4056911  67.6846743  57.3146915  97.7703953  68.0890417
  56.2094021  96.7618942  68.3175945 102.6289749  11.6621745  56.2198162
 102.7421474  11.7918026  57.1614218 102.6385880  10.7118118  56.1060190
  75.4215956 101.9440365  78.3795834  74.5258522 101.6122150  78.3182049
  75.4177332 102.5014591  79.1577196 109.6623707  30.9892702  74.5176697
 109.3305302  31.8774796  74.3865347 110.5870438  31.1086202  74.7344017
 101.3361931   8.8715434  77.8251791 101.7633533   9.5123243  78.3936644
 101.7159748   9.0276855  76.9605303  89.8878098  20.4273868  47.1948624
  90.1008987  21.3543415  47.0872545  88.9783001  20.3555202  46.9052601
   4.5532981  78.7116337   1.9178513   4.8450345  77.8483820   2.2109702
   3.6117333  78.7174797   2.0900545 111.1806107   1.4580859  79.7958374
 111.3307571   0.5675489  79.4786119 110.5743027   1.8394786  79.1608906
  62.0752096  86.7278862  86.4440060  62.9075623  86.9953442  86.8337250
  62.1822596  85.7929802  86.2687016  96.8792915 108.4550476  70.3074884
  97.3216534 109.2783546  70.1007700  96.7980766 108.4596920  71.2612247
  49.3849230  99.5668221  57.9897451  48.6031914 100.0736427  57.7700615
  49.6431971  99.1553497  57.1649885  75.6999683  94.9733543  87.9293823
  76.2727833  94.2200756  87.7855778  75.0123405  94.6442986  88.5082817
  27.6860309  36.2079334   1.7545098  27.3545575  35.6650066   2.4697632
  28.5473537  35.8412313   1.5547942  47.0768785  14.1995597  47.4854612
  47.1016073  15.1563787  47.4746656  47.9894733  13.9350605  47.3695326
  65.4542875 101.3125992  56.4896059  65.5702877 100.9844303  55.5979300
  66.1589813 101.9502735  56.6037083  81.7409229  74.3803167  73.0219841
  81.5970421  75.2259827  73.4466934  80.8986282  73.9309597  73.0915642
  84.2599773  66.5738535  49.1279793  84.9758911  65.9756899  49.3422079
  83.5957813  66.4011621  49.7952509  23.2970548  18.8430190  71.3750505
  22.4753189  18.3560741  71.3128901  23.7508225  18.6529052  70.5539656
  54.5092869 107.2716904  44.5683002  54.2799187 106.5075397  44.0394449
  53.6690331 107.6810741  44.7747087  45.0382519  52.0812511   9.0340215
  44.5448017  52.1646404   9.8499793  44.6135902  52.6939583   8.4336203
  29.7690701  58.8556194   5.8083618  29.5459032  58.6222315   6.7094481
  30.5685759  59.3760824   5.8867496   1.1173311   6.0746258  83.6483479
   0.9895508   5.7521421  82.7562046   1.4548925   6.9632268  83.5357666
  72.1282959  81.4305210  48.3428574  72.2564697  80.6244850  48.8429642
  73.0139303  81.7566013  48.1830120   3.3369669   6.0361123  27.0766473
   4.0058094   5.3888661  26.8531442   2.7847898   6.0890931  26.2965679
  95.1399231  22.2754049  50.9827900  94.3277645  22.0163703  51.4181280
  94.8542976  22.8054762  50.2386951  74.3124342  95.8297062  85.5621624
  74.7626495  95.4776192  86.3299942  74.9962759  95.9035587  84.8964691
  72.2046804 100.7782555  57.9330254  72.5558281 101.4942932  57.4036646
  71.6627932 101.2114048  58.5925484 106.7035484   4.2240429  78.6728334
 107.2633648   4.0394914  79.4270086 105.9137154   4.6115741  79.0499496
  10.1367187  25.4382515  84.7604465  10.4605389  25.3322983  85.6549549
   9.6260238  26.2474632  84.7848701  71.1199427  16.0448015  75.3197432
  71.3905716  15.5961788  74.5186615  71.7501402  15.7567716  75.9801340
  45.2939653   3.6843604  76.4348745  45.8682632   3.9290124  75.7092333
  44.5562506   3.2399479  76.0171318  50.9338427 105.7417297  78.9465427
  51.2765503 105.9120369  78.0691671  51.6887426 105.8533669  79.5243788
  99.5981121   5.7403827  47.6676369 100.0642872   6.0954285  46.9107628
 100.2749157   5.6294930  48.3353758  27.6176596  64.9863958   1.0695758
  27.0576978  64.4617558   0.4973653  27.2137046  64.9115896   1.9341311
  33.2968307  71.3755178  69.8563814  33.6098504  70.5743408  70.2763367
  32.7868867  71.8180799  70.5348539   1.3615166   8.1729084  63.6588430
   1.4128891   9.1252661  63.5775566   1.9006115   7.8417885  62.9405355
  29.1813588 102.8026390   3.3067074  28.4273410 103.2643127   3.6735183
  29.8552346 102.8691196   3.9832455 113.9553642  24.0140033  54.6024847
 114.2436886  24.0869427  55.5123091 114.0420914  23.0830050  54.3976545
  87.9331684   1.7966869  59.9565506  87.4443436   1.9659036  59.1511583
  87.6833916   0.9069183  60.2058601  57.9802036  92.7256584  84.4871235
  58.4880590  91.9454956  84.7099686  57.0685577  92.4359226  84.5215988
 100.5279636  55.3294563  76.9960260 100.6883526  54.8300600  77.7967167
 100.6602383  56.2421370  77.2524452  58.8915539 100.3873539  51.4509964
  58.8541985 101.3159943  51.6800642  58.0399036 100.2040577  51.0543442
  71.9941711   7.6893485  76.9794130  71.1466312   7.2460872  76.9416332
  71.8377733   8.4589642  77.5266457  16.5916550  41.7866278  56.4028978
  17.3001993  42.0580053  56.9864607  16.3397062  42.5876570  55.9434366
  97.3666191   6.1019015  67.4299812  97.0998669   5.4744089  68.1017923
  97.0428276   6.9448555  67.7475071  10.3210437  39.7797847  65.3975487
  10.8847964  40.5101871  65.6523561   9.9358582  40.0535965  64.5651484
  56.6497946  65.4180574  10.1006222  56.5688276  65.7730055  10.9858859
  56.0419893  65.9399843   9.5767927 111.7853069  34.2134786  67.1939468
 111.4682102  33.4491897  66.7127609 112.3761559  33.8522696  67.8547478
 104.0872192   6.7164230  74.9028969 104.5851421   6.8416697  74.0950441
 103.1854725   6.9310987  74.6641731 114.0177059  69.0603876  14.9186778
 114.5638466  69.4429159  15.6054342 114.2019939  68.1220436  14.9609613
  29.5812368  18.2609212  45.7884598  30.4099059  18.6180055  45.4690361
  29.3473768  17.5888801  45.1482201  20.1499414  29.2884636  63.0340815
  20.1579809  28.8641405  62.1761084  21.0682368  29.3005252  63.3039284
  14.4736731  25.5252814  49.1594839  14.4711614  24.5905614  49.3657017
  13.5890424  25.7023644  48.8396358  20.9101319 101.8216133  30.7439542
  20.0734162 101.9560528  30.2989078  20.9312773 100.8841515  30.9361625
  29.6853232  25.7351375  71.8973923  29.8686361  25.7657957  70.9584093
  30.0290895  24.8880124  72.1810055 111.9217968  25.9233284  57.0626688
 112.0612335  26.4761138  57.8315735 112.2593880  25.0654173  57.3200560
 107.8748608  51.3965893  33.3212209 107.3652458  52.2067070  33.3363581
 107.2850609  50.7357883  33.6841345 102.9214382   9.3576914  52.6574087
 103.6197758   8.7179041  52.7960777 102.2001171   8.8485587  52.2876644
  87.0066643   4.1567957  61.1347342  87.7508736   4.7478670  61.2488508
  87.3765850   3.3864000  60.7035923  90.8230209  22.4363184  59.1600704
  90.0656986  22.7372670  58.6579466  90.7289410  21.4841580  59.1878748
  15.4089904  50.4352140  57.2552443  15.2571034  51.2246609  57.7747965
  14.6828103  50.4153013  56.6319466  29.1629505  81.1342621   3.0869281
  30.0849366  81.3504505   2.9475138  29.1687322  80.2102852   3.3368671
  91.6395378  41.5589333  30.0727224  91.0507107  40.8104563  30.1691771
  91.9878769  41.4767885  29.1849494  95.5258656   8.3454072  39.3541431
  96.4783955   8.3102709  39.2664003  95.3783798   8.5918003  40.2672529
   3.9493990   3.2244346  69.8691940   3.2957858   3.7251610  69.3810415
   4.1896844   2.5077400  69.2819643  11.3569093   8.9268279  84.3763065
  11.9778335   8.4852660  84.9557114  11.9049263   9.4550890  83.7959194
   2.0775743   4.0614355  74.0873623   2.2369952   3.2711416  73.5713673
   1.5822372   4.6340138  73.5016775  32.5786424 101.1903858  30.6953382
  32.2774243 101.7566776  31.4058447  33.2400560 100.6293201  31.1002588
  87.5744820  21.5160346  36.7180157  88.2334042  20.9262443  37.0843530
  87.3320675  21.1153841  35.8831811   9.4224095  48.6822367  67.5725079
   9.0503109  49.5631170  67.5298071   9.8978978  48.5828447  66.7477274
  41.2551355 101.5437603  47.2757244  42.0863819 101.0696602  47.2535563
  41.4688778 102.4174023  46.9481611  41.4328861  27.2826529  84.0371227
  41.7015457  26.5952015  84.6465969  42.2544622  27.6734447  83.7395954
 100.0103378  13.7484539  88.6224174 100.6010914  14.2010140  89.2244339
  99.9247265  14.3439782  87.8779316   7.1010941  28.8399768  76.1828327
   6.1769366  29.0859771  76.2234259   7.3186082  28.5775661  77.0772934
  48.8728914  60.9765653  -0.2525174  49.8003063  61.1707328  -0.1167523
  48.5000560  60.9602980   0.6289352  96.7473698  10.1337194  56.8524790
  96.4498234  11.0244966  57.0374393  96.1239052   9.8022848  56.2062025
   3.2350081   2.7513248  35.9145927   2.4597085   2.3528855  36.3100505
   3.8504755   2.8500998  36.6410041  40.3668404 103.6540890  83.3715820
  40.6389618 104.2178726  82.6474762  40.8415794 102.8352261  83.2290363
  18.8273752  10.6967270  45.3987265  18.8303041  10.1452839  46.1811161
  18.5760868  10.1049745  44.6895647  56.7313814  61.8508196   0.7364926
  57.1311140  61.0158920   0.9800924  56.2019825  62.0935774   1.4961214
  61.6193867  77.4044752   2.0701388  62.4807930  77.7440739   1.8274821
  61.2726068  77.0302820   1.2602270 100.7626438 106.7190456  54.0343666
 100.8666134 107.2299385  54.8371220 101.1787701 105.8793545  54.2292786
  25.0863647   0.3157404  32.9536200  24.4661450   0.5785020  33.6337042
  25.9004807   0.1419646  33.4261084  68.8607311  86.9295406  89.8644447
  69.1135263  86.2710571  89.2173576  68.5504532  86.4217949  90.6142139
  13.3593464  12.7836168  64.1945410  13.1898713  11.8644738  63.9879417
  12.4902582  13.1661296  64.3153811  96.0238120   0.5439652  75.5480576
  95.9960410  -0.2144252  74.9646997  95.5531356   1.2288560  75.0730705
  71.2102795 108.1418228  53.7270117  71.3002920 107.2070122  53.5419083
  70.9616041 108.1802464  54.6505499  78.0384016  25.6041598  80.4005814
  78.4938574  25.2170563  79.6529531  77.4830818  26.2831306  80.0173759
  36.7074704  96.4234829  72.3114681  37.6642919  96.4480305  72.3224306
  36.4420748  97.2851086  72.6330280  75.4347372 103.1122303  63.3746099
  75.7148838 103.2255363  64.2828560  75.4121876 102.1637726  63.2474661
  19.4831693  39.0940857   1.8439870  20.1315784  39.1834879   2.5424162
  19.7678494  38.3253098   1.3498473  74.6748495  27.1128201  50.9162378
  73.9575434  26.6011667  50.5421829  74.6248198  26.9432926  51.8569756
  25.9019542  24.8468113  51.9421387  26.7616773  24.4675756  52.1245861
  25.3003550  24.3574834  52.5032711  62.4588156 104.5658779  81.8903160
  63.2001448 104.1663837  82.3453617  62.7967405 105.4023170  81.5703011
  21.3278723  73.4631205   5.1132077  21.0602236  72.7257824   4.5646426
  20.5543113  74.0255117   5.1526368  67.8256702  23.4185100  89.5587254
  68.0043650  23.0905485  90.4400635  66.8705654  23.4503484  89.5040989
  12.4105215  15.9238398  53.5042477  12.5208378  15.3027928  54.2242241
  12.9779708  16.6597688  53.7336826  89.8694420  35.1421571  69.8323584
  90.6577110  35.6796741  69.9094009  89.2707443  35.4996490  70.4880905
  79.9720097   6.9767880  87.1938324  79.7113180   6.2776709  86.5942478
  79.5056391   6.7815506  88.0066204   8.7824768  45.8555126  66.2305784
   9.6411645  46.2647247  66.1236620   8.3922905  46.3092232  66.9776630
  71.9995975 106.2868118  88.7047958  71.3291121 106.9609165  88.8155556
  72.1054792 105.9086132  89.5777130   1.0573252   2.2154008  90.6153011
   1.2421380   2.4275908  91.5302086   0.2764253   1.6629677  90.6505871
  17.2958004  23.1728816  47.5571299  17.3894501  22.4253941  48.1476593
  17.5804234  22.8421760  46.7051601  55.6260395  73.6894131  73.4602165
  54.7618866  73.6326170  73.8679552  56.1945009  74.0312004  74.1503334
  98.3902359 106.5354919  82.8331852  98.1146526 107.3692894  83.2140732
  99.3295288 106.4894676  83.0116463   4.8379382  28.2298994  57.2603893
   5.4960465  28.2119417  56.5655518   4.1556594  27.6296687  56.9596386
  19.3087494  55.7360077  40.8569002  18.4813249  56.1261606  40.5751514
  19.9739909  56.1785984  40.3298330  20.2220416  38.2578993  54.9163485
  19.9773717  37.4696493  54.4315481  19.5346582  38.8904858  54.7076130
  88.1859779   6.6009778  87.5993443  87.5702477   6.1135691  88.1466484
  88.6800766   7.1403790  88.2167149  14.0953314  10.5050516  57.7440786
  13.6502945  10.3521013  56.9105434  14.4500685  11.3907635  57.6671982
 104.5768547  14.4866753  62.9986858 104.9464798  14.4075215  62.1192884
 105.1605129  13.9670706  63.5514784 114.0758705   2.9206267  61.9040442
 113.6795998   2.5978100  62.7133608 113.3332253   3.0869523  61.3234854
  13.2567334  23.4707141  31.2203765  13.4133089  23.9510751  30.4073763
  12.3034203  23.4412551  31.3013673  17.0225286   6.3039660  81.1336136
  16.5629351   6.4930838  81.9516850  16.8513727   7.0665133  80.5809307
  95.0004482  21.2380743  43.7780428  95.1005745  21.7849612  42.9988670
  94.2158985  21.5768528  44.2092419  35.5253053  11.0318744  61.7587090
  36.0809565  10.8737171  60.9955120  34.6774364  10.6576204  61.5193653
  90.9078693  18.3311033  79.5267200  90.3144836  17.6255679  79.7842836
  90.3651428  19.1193497  79.5454693   0.0251887  11.8521190  41.7554140
   0.5130823  11.0475945  41.9312906  -0.0462145  12.2802818  42.6085329
  97.3808575  41.7856503  58.4964466  96.8320465  41.5017557  59.2275047
  98.2763958  41.7106724  58.8260221  13.9067364  16.1376441  73.9829540
  13.8660526  15.2684700  73.5840654  13.0076170  16.3173926  74.2577362
   1.8884288   1.4055674  24.6820712   2.4860562   0.7133333  24.3994331
   1.6055615   1.8244445  23.8692021  94.0889072   8.3352214  67.9102039
  94.1879463   7.4301517  67.6147842  93.3418465   8.6689293  67.4134350
  82.7067852 105.8705330  78.7775087  83.5403633 105.9427166  79.2424536
  82.5787163 106.7319584  78.3802938   3.3502847  15.7691991  54.2153549
   3.4289700  14.9420500  53.7401009   3.8527790  16.3943398  53.6929274
  11.2306201  31.5430355  71.7536163  11.5839386  30.6667542  71.6002274
  11.9767821  32.1283007  71.6234636   9.1468972   7.6161420  30.5679965
   8.9381397   7.0244724  31.2908936  10.0916004   7.7541840  30.6366491
 113.5310555  21.2562037  86.6300201 113.2384109  21.6620922  85.8140278
 113.2603550  21.8695951  87.3131752  24.1055059  18.2183349  49.5110083
  24.9681139  17.8441226  49.6901846  23.5449886  17.4600840  49.3463659
 110.1988125  40.0295258  38.5134387 109.8480129  40.9187984  38.5620999
 110.0017738  39.7427893  37.6217055   8.8941479  31.2778616  63.8590574
   9.3567824  30.4405046  63.8912153   9.5632249  31.9113541  63.5997248
  27.0499873  40.6594515  35.4110050  27.5131512  39.8451543  35.2144599
  26.1307144  40.4612160  35.2324724 104.1276836  56.9954634  35.0244927
 103.8032913  57.4428034  34.2428946 103.3400822  56.6598558  35.4526091
   3.0802977  24.4036198  42.4432802   3.6852276  25.0263524  42.0401716
   2.3130590  24.4103074  41.8709755  83.3607864  97.6893997  93.1276226
  82.9940796  97.4667740  93.9833069  84.2409229  98.0122662  93.3208752
  82.0310211 107.1916866  51.2269402  82.5001717 106.6393566  51.8522787
  82.6225090 107.9268265  51.0658741  91.9550610 105.8310986  43.4755373
  92.4661064 105.1412487  43.8988304  92.4689960 106.0710335  42.7044821
  16.9610631  18.3413637  12.9688251  17.7304077  18.5241532  13.5082030
  17.1761966  18.7099242  12.1120203  96.0959339   7.7830863  70.7939482
  96.9734383   8.1578302  70.8700132  96.2463093   6.8501770  70.6413031
  37.4730134  10.9697866  54.5925999  38.0879593  10.3138947  54.2641497
  37.1170688  11.3802469  53.8045263  77.6045895  73.0130816  38.4449649
  77.7034569  72.3989677  39.1725087  76.9609880  73.6501503  38.7550521
   2.0002300  25.2273726  53.1703901   2.0370360  24.3732929  53.6010027
   2.5531808  25.7919502  53.7105083  93.3795643  53.7152147  46.6226006
  93.2010460  54.0982580  45.7637405  92.8910828  54.2642546  47.2359324
 107.7044392  25.8557916  70.9975195 107.5122356  25.9140444  71.9334126
 108.1271744  26.6885185  70.7875347  89.2886162  95.0881863  46.9980574
  88.4288597  94.7408867  47.2356319  89.8024178  94.3155575  46.7629385
 103.1146622 104.0391254  65.1037598 103.8068962 103.6718178  64.5541000
 102.5764370 103.2857132  65.3464842  21.3815117  13.6089802  39.7329068
  21.6687202  14.4623005  39.4079638  21.4433813  13.6821568  40.6852961
 102.2915363  25.9052086  50.8063412 102.8963184  26.4478612  50.3003788
 101.7715645  26.5316343  51.3097811   4.8305014 104.8916340  18.7500083
   3.8838989 105.0322533  18.7701094   4.9959269 104.4972515  17.8936636
  16.0191333  12.6566219  65.8792400  15.1860046  13.1245053  65.8225489
  15.9310961  12.1039581  66.6557980  38.4898114  21.3175249  44.9348116
  39.2229533  21.6031528  45.4799271  37.7864027  21.9344187  45.1370335
 115.4847813  28.4926176  85.1911259 114.7629738  28.3884645  85.8111095
 115.5075836  27.6660037  84.7090244  94.7879219   8.7146044  42.2755098
  94.4326782   9.5558017  42.5626040  94.9688530   8.2413113  43.0875969
  33.7439418   1.5158723  62.2849607  34.2859435   1.3005313  63.0439663
  33.3477259   0.6828175  62.0294952   3.7961420  45.8715391  57.9519558
   4.1976392  45.2339077  57.3616505   3.4386769  45.3444529  58.6665392
  84.7241020 103.8160801  46.1293745  84.4785118 104.7304821  45.9887028
  84.2402840 103.3324146  45.4598856 105.8054352  10.4774332  48.1675100
 105.9598637   9.6298766  47.7503347 106.0610867  11.1201704  47.5058699
  17.4342358  26.8960881  68.8335657  18.2627285  27.3691821  68.9111185
  16.8985581  27.2317553  69.5523214  20.2445173  26.4736104  53.1556892
  20.4717875  26.8264675  52.2954130  19.4178474  26.9012642  53.3792019
  44.1747236  48.7031269  46.8967676  44.6219206  48.9158630  47.7159071
  44.6535826  49.1930103  46.2282324   2.8445816  26.7925358  63.4266567
   3.0853516  26.3826561  64.2574739   1.8878324  26.8183351  63.4407043
  14.7597206  72.2236204  52.9555845  14.5755041  73.1628942  52.9635811
  15.3787875  72.0948362  53.6741972  24.2216492  44.8611879  59.8423100
  24.0853190  43.9198732  59.9498558  23.3471990  45.2121353  59.6737719
  90.4412365   2.9166844  72.9628706  89.5804501   3.3144337  72.8322029
  90.7479763   3.2774180  73.7947416  13.7945950  55.7640648  68.3213806
  12.9317403  56.1320066  68.1307650  13.9695382  55.1721907  67.5897312
  10.0144374  40.4887629  79.0881872  10.1023173  40.1570654  78.1946087
  10.7495666  41.0928011  79.1928291  10.5900097  46.1679125  78.1335068
   9.7550404  46.4273691  78.5230446  11.0923743  46.9809437  78.0802345
  88.0944633  14.5430422  41.3282537  88.2198906  14.3865955  40.3922939
  88.7969685  14.0482688  41.7500496  99.5785904 103.6802673  66.0679340
 100.2798080 103.1561565  65.6808519  99.1084862 103.0694962  66.6355610
   5.1118994  11.8711841  51.5887737   5.5070382  11.4554393  52.3550987
   4.8514324  11.1407602  51.0276413 115.8404160  84.9612427  42.7920341
 116.5116596  84.8291302  42.1225548 115.9230518  85.8832932  43.0353928
  33.5893083  36.5087199  40.6233549  33.4494472  37.4549890  40.5880880
  34.0149450  36.3608241  41.4678621  46.4029789  14.6768749  12.8093731
  45.7199526  14.8918748  12.1741724  46.5775442  15.5020881  13.2619035
 115.5668068  58.5641146   3.5894009 115.2114582  58.1922531   2.7821344
 114.9595642  59.2684031   3.8162673  10.9291303  91.0522461  74.0177298
  11.1260152  90.7705975  74.9111176   9.9957412  91.2638283  74.0335131
  94.1242313 105.5395794  36.7375588  94.5071983 104.7238541  36.4148307
  94.3970299 106.2004852  36.1011457  38.2531714 106.7826557  52.7482462
  37.3508096 107.0933247  52.6743937  38.4741473 106.4773655  51.8683624
  33.6383152  30.4777527  38.5620427  34.2199397  29.7547507  38.7970257
  34.0844083  31.2595439  38.8876748  49.1496134  27.3352981  54.4293165
  48.7420130  28.1147027  54.8069715  50.0830698  27.5447583  54.3974495
   0.9055603  88.6340618  61.6474152   1.3270491  88.8997078  62.4647331
   0.2180674  89.2856884  61.5096617  35.0736642  23.1943655  53.2382345
  34.1670442  23.4558940  53.0773830  35.0418639  22.7176523  54.0676737
   5.4172933  96.7145824   9.7799754   4.5113835  96.9972897   9.9050057
   5.6795579  96.3670349  10.6324208  24.9935722  18.2128835  69.1642141
  24.9320960  19.0321422  68.6730289  25.9000230  18.1846678  69.4704533
 109.3342686  14.5483816  22.0284462 109.0159988  13.8328886  21.4779854
 108.6719704  14.6360219  22.7139497  13.7941229   3.9969420  62.9633045
  13.3196723   3.8428703  62.1463633  13.4847152   4.8519582  63.2623768
 112.9018593 103.3767891  72.1828985 113.7961006 103.0891705  71.9989586
 112.4148750 103.1699181  71.3852262 108.7997246  43.0762339  92.7223873
 108.3292675  43.8009357  93.1343460 109.4502640  43.5003138  92.1627617
 105.7779884  30.6571245  57.6173210 104.9858379  30.1731920  57.8508425
 106.4645386  30.2687144  58.1595564  21.0917068  12.7878714  84.8564148
  20.8968806  12.3455834  84.0301895  20.8228683  13.6950660  84.7116566
  17.3012340   4.0886140  88.6373425  17.0395517   4.9425781  88.2931042
  16.5419257   3.7889841  89.1372395  84.9029160  16.6057515  69.5585537
  85.5173397  16.6752410  68.8278770  84.3809128  17.4065888  69.5095348
 104.6171284  28.2023764  71.2643099 104.3215656  28.8815498  71.8706036
 104.5196819  27.3855329  71.7537022  92.2554302  21.6202641  44.6650696
  91.9294357  22.1459770  45.3955412  91.4693260  21.2361836  44.2768097
   4.4377637  38.0952382  69.5520353   5.2759224  37.6603651  69.3951702
   3.8621294  37.7611113  68.8641119  54.4397879  86.1721992   6.6140568
  53.5278082  86.1028957   6.8963933  54.9107647  85.5525494   7.1712357
 114.4952106  67.5015640  25.6912112 113.7203503  68.0458736  25.5514145
 114.3442059  66.7264605  25.1502419  19.0510070   8.8035631  87.1681690
  19.6150458   9.4982708  87.5079823  18.3926749   9.2630327  86.6469002
  14.0950859  14.4485307  91.9294548  14.4121313  13.8982701  92.6456451
  14.1626179  15.3420770  92.2659779 107.1334457  50.6116199  58.5438061
 106.5634537  51.2619352  58.1334019 107.9872227  50.7482386  58.1331444
  83.6566544  27.5472283  42.6232576  84.5999527  27.4724889  42.4789381
  83.3723164  28.2201982  42.0047951  19.1222322  46.5603256  92.0883751
  18.5461164  46.5793228  91.3241959  19.6764135  45.7919693  91.9514847
 110.4355526  95.9903622  28.6420250 110.6142139  95.0548267  28.7373614
 109.5574856  96.1047745  29.0055442  10.4914033  60.5453253  78.8477325
  11.3689446  60.2367544  78.6220360  10.1547754  59.8866415  79.4552231
  41.3670635   5.0107908  13.9812195  40.4520607   4.7310761  14.0087688
  41.4561892   5.4558605  13.1384850   1.0390080  29.0445423  56.4527416
   1.5051249  28.4927487  55.8246565   0.1567088  29.1267395  56.0907698
  20.4208398  53.7304544  57.3510122  19.6481371  53.5531044  57.8873968
  20.2923393  54.6244764  57.0340729  28.6365151  43.1088066  54.3085003
  28.1193972  42.7106571  53.6082888  28.4281850  44.0417624  54.2592812
  92.2533417  95.4167652  57.0336294  92.4560642  96.3134384  56.7669582
  93.0447960  94.9202633  56.8254900  42.3835087   1.1563140  92.3732376
  42.6533318   1.1123239  91.4559078  41.7439795   0.4505666  92.4689007
  99.2911339  17.1455300  67.2622728 100.0541496  17.3122287  66.7088795
  99.2985439  17.8580606  67.9013968  14.9097157  38.8095450  94.1759205
  14.3294287  38.2819128  93.6271858  15.6331301  39.0503168  93.5971832
   7.8152549  19.2161739  71.5511179   8.6701262  19.4769871  71.8937588
   7.3356467  18.9021337  72.3176575  21.7340469  10.9188902  50.4269981
  21.6719365  10.7418358  49.4883680  22.6599979  10.7922077  50.6338739
  38.3939552   7.5190639  64.9814796  38.0453086   8.2954013  64.5433283
  38.3946753   6.8421292  64.3047333  35.4440594  15.2052963  41.7650795
  34.9123526  14.4169402  41.8746805  36.0985518  14.9635768  41.1097574
  10.1683128   8.0372828  78.0267048   9.8774225   8.8813698  78.3718586
  11.0270369   8.2179511  77.6443672 106.9524860  15.1672518  47.9440832
 106.3859749  15.0383246  47.1833754 107.2339153  16.0799801  47.8811836
   3.7904078   9.9560159  67.9811764   4.6297327   9.6675223  68.3396959
   4.0171269  10.3847528  67.1559381  98.9227200  31.4364028  62.4475050
  99.4359875  30.7038403  62.1067190  98.3260345  31.6631174  61.7342091
  34.3986773  15.6890297  74.8061371  33.8233614  16.2526155  74.2888212
  34.9882269  16.2954712  75.2543449  15.6161439   6.2910116  63.7584591
  15.2376151   5.8077335  63.0240250  16.4892840   5.9144771  63.8683701
  22.4522901  44.6835184  81.0871983  22.7115154  44.2438126  81.8969536
  23.2738709  44.8208237  80.6156254  31.6122198  24.1974854  64.5894289
  32.3193884  23.7299466  64.1449642  30.9075284  24.2366743  63.9428186
  12.6931429   9.2081136  77.4880457  12.9926217   9.2720520  76.5811539
  12.6131403  10.1166725  77.7784824  35.1514292  28.3741975  39.1433978
  35.8424187  28.7542510  39.6859121  35.4101110  27.4593449  39.0322232
   4.9060547  49.1095829  67.6960993   5.4379147  48.4457493  68.1350565
   4.2970404  48.6083794  67.1537590  19.9747622  37.1488428  51.8882036
  19.5854485  37.1318412  51.0139179  20.3462720  38.0273986  51.9679165
   4.7662568  18.0424905  49.4500208   4.5731744  18.9583850  49.2498016
   4.5453885  17.5701416  48.6473131  22.5164866  17.4961472  75.0054693
  22.7057528  18.3580339  74.6345758  22.3414207  16.9414580  74.2452717
  61.2147141  72.7836943  23.9780283  61.0034513  71.8609858  23.8358665
  62.1131897  72.8753090  23.6608839 112.5586319  28.9970922  42.3107004
 112.7029037  29.4668102  41.4892483 112.3146152  28.1117749  42.0407009
  44.5646906  74.0116596   7.7208477  43.7207031  73.6204004   7.4953955
  45.0886154  73.9264297   6.9243127   1.6708961   3.2591081  79.3560171
   2.1806166   2.5316304  78.9993763   1.0895666   2.8520381  79.9983406
   8.2389934   0.0236024  64.0572119   8.5913284  -0.6469833  64.6423626
   8.5495479   0.8504952  64.4260454  78.5118103  98.7269306  60.6967926
  77.9891920  98.9556694  61.4654112  79.3879986  99.0567589  60.8961153
  22.4667263   6.5795094  52.8283644  23.1264758   6.2464893  53.4366846
  22.8956056   6.5550572  51.9729710 108.9581203   3.9262775  61.1635590
 108.5741425   4.4013292  60.4265928 108.2756138   3.3122399  61.4344358
  42.2580338  18.2769191  20.1905751  42.7470255  19.0125990  20.5592155
  42.1293449  17.6810384  20.9285426  23.0296087  29.5706820  39.2944956
  23.1838560  30.4001141  38.8423014  23.2152200  28.9009237  38.6363125
  33.9242339   8.4156889  21.2954497  34.0641308   7.9008186  22.0901632
  34.5976710   8.1077510  20.6889129  33.6462831  56.7414904  64.3557692
  33.6655641  55.8069754  64.1495132  33.6697841  57.1755266  63.5029554
   9.9581671  59.6787214  37.7990723   9.1428792  59.8386860  37.3237300
  10.5273545  59.2491150  37.1605611  10.2636981 103.1490993  73.5621214
   9.4673532 103.2022285  74.0905571   9.9687028 102.8073311  72.7180815
  91.5617752  98.9128494  88.0557442  92.4874878  98.6954498  88.1653595
  91.5148354  99.8535538  88.2263374   5.5141711  27.8007913  88.7591839
   4.9341372  27.1554041  88.3551216   5.9845018  28.1936741  88.0238819
  11.9797385  15.7726014  50.7875204  12.0375931  15.5822194  51.7238092
  11.0463536  15.9136665  50.6290150  16.6738272  18.3745337  59.8794270
  15.7683647  18.1333554  60.0748873  17.1126914  18.3668554  60.7300568
  30.6411433  32.9355407  66.4073515  30.7460284  32.0230913  66.1377907
  30.7213092  33.4359169  65.5952978   3.4758914  20.8558345  40.3203773
   4.2852673  20.6038237  40.7649374   2.7807224  20.6086373  40.9301853
  28.3256149  22.0943451  57.9360723  28.3454299  21.1547041  58.1174850
  27.9008555  22.1643162  57.0811367  86.6271687  86.7842770  68.8187075
  86.9610882  86.7434120  69.7148418  87.1301651  86.1216640  68.3452320
 105.4295158  87.9448891  94.2685795 106.3393211  87.7664852  94.5066071
 104.9360847  87.7876472  95.0735760  45.0220966  46.3391781  49.1907930
  44.6050978  46.4568424  48.3372736  44.3129826  46.4593601  49.8224163
  15.8512890  27.4874568  24.6658611  15.5722404  28.4001255  24.7393346
  16.2334263  27.4235606  23.7905788  25.9035778  25.0086522  39.9454999
  24.9717379  25.2273870  39.9374938  26.1129427  24.8189855  39.0309358
   8.7828434  16.1482716  58.4524775   8.4440088  17.0409417  58.5200214
   8.1263459  15.6813729  57.9355145  85.3297615 108.4994793  61.7855978
  85.4051971 108.9546585  62.6242638  85.9201431 108.9749146  61.2010956
  79.7803640 107.5825500  61.9095135  79.5591688 108.2649326  62.5432825
  78.9685154 107.4336052  61.4247990  85.6997204   7.1244091  24.3865728
  86.1883831   7.8540206  24.0056372  86.3741207   6.5124482  24.6814108
  55.5060911  25.3428411  49.4891691  55.7621527  25.6120491  50.3713226
  54.6751547  25.7917714  49.3334770  21.4219975  21.4639688  95.0407410
  21.9894862  21.9477797  94.4406414  20.8031797  21.0082102  94.4701481
 105.6932640  38.2747412  47.6057100 105.2203369  37.6414633  47.0657682
 105.2960777  39.1182280  47.3889017 100.0501537  13.5607517  31.8396854
  99.2545605  14.0177655  32.1124315 100.1428032  13.7744737  30.9112597
  13.8236530  -0.0403892  51.0698605  13.7518127   0.9127701  51.0192442
  14.2424209  -0.2044784  51.9148111  31.4153337  27.8227687  69.6625757
  32.1083546  28.1082296  69.0672016  31.8044782  27.0991397  70.1536560
 105.5951595   4.5733634  83.1160355 104.8244572   4.2277950  82.6656628
 106.2949276   4.5249805  82.4647236  29.2634773  39.3265343  56.9887352
  28.5373425  39.3524146  56.3656092  29.6084881  40.2193880  56.9916964
  34.1612530  16.9060600  78.0223989  34.2262030  15.9548700  77.9372501
  35.0623417  17.1958649  78.1648254 104.8861980  64.1665983  59.3691874
 105.4783821  64.4801903  58.6856604 104.5974827  64.9607706  59.8188162
  31.8914795  95.8704948  82.0576763  32.0010948  96.7131138  81.6169739
  31.7078948  95.2523232  81.3502979  33.5146356  17.4915397  67.7319241
  34.3197346  17.6358080  67.2347021  32.8343320  17.3997808  67.0648432
  49.7340059  64.1896629   0.8642864  48.8575792  64.3257952   0.5043202
  50.2829123  64.8253632   0.4051428   9.8071539 104.8980331  22.8449082
  10.1353669 105.7066631  23.2381392  10.3010952 104.8104668  22.0296884
  53.2114410  38.8375998  55.5206633  52.3413563  39.0074301  55.1596355
  53.6139107  39.7030711  55.5928516  23.7455010  36.1068559  72.0755434
  22.9004812  36.5194464  72.2542810  24.1793418  36.7038298  71.4659214
  90.7700539  31.5438819  67.9272938  90.3842068  30.7327795  67.5964212
  91.5635490  31.6620636  67.4051523  -0.0960197  37.6051950  35.1288939
   0.2697240  38.2555342  34.5292974   0.4383336  37.6810098  35.9194326
  31.1354399  37.1266294  54.5646429  31.1282229  37.1375036  53.6075354
  30.2429748  36.8807435  54.8081160  35.6486797  15.6605196  50.5409622
  35.9081340  16.0219252  51.3884926  34.7516489  15.9692287  50.4134274
   8.7409663   9.7729647  38.0074310   8.9394945  10.7088053  37.9754877
   8.3017421   9.5927936  37.1762562  26.1818361  43.8949394  46.9771528
  26.1681747  44.7945023  47.3040009  26.9559240  43.5044527  47.3827887
  27.0399022  20.8404136  34.2992163  26.5892100  20.0682473  33.9573598
  26.3484335  21.3585901  34.7110367  44.3742514  56.6143942  28.5380220
  43.6330318  56.0154676  28.4479141  44.6051931  56.5717649  29.4659662
 107.1826649  39.6541548  23.9586425 106.5083313  40.3275728  23.8691115
 107.4563789  39.4683838  23.0604243  28.7665319  33.6311603  71.9083357
  29.4663024  33.5146117  72.5509644  28.5144424  32.7405119  71.6645575
  22.4200749  27.1479392  90.2825546  22.4018931  26.1916447  90.3200150
  22.6178622  27.4190283  91.1790085  37.2832727  48.9568281  22.4712420
  37.6166987  48.9639187  23.3684635  36.4269710  48.5341930  22.5372791
  38.1449938  15.0674820  53.1943750  37.7342296  15.7980835  52.7320671
  38.9036369  15.4559028  53.6300611  24.8715711   3.5674861  17.9337037
  25.3090930   3.0321512  18.5956883  24.3031120   4.1516733  18.4355104
  94.4913292  81.8120193  59.0791225  95.0954819  82.5438213  59.2043638
  93.6286449  82.1773338  59.2755127  39.2468929  32.3847556  67.3886824
  39.7076106  31.5667844  67.5754833  39.8520494  32.8797698  66.8364382
   1.3545857  37.2411132  42.5233507   1.3211117  38.1865382  42.3774719
   0.5956231  36.8988705  42.0510435  16.1776865   8.1410939  85.3772640
  16.8974686   8.7616265  85.4916477  16.3495731   7.7282655  84.5309448
  25.4427862  35.3304482  43.8888264  24.6896076  35.1037216  44.4343042
  25.2944708  34.8603129  43.0683327   2.2228792   8.4414804  82.9089737
   3.0927595   8.8128674  83.0559826   1.6185695   9.1249442  83.1986618
  53.1114960  20.1129818  91.0456371  52.5623846  20.0991559  91.8295479
  53.9038515  20.5767727  91.3163853   9.3184948  40.2363634  62.5413561
   8.4757769  40.0630713  62.9609108   9.4064063  39.5445037  61.8857384
  21.8372369  55.8287907  77.7677107  22.3276043  56.2665606  77.0719242
  21.2892652  55.1912975  77.3099279  27.3881173  30.0360179  51.3493872
  27.0012975  29.3921447  51.9427061  27.8465247  29.5116377  50.6927872
  27.7750158  31.4243865  67.9458332  26.9186187  31.3710093  67.5216103
  28.3467937  30.8847046  67.3998976   6.1233062  26.8241167  47.9884481
   5.5373216  26.7713261  47.2334194   6.8537331  26.2470341  47.7655506
 107.9934883  29.7185588  72.6171303 108.5084152  30.2683878  73.2076931
 107.5267315  30.3394747  72.0578194  49.7356415  97.7038193   1.9228384
  50.3876400  97.4173737   1.2832478  49.0176296  97.0776939   1.8297699
 110.1196289  34.0571570  42.4392891 110.9066391  34.5826149  42.2952938
 110.2195835  33.3096123  41.8498707  32.2883058  50.2741671  55.7610798
  33.0388713  50.8663654  55.7143784  32.6231337  49.4372654  55.4390335
  16.8267190  21.0717392  86.2948608  17.4770975  21.2751269  85.6226444
  16.3931370  20.2798510  85.9768200  61.6927814   3.7382188  75.1553774
  62.5098562   4.2339230  75.2091980  61.4000368   3.6596861  76.0633230
   5.1985884  97.6726723  61.7754030   5.3508818  97.5836849  62.7162123
   4.2741641  97.9104805  61.7038536 112.1044254  24.7703600  78.9109325
 111.5959358  24.8013258  79.7213125 111.8868065  23.9223838  78.5238791
  51.0047102  33.2709599  83.8107395  51.0194349  33.4913754  84.7420979
  51.4477110  34.0043712  83.3840084  96.5469646  25.8665729  44.3301964
  95.6775093  25.9946990  43.9509010  97.1194935  26.4338970  43.8138723
  71.2018251  39.9570227  37.7273822  71.9376087  39.6141481  37.2201467
  70.4632521  39.9411988  37.1187019  10.9627986  12.9899430  87.0120335
  10.6853759  12.4156547  87.7257919  11.7447710  12.5683963  86.6555882
  27.7579784  29.2069268  79.8383570  27.4192667  29.4641018  78.9808226
  28.7022161  29.1209769  79.7069693  25.8589578  99.5909119   1.9063406
  26.4599252  98.8656521   1.7358610  26.2618661 100.0707912   2.6299572
 113.0508041  46.4871311  63.8621330 112.1370602  46.3149309  64.0894032
 113.0319786  47.3365831  63.4213305  26.5242171  65.8705091  61.7743969
  26.9928408  65.8491611  62.6087666  25.7798982  65.2824783  61.9026327
   5.2499962  34.3899870  18.9096701   5.0957513  33.6258650  19.4651484
   4.4711185  34.9335670  19.0284216 112.6661015  40.5337048  30.6816363
 113.2874203  40.3573608  29.9751759 112.7698231  41.4675760  30.8642769
  33.1831455   2.7043080  79.1839838  33.7754560   1.9864942  78.9600515
  32.8828955   3.0394953  78.3391571   3.6351091   5.1831067  34.3973398
   3.3235303   4.4082230  34.8650002   3.2621613   5.0993019  33.5197759
 113.3457565   6.3241118  68.1802940 112.8783894   5.8626252  67.4839973
 113.5031319   7.1986115  67.8243256   3.3390975  31.5050769  64.6916294
   4.1904753  31.1947083  64.3833113   2.9860377  32.0058155  63.9562082
  45.6463528  37.2177649  72.2734070  45.1260519  37.2627997  71.4712286
  45.0841904  36.7595458  72.8981018  18.0053186  28.6278677  76.1027670
  17.9980826  27.6716018  76.0611200  18.9011359  28.8710141  75.8690548
  24.7318172  18.2820439  43.3128643  25.2740955  17.9301858  44.0188169
  23.8326049  18.1529570  43.6145020  52.5552607  22.0395041  78.2310104
  52.2907877  21.1369634  78.4090710  52.5117636  22.1182585  77.2780466
  98.9652252  94.9820614  26.4846277  98.0638218  95.0814533  26.7909288
  99.5008373  95.1324844  27.2635555  14.1348040  41.6957426  81.7187214
  13.8092482  42.4159622  81.1787891  15.0002968  41.4996815  81.3599586
  21.3605428  29.6515465  80.1082993  20.8707452  30.4739332  80.1050949
  22.1210814  29.8278952  80.6621170  30.2619839  30.2597690  61.5936279
  30.5673623  31.0121799  62.1004343  29.8333454  29.6955538  62.2371817
  17.6896024  41.0941887  20.9796548  17.8831589  40.7517433  21.8522954
  18.4590340  40.8675289  20.4573226  19.1915655  68.3214474  56.0490751
  18.7672830  67.9785204  56.8355989  18.5053706  68.8190603  55.6043863
   1.6147447   0.9648498  50.9571934   1.6680989   0.0607985  50.6472301
   1.0930318   0.9130731  51.7580462 110.9186172  55.0965309  63.0993700
 111.7991447  55.4049063  63.3134174 110.5501461  55.7873869  62.5487566
  40.0334549  59.3918467  82.8493595  40.6837988  59.2045355  83.5262680
  39.2270923  59.5679569  83.3341217   6.4534038  14.5412600  66.1455297
   6.9170034  14.9441862  66.8796635   5.8504164  13.9205849  66.5546751
   0.7789532  39.4991302  49.2760801   1.1015552  39.6761966  48.3924484
   0.2432575  38.7114549  49.1821194  39.4810557  27.3142481  82.2923374
  40.2249908  27.4064946  82.8875542  39.8454642  26.8850994  81.5182209
 106.6963482   4.5749244   0.8837660 106.8160152   3.6604753   1.1400765
 105.8207893   4.6029198   0.4979597  34.5006800  38.4545827  58.0913210
  34.5815039  37.5372839  57.8300476  33.7289786  38.4753251  58.6572504
 106.7827415  45.9003496  22.8645611 105.9375286  46.3070154  22.6735640
 107.0911217  46.3476562  23.6526275  57.4770260  31.7937875  65.4221010
  57.5774050  31.8033767  66.3739729  58.3546352  31.9772148  65.0868511
  19.6558511  42.2499800  56.2449741  20.3526020  41.7515087  56.6719341
  19.3291771  41.6665983  55.5600119  47.9821587  15.1760578  64.4143581
  48.4304571  16.0117483  64.5442963  48.2987785  14.8636639  63.5667753
  14.2533529  97.8786659  63.2554102  13.7229538  97.2576332  62.7561855
  13.6625755  98.2078743  63.9327860  31.9153452  41.2686872  33.7518406
  31.1288357  41.1453056  33.2204151  32.3628736  42.0123672  33.3482504
  37.3644781   8.1009108  17.6031625  36.6468811   8.5356861  17.1424484
  38.1544304   8.5324550  17.2776210   7.0902884  45.5877733  71.8312979
   6.1655229  45.4298878  71.6412640   7.4900120  45.7311106  70.9734488
  36.7251086   9.9934536  75.6434631  35.8256412   9.7607553  75.4131603
  37.2278953   9.8236513  74.8468447  29.1766810  54.8538160  74.5888138
  29.5068192  54.0646553  75.0183058  28.7662959  54.5351362  73.7849140
 107.2297287  30.0723410  62.0891476 106.6476345  30.7799411  62.3660898
 106.9459534  29.3146944  62.6006937  97.3843670  31.5730071  28.9178562
  98.1184292  31.3070846  29.4716334  97.5076103  32.5138974  28.7923002
   4.3747041  27.4166489  20.8637023   5.2649081  27.7180147  20.6821871
   4.1276193  27.8709221  21.6691923  36.5554285  31.3806605  61.6443634
  36.5059328  32.1344137  62.2322750  35.9145784  30.7616186  61.9941139
   3.8299203  14.8258746  59.4882631   3.1087306  14.2723048  59.7877264
   4.2782873  14.2983246  58.8272905  53.0012941  33.7155056  28.0082011
  52.6553345  34.4698501  28.4851789  53.2000971  34.0546155  27.1354389
  27.9037046  61.3509226  80.2879333  28.8193321  61.1864424  80.0625324
  27.7562141  60.8363152  81.0814381  22.3803067  20.0495386  73.6599350
  22.6054358  19.7787547  72.7698612  22.8646803  20.8644915  73.7920904
  26.4342308  37.0367885  62.4394941  26.2669420  36.2751555  62.9946136
  26.5659738  36.6712642  61.5646982  31.7111850  38.7338877  58.9899969
  30.9262872  38.2007408  58.8638115  31.4435625  39.6176076  58.7377071
  30.3681445  31.0955977  83.3666992  30.5259252  31.5515447  82.5399876
  29.6760941  30.4659319  83.1646633  39.4162297  11.3969696  12.7527893
  39.6823359  11.8869889  13.5308003  39.3715191  12.0549202  12.0590067
  84.9708652   2.2083212  15.7277799  84.2436314   1.6899887  15.3832638
  85.0242138   2.9643601  15.1431513  31.5681601  44.1688919  78.1717110
  31.3170242  43.3138895  77.8222275  30.8629966  44.7557640  77.8986597
  17.8682184  31.4573932  74.3645763  17.6648676  31.8262887  75.2241087
  17.9690289  30.5190349  74.5244265  54.1546726  40.2044678  72.8704453
  54.5075130  40.9514952  73.3538628  54.7293282  39.4753098  73.1035328
  41.8268442  91.8785095  47.3611450  41.2455511  92.6383877  47.3308945
  42.6231956  92.1682739  46.9160700  28.1405520  15.0098729  88.1737995
  28.1013727  14.0774906  87.9608154  28.4035969  15.4315734  87.3557472
  43.4431982  55.8942032  64.1896629  43.1956291  55.6787825  65.0888491
  44.1584206  55.2911520  63.9871407  25.5062199  26.5497112  66.4924765
  26.4375520  26.3304901  66.5206051  25.0695968  25.7173443  66.3114882
  77.0001221  99.7641277  86.1288261  76.1440945 100.1219749  86.3642025
  76.9424963  98.8360977  86.3561344  41.4473200  18.7683690  31.6061091
  41.1680746  18.0993950  32.2311926  40.6693077  18.9401472  31.0756183
  20.2908802  39.1054726  65.5195665  20.3111720  38.8555217  66.4433336
  19.5860934  38.5777330  65.1440716  12.9783964  43.9442015  65.0429821
  13.0502903  43.6684179  64.1291952  13.8458419  44.2865324  65.2588034
  37.9675603  10.3086519  82.6000023  37.3384476  10.8020258  82.0736599
  38.4491396   9.7796088  81.9640541   7.4854124  15.5879188  52.5135994
   7.1614152  16.3288450  53.0257416   7.1043885  15.7126737  51.6444111
  27.0622253  13.7812495  50.5482388  27.4272847  12.8984654  50.4877663
  26.8692207  13.8974071  51.4785576  41.9312668  45.1142454  46.3266039
  42.8835726  45.2055407  46.3583088  41.6125011  45.6854057  47.0254564
  36.4675736  68.0674219  90.6303692  36.7090201  68.9936256  90.6395626
  36.2010145  67.8804445  91.5304852  27.8748679  45.4350996  72.6481438
  27.5340390  44.5919657  72.9467964  28.6784101  45.5609560  73.1528330
 107.4018097   5.8624810  54.2782927 108.1140518   5.2502370  54.4629478
 107.5870609   6.6199023  54.8334742  30.3415895  55.6973219  84.8625374
  30.9707141  56.3175201  84.4940281  30.7646775  55.3701735  85.6563854
  46.0521460   8.1783289  46.9890213  45.1316118   8.0892193  47.2358131
  46.3199711   9.0180904  47.3622561  26.0653329  46.5029287  70.2506208
  25.9841919  46.8286800  69.3542194  25.5601382  47.1223688  70.7772112
  10.9462357  31.7297006  37.5504637  10.6438553  31.8433547  36.6494203
  11.5092874  30.9562826  37.5183916  72.7131557 107.6021385  11.8932688
  73.0552483 106.9858646  12.5408900  73.3730412 108.2941151  11.8491852
  19.9902976  37.3580146  85.3390598  19.0885270  37.4354792  85.0275421
  20.2008796  36.4301181  85.2346897  19.0151346  28.5049176  72.2340965
  18.5163713  27.8416920  72.7111673  18.4706092  28.7142015  71.4752007
  27.8922963  45.4986429  57.5316811  28.0087948  44.6440697  57.9468441
  27.1718693  45.3690672  56.9148970  14.9533880 105.7918930  63.6472130
  14.1722703 106.0000896  64.1597939  15.2082920 106.6247082  63.2501268
  76.5205956 105.9544277  64.3783855  77.4154568 106.2623024  64.5221519
  76.0659266 106.7074966  64.0010452   8.5332668  54.1714096  77.8147840
   7.6544368  53.8979530  77.5518894   8.4296000  55.0840855  78.0840540
  48.0074596  52.2792196  43.6068201  47.8973675  51.3915920  43.2659006
  48.0134439  52.8358412  42.8281212  10.8872426  88.6323166  51.2538385
  11.0030282  89.3841362  50.6728077  10.3442454  88.0237675  50.7527828
  26.5930486  12.0531011  73.1366348  27.4807882  11.8590045  72.8358412
  26.1704922  12.4674916  72.3843336  32.6984310  39.4618154  53.0205774
  32.6126218  40.2942085  52.5558281  32.8811145  39.7110391  53.9265251
  30.5921626  23.5127425  73.0175638  30.9543562  22.7008009  72.6628828
  30.5873919  23.3789492  73.9653587  38.5291648  15.1785505  28.1073403
  38.7747359  14.3387485  27.7191901  39.0054560  15.8292067  27.5915647
  86.2357514 109.8932795  45.2085352  86.2766288 108.9889567  45.5195999
  87.0679586 110.2786911  45.4826164  47.9157829  24.3182588  71.4811897
  47.6166344  24.8566604  72.2139025  47.4779463  24.6907544  70.7158279
  19.2705095  16.3662362  38.3789325  18.7639487  17.1723986  38.4775686
  18.9912105  15.8167481  39.1112494   5.3173733  41.0366583  41.6681814
   5.9685487  41.3583803  41.0447264   5.6551301  41.2995672  42.5243521
  24.7799683   7.9235649   3.2579958  24.0068364   7.4788272   3.6054280
  24.9665236   7.4718124   2.4349838 100.6482887  16.9939244  31.1507630
 100.9481144  17.0565283  32.0576334  99.7047901  17.1478879  31.1992717
  12.9346526  33.0910397  51.0808325  12.0752907  33.4821892  51.2380981
  12.8064775  32.1569371  51.2459326   2.7354953  21.8495989  62.9320908
   3.2457009  22.1247149  62.1703625   2.7741531  22.5969720  63.5288906
 112.2827721  16.7019773  81.4097977 112.3940659  15.9959996  82.0465374
 111.5377235  17.2053409  81.7380619  38.3558154  20.9652781  51.5069962
  38.6624718  20.0741434  51.6745520  39.1389084  21.5086126  51.5952158
   8.5628724  39.8223042  56.0940886   8.9678657  40.0364017  56.9345522
   8.0055106  40.5753946  55.8980465 103.9088631  44.6504116  69.1741419
 104.4928741  45.2782965  69.5994949 103.6575699  44.0459299  69.8724842
 105.2565575  84.9129581  56.0870838 104.9656773  85.2295494  56.9422960
 104.9664688  84.0012455  56.0578442  12.0215154  12.9890013  60.2197361
  12.8606045  13.3626997  60.4890203  11.3666975  13.5909712  60.5734015
  45.4521465   5.2566898  83.5805607  45.3721619   5.4183221  84.5206165
  46.1035061   4.5586360  83.5121250  50.2359724  32.7636480  71.0217237
  50.6995535  32.2492909  71.6826057  50.3461123  32.2669053  70.2109528
  88.9465714 101.2168312  69.0599108  89.7611809 101.6963768  69.2105007
  88.9876366 100.9580994  68.1392574  39.4899821  35.5634856  38.1609035
  38.8022208  35.0610018  37.7241826  39.1025591  36.4273167  38.3020830
   3.1849009  53.6500168  56.4847469   3.4458742  53.0119610  55.8206606
   2.9875898  53.1228399  57.2589445 114.6756077  63.6583805  44.2563725
 114.8689461  63.4902573  43.3340979 114.0146351  63.0050468  44.4854879
  44.3035507  31.6217113  51.3724232  44.0843821  32.0129871  52.2180557
  45.2425861  31.4442635  51.4267921  38.5350251  49.4548893  56.6473722
  37.5917840  49.3452168  56.7677784  38.6628914  49.4055605  55.7000351
  25.9570646  49.2129803  37.6442814  25.8096123  50.1537991  37.7409887
  26.8561816  49.0793800  37.9442358   7.8392923   3.7585905  87.7507973
   7.8283978   4.5079687  88.3462334   6.9510686   3.4045693  87.7950573
  14.3773770   7.4665225  55.7568884  13.7121367   7.1439499  55.1489115
  15.1644683   7.5640994  55.2209759 107.9535007  11.2076449  70.9897375
 107.8038979  11.4461911  71.9045830 108.5853100  10.4896963  71.0296583
  16.1081827  19.6820927  32.9948020  16.1824083  20.5796933  32.6707125
  16.1228526  19.7695875  33.9478827  34.4033623  43.3096170  58.3165503
  33.8112903  42.8385544  57.7302265  35.0931740  43.6432886  57.7429199
  26.3421750  50.2921581  70.3959322  25.5811167  50.0901890  70.9402037
  26.2967920  51.2389374  70.2625847  60.6766224  21.3692760  59.1815138
  60.3620434  20.7714224  59.8596334  61.5696812  21.5862989  59.4490528
  43.5500956  52.3715258  67.9674721  43.1292725  51.6976690  68.5013771
  43.2761478  52.1733236  67.0719862 106.4263248  35.0817108  72.6185751
 106.3261509  34.2336965  73.0510855 105.6486225  35.5760169  72.8775549
  20.4073977  16.1667812  41.7109728  20.5656123  17.0580113  41.3996696
  19.6781063  15.8523667  41.1766386  87.9603004 108.4541512  71.4602947
  88.2463455 108.0175877  72.2626829  87.5569820 107.7591133  70.9402037
 101.4891529  15.0703192  36.3457966 101.4976788  15.4326725  35.4598737
 101.0531425  15.7390666  36.8739104  22.3878121  48.1570768  25.5790329
  23.0857015  48.4707117  25.0038695  22.2944045  48.8441229  26.2389374
 108.2355976  46.9169855  48.4551334 109.0047455  47.2653961  48.0042934
 108.5418987  46.1047840  48.8585377  36.3167834  17.4193799  75.6264734
  37.1711373  17.5752270  75.2239513  36.5194464  17.1550977  76.5238619
 107.7591610  21.5487051  54.3575525 107.0270729  21.8091464  54.9165154
 107.3672771  21.4209867  53.4936428  19.9002934  41.9994831   7.3726755
  19.6958125  42.6356030   6.6872776  20.8433843  42.0895624   7.5094086
  59.8500824  38.0227542  49.3047523  60.5130196  37.8261089  49.9666262
  59.4315910  38.8253903  49.6159983  24.1481018   7.3186278  50.0259018
  24.3733311   7.0823902  49.1260719  24.6176887   6.6823792  50.5652618
  10.5852902  19.7837150  69.1056061  10.6423807  19.6015549  70.0435781
  11.2559652  20.4485846  68.9494848 102.6046848  45.8821726  55.4040813
 103.0377197  45.3558064  56.0761309 102.6453114  45.3428316  54.6143389
  15.2527845  11.4761984  72.8210545  14.6241879  11.1288488  72.1882439
  15.6699300  10.7000625  73.1949997  97.9273796   8.6606568  48.7686729
  97.2015858   9.2829907  48.7222815  97.7742481   8.1740487  49.5786047
  87.5283432  94.8583794  61.8392372  87.6249695  95.2990818  60.9950352
  87.6064491  95.5597687  62.4858999   7.3112851  34.9637556  79.8930502
   7.4792230  35.7847571  80.3556347   8.0371469  34.8847842  79.2740822
  32.4914646  11.8808854  44.6283340  32.2708321  12.7768230  44.8829937
  31.6474724  11.4326060  44.5739841  13.7409258  29.4487357  61.9813299
  13.2558513  28.8306284  61.4346313  14.3678665  28.9053702  62.4587488
 105.0071526  29.7707653  64.7780037 105.1873398  29.1177058  64.1017818
 105.7483959  29.7031569  65.3798485  -0.1276172   3.8731647  36.4168668
   0.1606295   3.0690190  36.8487191   0.6631844   4.4090372  36.3559961
  41.8276072  34.7719526  21.0945129  41.1099195  34.3092370  20.6620216
  42.3974943  34.0765381  21.4229274  25.4460478  60.7796812  65.4283381
  25.4733777  59.8609781  65.6956768  25.4650187  61.2691069  66.2507296
  98.7487411  69.8393154  51.8458986  99.2710400  70.2765417  52.5184059
  97.9724026  70.3908682  51.7493534  61.0697508  77.3243666   4.7089741
  61.1161518  77.6432610   3.8076508  60.8719110  78.1033993   5.2287775
  43.8730049  18.0457175  34.5909357  43.8582134  18.8317466  35.1369882
  43.7598801  18.3720779  33.6982298  80.4797554  87.8975010   3.6500359
  80.1567554  87.0565701   3.3264282  80.4477215  88.4757233   2.8878877
 102.0209026  41.0751009  54.3571043 102.0082951  40.2775860  54.8862982
 101.7727852  40.7842016  53.4795809  17.1813345  20.9276056  58.4255695
  17.2008157  20.0568199  58.8225365  16.9864547  20.7657290  57.5025034
  31.4384532  43.5921478  54.8543501  30.5616474  43.2313585  54.9857664
  31.4203215  43.9480639  53.9659643  90.3795719 105.4223347  69.3742228
  91.0460949 105.9278679  68.9090204  89.6947289 105.2721024  68.7225676
  26.4443231  22.9495382  61.0224485  25.5406594  22.9778075  60.7080841
  26.9292235  23.4997606  60.4073381  50.7770395   7.0942712  56.3434267
  50.3628254   7.7772325  55.8159590  51.3549519   7.5699103  56.9400978
  53.3445072  13.8669753  68.1699276  53.4464645  13.0610013  67.6637268
  54.0310574  13.8203835  68.8352966   4.6843454  64.2021084  69.2971134
   5.2763969  64.3204927  68.5543537   3.8482827  64.5579147  68.9960623
  51.4323568  16.7695844  63.4705687  51.7060184  16.9963932  64.3593311
  51.8786240  15.9431100  63.2861185 107.9703712  18.3488095  51.4438200
 108.0160427  19.1742182  50.9612751 108.5464859  17.7566087  50.9604740
  25.1157188  40.1680565  84.6418190  25.5350304  40.9985685  84.8668957
  25.3347516  40.0312138  83.7201214  31.2592840  14.3847454  45.5176449
  30.6886673  14.2151201  44.7680712  30.6620288  14.6425331  46.2198257
  43.6101103  29.8750901  90.5487537  44.4786453  30.2727604  90.6099319
  43.7387323  28.9727116  90.8409882  36.5997672  30.7235837  37.0295262
  36.8696404  29.8125362  36.9137955  35.7945228  30.8016825  36.5179491
  92.4057102  68.3870506  77.6942015  92.0550537  67.5938034  78.0992031
  92.8549862  68.0761814  76.9082355  21.8535948  51.2235546  89.1658497
  21.5791845  51.2640619  88.2497215  21.0347319  51.2266588  89.6615124
  30.5326796  63.3045578  73.5372019  30.2819920  63.3548403  74.4596243
  30.7757783  62.3882771  73.4046745  94.4967365  78.8186216  37.5959706
  93.6789513  78.6580181  38.0667901  95.1070976  78.1708479  37.9482269
  16.6943228  51.0579824  86.4513874  17.2498405  51.0203171  85.6727982
  17.2273493  51.5118074  87.1041965  30.1756573  20.7105184  65.1210737
  30.6552196  21.4823723  64.8202562  29.6207070  20.4692411  64.3794250
  20.5126476   4.5711690  52.5351000  19.6297002   4.8135430  52.8141880
  21.0583901   5.3130394  52.7959156   1.0860857  34.1242504  43.5824299
   1.3733150  33.7166405  44.3994904   0.6382835  34.9240208  43.8582420
  40.5204868  49.5890808  79.9701262  40.0113297  48.8853025  80.3722286
  41.3106680  49.6498680  80.5069160  69.3879986  43.7762594  53.4849691
  68.6200428  43.3925390  53.9083385  70.0720835  43.7423944  54.1536379
  37.4860168  20.6319475  57.6020432  37.2533798  21.0117722  58.4493017
  36.7801356  20.0130773  57.4150705  32.9010606  50.3120279  61.3550282
  33.0962825  50.8962488  60.6223536  32.0508790  49.9301386  61.1368942
   9.4652736  67.5951147  27.9405284   9.1989297  67.9222250  28.7997675
  10.4170227  67.5123978  28.0002213  17.1898913  60.1191759  32.8568268
  17.4948800  60.4624510  32.0169616  17.0159793  59.1931438  32.6881528
  59.5857763  59.8355770   4.5907304  58.9806509  59.1284180   4.8142961
  59.8170757  60.2280092   5.4325932  32.9579759  45.4103041  39.0575600
  32.6181626  44.5693779  39.3634939  32.1896076  45.9799242  39.0204501
  35.9429693  13.1916320  71.6672373  36.6013885  12.6265776  71.2629747
  36.3650632  13.5217404  72.4603939  73.2649040  73.2626534   1.8581490
  73.3853436  73.3137274   0.9099308  72.9188347  74.1210842   2.1022110
  39.1175079  29.5827961  52.0042515  39.4647098  29.5697975  51.1123323
  38.6319709  30.4058051  52.0602894  31.2904525   5.2379662  51.2097073
  31.5245557   6.1641824  51.1501217  30.4962635   5.1571941  50.6815290
  44.6129084  54.4484568  87.6779270  44.0184307  55.0590277  88.1138420
  45.4869509  54.7343063  87.9435921  41.5685225  31.3509393  59.6915007
  41.8081331  30.4440475  59.5007992  42.4056339  31.8086100  59.7690344
  37.0800018  15.4323137  46.8731737  36.8469429  14.6061087  46.4497375
  36.2404704  15.8596838  47.0428038  31.8076968  40.8645248  39.2103720
  31.4996433  39.9994016  39.4803619  31.0083675  41.3787699  39.0969801
   6.1545241  54.7358704  72.6267004   6.2107641  54.7121000  71.6714478
   6.4507389  53.8694668  72.9056978  27.0867348  35.7443213  60.0387144
  27.4226141  34.8612046  59.8853445  26.7611790  36.0284376  59.1845942
  38.2248735  24.6418667  73.4054947  39.0839815  25.0511646  73.5086441
  37.8645468  24.6146774  74.2918682  17.5857317  37.8875422  84.3338394
  17.2183406  37.9165602  83.4504223  17.1008813  38.5566711  84.8169708
  13.5625422  62.7018070  45.5132103  12.9370630  62.4298191  44.8416233
  14.2674994  63.1277466  45.0255156  53.9394712  92.6968670   1.7049327
  54.5777035  93.3537769   1.9830877  53.7322283  92.9321671   0.8005466
  19.9918187 105.8134556  61.4743376  20.1669407 106.1771107  60.6063986
  19.7825122 104.8938274  61.3109350  55.9043121  28.5895610  38.7599611
  56.0240078  28.3167171  39.6696091  56.4150429  29.3953991  38.6824322
  22.0885396  81.3222122  79.3670988  22.6872945  81.6262817  78.6849976
  21.2447500  81.2350082  78.9236498  47.0005894  51.5293932  57.5686312
  46.6420364  51.1115360  56.7856503  47.5721169  52.2192860  57.2315359
  39.0997863  33.1881261  40.6802607  38.9027166  33.0741549  39.7505283
  39.5953059  32.4043989  40.9178877  26.4503479  31.8369484  53.1602907
  26.8167162  31.3457036  52.4249792  25.5297184  31.9618630  52.9299259
   6.0499024  21.9623709  78.2318115   6.2944639  22.6648736  77.6293945
   5.2099061  22.2411132  78.5964203  18.3822286  10.5523622   4.5980814
  17.8951597  10.0730824   3.9277926  19.2899942  10.2723300   4.4807142
  49.6811724  20.4230213  76.2986755  49.4623566  20.8402491  77.1319056
  50.5812883  20.1180124  76.4126396  46.3045931  43.7786579  49.2255783
  45.7820892  44.4630623  48.8074684  46.5846539  44.1645432  50.0555754
  38.9156890  36.7049193  46.7237043  38.2812309  36.2408781  46.1774826
  38.8685679  36.2645435  47.5722837  16.9619370  51.4368439  65.9429884
  16.9916236  51.1799860  65.0213766  17.7424288  51.0382795  66.3279724
  39.1357160  34.3181753  82.0740795  39.0336108  33.4020853  81.8160343
  38.4299636  34.4700408  82.7026367  15.6682539  42.1112871  77.7828360
  16.3984811  42.0355129  77.1686220  15.4409230  43.0410242  77.7711344
  53.2651329  36.6273093  70.4429436  54.1689396  36.8585396  70.2287149
  52.8714371  36.3953972  69.6018410  28.9542294  26.8441224  37.1595478
  29.0374875  26.0655594  37.7101302  28.7173629  26.5032935  36.2970161
  11.4141083  25.4839349  58.8410282  11.8100977  25.2399683  58.0044270
  11.6414320  24.7660875  59.4320011  32.0510125  41.5851164  44.3699455
  31.1251163  41.7534542  44.1949844  32.3305488  42.3233700  44.9113083
  18.7711954  36.8953323  70.0327539  18.1500375  37.3197293  70.6246042
  18.2236552  36.3810015  69.4395447  23.9240336  32.9498887  19.6177876
  23.1233573  32.9607344  20.1422215  23.6168981  32.9668474  18.7113607
  33.0608368  42.1006060  52.0807314  33.3836198  42.0637608  51.1803484
  32.8489590  43.0233669  52.2216368  59.1456604  14.1581500  53.9894581
  59.6591759  13.3797276  53.7735987  58.8619375  14.5005584  53.1418228
 115.1596737  44.5732927  83.9266872 114.2895126  44.7998142  84.2549133
 115.1085377  43.6359644  83.7395191  35.4938936  37.5154138  68.7553787
  36.1228800  36.8740201  69.0858603  34.9786687  37.0340466  68.1080294
  15.2122712  50.6463146  14.1299832  15.9582257  51.2449789  14.0927923
  15.5972147  49.7971821  14.3468237  11.6764057  56.9750023  76.7241859
  11.1335921  57.7335310  76.5092039  12.4938333  57.1229362  76.2486219
  31.3953757   7.7339137  50.3167868  31.7785478   8.5982305  50.4663420
  31.3027573   7.6742494  49.3659496  30.4862952  32.3203135  44.6395445
  31.2719345  32.8558540  44.7499895  30.7923961  31.4202261  44.7508001
  33.3171654  37.7946734  64.3068123  34.1785741  37.6517797  63.9146566
  32.7498579  38.0104589  63.5666561  44.1078568  42.2449875  45.1004362
  43.5924435  42.4017000  45.8916473  43.7243509  42.8281069  44.4453573
   0.6381476  28.7513947  59.2604828   0.0234253  29.4267893  59.5471764
   0.6668185  28.8423324  58.3080435  46.8776989 102.2764874  15.2280188
  46.1995411 102.9205704  15.0243163  46.4191437 101.4362812  15.2234578
  60.5462074  28.1702781  47.9338408  59.7608185  27.7555609  48.2907772
  60.9741068  28.5661793  48.6930466  28.0224705  10.6834972  29.0593719
  28.4005141   9.8256290  29.2526984  27.3734021  10.8202302  29.7494793
  87.2636604  70.8014536  14.5255148  87.5407696  71.0349369  13.6395514
  88.0188656  71.0099697  15.0754428  12.6148641  47.8150129  78.0468035
  13.5590184  47.9065037  77.9186010  12.3666346  48.5858774  78.5570812
  53.1993675  13.9120531  74.2300987  52.9366875  13.2597268  73.5807133
  53.9464903  13.5160756  74.6786976  28.2419133  29.8288870  57.7190590
  28.0378199  30.3341460  56.9321108  29.1335058  29.5116043  57.5754452
  26.4556408  42.9469633  37.0216155  25.8939075  42.2519588  37.3646259
  26.8537784  42.5682259  36.2378573  35.2799320  42.6855469  39.1368604
  34.5427799  43.2948780  39.0974379  36.0204649  43.2233143  39.4173026
  48.9573050  34.5843196  45.7833004  49.2933512  34.4575834  44.8960304
  48.7018442  33.7075782  46.0701656  40.7776785  21.9695735  54.9431610
  40.1940680  22.4035048  54.3207979  41.6579580  22.1615791  54.6199417
  39.6572518  67.7008057  92.6844978  39.0224743  66.9916391  92.5826263
  39.1822720  68.3805752  93.1625557  30.5523252  14.6540773  89.5774078
  30.6991696  13.9631188  88.9314651  29.7078156  15.0335467  89.3344307
  55.8478642  27.5916314  54.3916321  56.5700674  27.8944039  54.9420643
  55.7555819  28.2702589  53.7229156  31.8263006  11.7416668  68.9193487
  31.1797929  12.3707497  68.5991716  31.6102648  11.6261590  69.8446703
   3.6380127  66.7132568  50.4384375   2.7245378  66.5568829  50.1989794
   3.6070433  67.4760723  51.0158348  14.7280967  30.0690341  57.1412420
  14.0949452  30.2796793  57.8275204  15.5391622  30.4899502  57.4262571
  26.0321856  13.6822462  36.1433625  26.6848993  13.9895678  36.7724490
  26.1110425  12.7285028  36.1630321  33.6072516  54.9531937  61.1327600
  34.4002032  54.8134995  61.6503954  33.9077306  55.4275894  60.3575850
  83.4834099 109.1673660  -0.1090757  84.3981838 109.1167259  -0.3862832
  83.5264397 109.2646217   0.8421980  35.4916787  51.4894676  86.1586094
  35.9226704  51.5330267  87.0121765  34.5596361  51.4172649  86.3643169
  11.3434434  57.8185606  79.4502401  11.7766249  57.3734379  78.7219143
  12.0042419  57.8443527  80.1422787  29.0309834  26.3129711  47.5755835
  28.2296419  25.9872389  47.1657276  29.7125244  25.7076406  47.2835016
  34.0852809  35.7579923  57.8133821  34.8963070  35.7754183  57.3052835
  34.2201638  35.0615263  58.4560108   8.1830108  45.1349401  58.6515141
   8.4631550  45.4690552  59.5036411   7.4302566  45.6777573  58.4171104
 110.9219265  36.2189293  65.7968521 109.9847126  36.0817599  65.6588554
 111.1662769  35.5634665  66.4502192  31.5891695  48.6770010  71.4923906
  32.1065545  47.9786015  71.8933630  31.0211253  48.2258844  70.8678484
  44.0244818  47.6802778  34.2157459  44.0633249  48.6291933  34.0962386
  43.0898714  47.4744797  34.1962647  52.6559782  25.1345992  79.0954542
  52.2901344  24.2509508  79.1349030  53.5998535  25.0075507  79.1913366
  26.6492009  48.2716703  58.0455732  26.8842149  47.3553419  57.8994846
  25.6956244  48.2640839  58.1284428  14.2041135  36.8299055  67.6073122
  13.6729407  37.1471238  66.8769264  13.7757182  37.1840882  68.3865833
 112.6693249  55.2121258  56.9376802 112.0718861  54.5783234  57.3346615
 113.4012890  54.6841431  56.6187811  27.4452949  55.6915188  65.0442266
  28.1643915  56.2374783  64.7263241  27.2772288  55.0769854  64.3298483
  46.7473602  61.1891937  81.3089848  46.3824987  61.7198610  80.6008244
  46.6316080  61.7248678  82.0937729  37.2244644  40.6517363  38.5310936
  36.5318012  41.3059473  38.6230397  38.0017328  41.0726213  38.8984370
  11.8540382  15.7866108  78.7155199  12.3505247  16.3779998  79.2811966
  11.3665438  16.3671887  78.1311321  40.2272797  23.2306528  69.7235966
  40.5280352  23.9742756  70.2459002  40.0942278  23.5917497  68.8471651
  34.6708560  14.5498431  60.3006601  34.9773598  14.3533945  61.1859274
  34.0812945  15.2957642  60.4113388 103.9052773  26.4371705  84.4466114
 104.1288948  26.9367909  85.2318573 102.9721642  26.2462211  84.5418739
   0.9986935  52.4683142  50.0752687   0.8717213  52.6055002  49.1365004
   0.4643498  53.1451845  50.4906654  62.6101351  32.4698567  58.9434004
  63.2177401  31.7883253  58.6560631  62.4802780  32.2973251  59.8759222
  40.7393456  31.9682288  55.4974031  40.2096844  32.7584910  55.3916931
  40.7137823  31.7866564  56.4368773 109.1238022  76.1632395  48.9844799
 109.1586494  77.0928335  49.2100286 109.9380493  76.0017252  48.5078907
  23.8638639  32.0098686  52.6309395  23.5545397  31.3771892  51.9826555
  23.0918741  32.5359440  52.8395224  53.7138414  19.1308558  33.2432437
  53.8450670  19.4643331  32.3556614  53.5869074  19.9149644  33.7773728
  12.9850388  22.2855473  78.5739660  13.6253512  21.8264842  78.0303764
  13.2395351  22.0758653  79.4725752  33.1357384  43.8710356  73.1414652
  33.0372667  42.9741383  72.8219128  33.9206743  44.1972685  72.7013779
  47.3927355  39.0212059  43.6733866  48.0649900  39.4207668  44.2253399
  47.6299191  39.2789340  42.7825689  42.2451258  58.7872791  68.0507803
  42.5711155  59.2353535  67.2702742  42.5465727  59.3280029  68.7808371
  89.6685982  65.1071215  64.9503088  89.9244881  65.1046896  65.8726645
  89.5895195  66.0343313  64.7261286   5.9973288  66.0826254  42.4929523
   5.0763178  65.9257936  42.2846842   6.4537275  65.3116512  42.1560049
  36.2282729  36.3899326  55.8602238  37.0264840  36.6290116  55.3891277
  35.5945778  36.1894274  55.1714134   8.0129915  33.4244108  48.7418318
   7.2768682  33.9532638  49.0495205   8.1057984  32.7365780  49.4010019
  33.9848709   0.3927280  48.1957531  34.1593242  -0.1122021  47.4014950
  33.6913633  -0.2578881  48.8335466  21.6035128  66.7936182  65.6242466
  22.0473075  67.5172663  65.1819706  20.7807660  67.1713591  65.9351015
   9.5159131  46.4954758  54.8294258   8.5736752  46.3417339  54.7602749
   9.7164851  47.0845652  54.1021156  34.1137028  40.4846811  78.7458038
  34.6397138  41.2438107  78.9973354  34.3730617  39.7990251  79.3613005
  36.0983706  38.2667947  87.7664566  36.4376092  39.0851045  88.1291103
  35.3673124  38.5361433  87.2103596  42.4425936  71.7512989  89.2860508
  42.7429724  71.5051222  90.1609230  43.0030012  71.2528229  88.6913300
  19.5560336  35.9657884  73.8584042  18.7411582  36.0912490  74.3446875
  19.7573924  35.0360131  73.9642525  26.3438201  17.1244299  45.1387310
  26.5014172  17.5375736  45.9876776  27.2141480  16.8734717  44.8292446
  56.9650793  10.7203639  24.9812841  56.3355064  11.0126245  25.6404185
  56.8880129  11.3621342  24.2752934  36.8401480  20.2622843  41.0978937
  37.3455381  21.0744548  41.0633802  36.7260456  20.0907326  42.0326567
  58.9347887  41.4334536  43.6809158  59.1101980  42.2247076  43.1716251
  58.1532145  41.0567427  43.2766056  25.7606673  13.5830879  40.4629230
  24.9985886  13.0098438  40.5457592  26.0864830  13.4219229  39.5774293
  36.4425135  18.5007632  54.8926497  37.1901965  19.0921664  54.8063564
  36.6979957  17.8911388  55.5849791  46.8645287  39.5806742  63.3588314
  46.2863350  40.0909233  63.9259052  46.3146448  39.3351197  62.6148176
  27.8446579   2.3100238  36.3981223  26.9376326   2.0090869  36.3436079
  27.7943683   3.2524112  36.2380958  38.6047959  40.5180740  72.8634501
  38.0925393  39.7236323  73.0140829  38.2137322  40.9108400  72.0830441
  97.2532845  62.0335579  60.9028292  97.5621510  62.7240181  60.3162336
  96.3425064  61.8903351  60.6455183  96.9188023  24.7514915  60.6013823
  96.9481468  23.8281536  60.8520079  97.7597141  25.1051831  60.8911943
  16.8769860  28.2362080  61.1937380  17.0726705  29.1255283  61.4887810
  16.0962307  27.9862690  61.6878843  15.9901571  36.0932541  65.1269865
  15.9703565  35.2899957  65.6471968  15.0839078  36.2187576  64.8455763
  34.6831942  19.9620116  64.9831009  35.1898050  19.2022157  65.2699566
  34.9284482  20.6576157  65.5931950  34.2942548  38.6574459  71.0166550
  34.7222209  38.4359193  70.1896143  33.4019327  38.3244252  70.9213161
  45.6142235  61.0085964  71.7269182  46.1685562  61.6840410  72.1177101
  44.7477388  61.1624527  72.1034336  33.2519770  71.5865326  75.4251289
  32.5978088  70.9714174  75.7566833  33.0256414  71.7025614  74.5023394
  32.2714233  36.9359231  43.5472059  31.9111991  36.3293552  42.9002523
  32.3855233  36.4052320  44.3356085  67.5310421 107.4248600   9.4422466
  67.6680565 106.5161037   9.7098720  66.6946793 107.6679611   9.8392737
  38.7846303  52.6224947  51.8393421  38.4031129  53.0501032  51.0726404
  38.1333232  51.9708920  52.0990419  29.7788811  62.3522568  78.2476234
  30.3891373  62.2761345  78.9811230  29.6131682  61.4485455  77.9791498
  42.7532673  67.4672031  78.6317396  43.4707212  67.6282978  79.2445564
  43.1634808  67.0101929  77.8975058  21.0060096  69.5379066  61.8131542
  20.5613041  70.2569914  62.2619104  21.7460132  69.9531507  61.3702106
   3.7234980  60.1531696  93.3298683   3.7170130  59.4984818  92.6315975
   4.6184906  60.1330900  93.6687088  68.6275911  21.3848519  33.7272739
  67.9596233  22.0072317  34.0148354  68.4129095  20.5734563  34.1874647
  48.7424374  31.8035769  85.8466434  49.1555357  31.5401053  85.0243473
  49.2832708  32.5260472  86.1656570  44.5227098  27.2069502  48.1355762
  44.4979954  26.4415526  47.5613070  45.0646400  27.8411603  47.6661921
  23.1280804  43.6588669  38.6848497  23.8549018  44.0979338  39.1266394
  22.8853846  44.2530203  37.9746985  15.5579746  41.8098736  53.0842876
  14.8353994  41.2304115  53.3258247  15.1647711  42.6819468  53.0509853
  43.0492163  45.5742073  57.7480316  43.1172609  46.5271711  57.6891518
  43.7845898  45.2490330  57.2286844   5.4615420  13.4601450  49.2405128
   5.0459349  12.8042161  48.6808157   5.6227952  13.0031431  50.0659657
  28.2254171  18.7037957  79.2600346  28.6136723  18.4548295  78.4212828
  28.6413002  18.1239140  79.8980045  63.1956100  20.4853439  62.5670576
  63.6407471  21.1104846  63.1391478  63.1410646  20.9310508  61.7217159
  53.2429695  39.6237779  60.8477783  53.9943409  39.8396587  60.2954435
  53.4374857  38.7496281  61.1858034  39.7868323  60.1486683  71.1183548
  39.6514487  60.7576799  71.8443108  39.7240305  59.2813587  71.5184355
  64.5725489  42.7060032  32.6589918  64.8057461  43.2893991  33.3811426
  63.7055063  42.3730326  32.8904986  39.0088701  40.2236509  21.9167542
  39.4260216  41.0115910  22.2651339  39.7036862  39.5652747  21.9157743
  96.3354301  52.9089880  46.6976166  96.4210415  52.8996134  45.7442999
  95.3914833  52.8798151  46.8536282  17.1076739  13.5623908  73.6527967
  17.3056877  13.0636978  74.4454670  16.4611888  13.0295265  73.1898260
  36.4940095  66.2218904  68.6267996  36.4476085  66.1521864  69.5803261
  35.8696628  66.9131947  68.4065151 110.9873676   5.1724631  63.3654833
 110.3113079   4.8539078  62.7674103 111.6177177   5.6176269  62.7991629
 106.0143089  47.8062820  11.8709886 105.1170158  47.4820518  11.7936885
 106.0356045  48.2526350  12.7174807  34.7557116  20.5543256  20.0489831
  35.5458426  20.1703334  19.6688867  34.8332691  21.4909005  19.8672032
   3.8248920  23.8457274  39.3144917   3.1159955  23.7937832  38.6733985
   3.6620164  23.1153655  39.9113798   6.6995031  26.9198632  51.4814329
   5.8174670  27.1221995  51.1694956   7.0156467  27.7421308  51.8558168
  44.6223354  26.9684649  37.3609495  44.4332314  27.8298926  37.7329922
  45.5763626  26.8977070  37.3934770  35.2073383   3.2115662  74.6761560
  35.5888915   2.7908486  75.4466391  35.7902288   3.9481956  74.4921780
  36.6001296  57.1508646  64.1347122  37.4841452  57.1817732  64.5004892
  36.1848617  57.9561138  64.4435120  22.9782176  52.6023102   4.2080075
  23.6837339  52.0955038   4.6100324  23.1837273  52.5991726   3.2731345
  45.2934742  13.0290961  53.9633131  45.8950520  13.4387696  53.3416176
  45.4095030  12.0890868  53.8249254 100.4010963  99.6394253  76.5280533
  99.6344757  99.1581631  76.8393564 100.5513859 100.3084278  77.1959448
  22.6680470  27.8108835  54.0444088  22.5231099  27.0594883  54.6194124
  21.8661046  27.8736520  53.5255814   7.4645305  37.3145962  49.5337248
   8.3697295  37.1261382  49.7813749   7.5391197  37.9197860  48.7958765
  96.4979076  55.5412626  58.1396627  97.0513344  56.0898018  58.6955929
  97.0066833  55.4229164  57.3375559  38.1421900  44.1114235  58.8961411
  37.5108361  44.2434502  58.1888962  38.9700913  43.9366913  58.4486151
  26.2857652  42.4051094  70.4224062  26.8771482  42.0305061  71.0752201
  26.7638016  43.1551075  70.0685358  36.9511271  28.9655876  48.7781525
  37.7943730  28.5336494  48.9145279  36.3016820  28.3012486  49.0085936
   2.0686929  74.3738413  57.2856474   1.8415889  73.5724258  57.7572250
   3.0254722  74.3977642  57.3009109  41.6551685  57.5160074  33.3300567
  40.8795357  57.1869707  33.7843180  42.3599958  56.9289684  33.6036181
  10.5392754  49.0564632  56.7102003  10.1276088  48.5292912  56.0254765
  11.0949123  48.4392500  57.1861649  48.4756136  63.0029488  79.4045448
  48.8769770  63.6015940  80.0344372  48.7319660  63.3479929  78.5492945
  42.2422552  13.7504470  41.5766954  42.6379538  12.9246747  41.2978506
  42.3301935  13.7483597  42.5298452  27.0905375  14.0265369  46.0799980
  26.4188194  14.6706033  46.3040590  27.6327038  14.4643164  45.4237652
  24.0094256  51.3019943  29.2454767  24.6682906  51.9198084  28.9285541
  23.2229376  51.8332958  29.3695283  28.5058689  12.4177670  47.9483891
  27.9748106  12.8378332  47.2718096  28.9368725  13.1436265  48.3996010
  21.7352533  45.7593632  45.3956747  21.4108443  44.8770285  45.2154827
  20.9456730  46.2779570  45.5501318  47.2040176  44.9874210  51.7112398
  48.0966568  44.6432877  51.7429829  46.9458342  45.0686026  52.6293802
  33.2444501  35.8733702  49.3642616  33.6465883  35.7972574  48.4989738
  32.4965024  35.2768016  49.3340826 108.6885166  54.7807646  10.3623021
 108.2141781  53.9893627  10.6170869 108.2090664  55.1135683   9.6036178
  16.1512196  48.5971594  31.7198968  15.9627998  47.7584267  31.2988710
  15.5149996  49.2036581  31.3409328  42.1850252  13.4317124  44.2392254
  41.5315199  13.2806754  44.9221277  42.6700306  12.6082337  44.1855097
  41.8431234  75.8123159  60.2407837  41.7794132  75.7899380  59.2859650
  40.9490395  75.6549692  60.5442381  48.7350464  53.5267830  45.9151840
  48.6592817  52.8270292  45.2664661  48.7542582  54.3319225  45.3978682
  20.0865984  44.5963383  73.9098454  20.6419396  43.8342905  74.0744925
  20.0348234  44.6533155  72.9557467  47.6625299  64.6955776  70.5044508
  46.7778444  65.0561762  70.4449797  47.8495169  64.6733379  71.4429474
  27.0860577  47.8107500  63.0048275  27.6868415  47.7215052  63.7446404
  27.6081657  47.5646019  62.2412539  54.2503595  64.4851303  84.1261387
  54.4187164  65.2289248  83.5476398  54.2543793  63.7242746  83.5453510
  30.1908278  47.0117521  35.6411338  31.1116338  47.1907568  35.8316731
  30.1650310  46.8711424  34.6946692  33.2129025  35.6576109  82.7360916
  32.8711128  36.0072422  81.9131947  33.8924599  35.0384951  82.4693966
 114.4400024  93.2929611  71.4718151 114.6812057  93.9026928  70.7744741
 114.5248508  92.4270439  71.0727930  21.1577106  29.3060875  43.4531403
  21.4180088  29.9954057  42.8421450  21.8962359  28.6971521  43.4560013
  35.0912881  69.5419502  80.5704689  35.4404831  68.9208174  79.9313402
  35.0460052  70.3726768  80.0971031  39.0921021  97.9211712  74.7694874
  38.1988049  97.7974224  75.0903225  39.4875455  97.0509529  74.8202991
  39.3382668  59.4011068  68.3568192  39.5539308  59.6281672  69.2613411
  40.1815176  59.3946886  67.9039145  42.9317617  47.1261835  76.8017483
  43.8263178  47.3635149  76.5574598  42.4584341  47.9580545  76.8151522
  34.4671011  38.4215879  20.5478573  35.1025486  38.4994173  21.2594628
  34.9854374  38.5319614  19.7507513  38.2583809  36.3696909  51.1174107
  38.1645370  35.6094670  50.5433989  38.0468130  37.1183920  50.5598116
  39.5282412  57.3017168  75.3153372  39.9582839  56.9709301  76.1039257
  38.5998678  57.1124601  75.4514980  13.5768938  50.6645966  78.8397741
  13.6952877  50.7358599  77.8926039  14.4599330  50.7517862  79.1987610
  41.7229223  46.7845774  48.5123968  41.6237974  46.3526154  49.3608141
  40.9148502  47.2858572  48.4029865  24.4261217  39.7909808  77.7625561
  24.8155522  40.6637573  77.7093458  25.0254869  39.2308021  77.2694111
  40.9548616  58.0505323  60.3338861  41.7552805  57.7114439  60.7346153
  40.2478409  57.5819016  60.7774401  33.0218577  49.1276121  44.3523788
  32.3110366  49.7022438  44.6365643  32.6230693  48.2587242  44.3050814
  45.5633736  71.0968113  70.1071787  45.9971189  71.8041372  69.6299124
  44.6998310  71.4483881  70.3237867  22.7579069  46.2768936  47.8984547
  21.8836856  46.5763378  48.1480503  22.6820612  46.0654211  46.9679928
  21.9525266  58.1649923  62.4925804  22.7217984  58.6691761  62.2275400
  21.2566662  58.8167334  62.5776815  41.9161081  68.4863901  68.2263422
  42.8531456  68.6094618  68.0745554  41.7300081  67.6135826  67.8802109
  63.8731241  26.6099548  71.1873627  63.2250881  26.4266348  71.8675661
  64.7066307  26.3371801  71.5708923  60.7671976  33.5509086  43.3034658
  61.4718485  33.6866283  42.6700020  61.2128115  33.2576632  44.0982437
  47.8132582  53.8207340  55.7844687  46.9297361  54.1521502  55.6238699
  48.3879042  54.5533466  55.5624437  30.9015656  48.1726980  60.8931065
  31.1837888  47.5138617  60.2586651  29.9878097  47.9535961  61.0755157
  33.8798928  47.1290302  60.8390760  33.9879894  48.0652905  60.6718397
  33.3874917  46.8062067  60.0843859  42.6739359  66.9949675  62.2214651
  42.1002531  67.3767328  62.8858232  42.4676466  67.4775124  61.4209509
   3.2382044  38.1816339   3.6058977   3.1038466  37.8245378   2.7280238
   2.3818958  38.5276628   3.8573533  47.2251606  27.6048613  26.1251402
  46.8826723  28.4162426  25.7501793  47.0699883  26.9446492  25.4496622
  33.5092402  36.4670825  76.7381144  34.3629146  36.8941712  76.8092823
  33.6807942  35.6712699  76.2346458  40.4601717  76.9555473  74.1749144
  40.7531309  76.4825344  73.3960295  39.6103406  77.3203564  73.9280701
  24.9998379  53.0672550  89.8320484  24.2115426  53.5492706  90.0820160
  24.8473811  52.1773863  90.1500511   2.9651123  71.1976099  51.8139172
   2.8882715  72.1020603  51.5101194   2.7999282  71.2463665  52.7554989
  40.8448458  44.8495579  40.9649229  40.5709457  44.3845129  40.1743889
  40.5511618  45.7500792  40.8269405  44.7691488  49.9341297  36.1721706
  45.1742029  49.2869139  36.7494726  43.9266443  50.1277113  36.5831923
  37.0013404  35.3187537  69.8372650  37.1777940  35.0060940  70.7245874
  37.8678441  35.4349637  69.4475269  24.1976476  25.9136319  56.9308233
  23.4296560  26.4204597  57.1945381  24.8820925  26.5689254  56.7953253
  24.4975352  19.3099093  30.6459332  23.8855910  19.6479154  29.9920893
  24.0046763  18.6310756  31.1069179   4.8419896  55.0284767  49.4686079
   3.9959627  54.9648333  49.9117994   5.1582026  55.9066057  49.6810532
  41.5410089  51.3211966  82.7512741  41.0917902  51.9214249  82.1561527
  42.0844507  50.7790279  82.1794701  33.9005136  62.0992088  79.4292116
  34.5374274  62.5927019  79.9459648  33.7917781  62.6129770  78.6289263
  49.8186684  50.4274178  57.5770950  50.6511497  49.9560308  57.5454378
  49.1529465  49.7411060  57.5321627  39.4469690  73.4187078  59.1150522
  40.1181221  73.0367804  59.6806669  38.9550567  74.0053844  59.6895695
  41.6874838  11.5540755  31.6227889  42.1190119  12.3534894  31.9243693
  40.7554722  11.7721605  31.6181135  37.3315406  62.5924349  71.4197683
  37.9296994  63.2496977  71.0641766  37.7393460  62.3165989  72.2406435
  58.8277102  66.2789392  93.2745647  58.0528259  65.8090544  92.9663563
  58.4941053  66.8802214  93.9404488  50.0478077  52.7899551  17.8813505
  50.0542879  51.9743490  17.3803711  50.7028389  53.3400965  17.4518013
  20.6473470 109.9714088  76.4576340  21.0138130 109.2646122  75.9262419
  20.6995916 109.6469402  77.3566532  51.7996120  56.7779827  49.4312716
  51.0875702  56.1574841  49.5868778  52.4200487  56.6135788  50.1413822
  36.1450481  48.8450766  51.4204550  35.6954765  49.5542860  51.8799448
  36.6319180  49.2828321  50.7221985  20.3313112  59.9656439  48.5196352
  20.2286649  59.0416431  48.7474871  19.4623697  60.2374315  48.2241583
  47.9565096  49.2075491  35.8224559  47.0533943  49.5039988  35.7096004
  48.4535408  50.0096130  35.9833455 105.4866695 101.2866783  65.9668589
 105.2068138 100.4447269  65.6076574 106.0556030 101.0564804  66.7014122
  93.8913059  28.6260867  10.6479466  93.8358116  27.9374433   9.9854332
  93.3479214  29.3346095  10.3030419  43.0016375  61.7569876  83.7983704
  43.2422733  61.8509483  82.8766823  42.0455265  61.8024063  83.8021183
  26.1422348  43.1072474  73.7474632  25.4022026  43.4384298  73.2386398
  26.5063000  42.4034595  73.2104635  29.5804620  53.1237173  80.9736443
  30.1052594  53.5516596  81.6501713  30.0194526  53.3471251  80.1529121
  55.2039957  71.6099501  81.9548416  54.9217796  72.5245714  81.9618988
  56.1214781  71.6444778  81.6841507  75.1472855  73.4261703  54.3428993
  74.4820547  74.0841675  54.5447302  75.6710720  73.8211060  53.6458302
  52.1371460  71.1138391  81.8903160  52.3097372  70.2080631  81.6333866
  53.0043983  71.4885044  82.0443630  55.2834606  89.0793800  74.7909737
  55.3890085  88.4912682  74.0431595  55.8569384  89.8204708  74.5956659
 107.4550343   8.5932058  46.8750954 106.5831661   8.3042091  46.6057444
 107.5207424   9.4911599  46.5501451  42.2699738  82.7260208  56.9126511
  43.1350374  82.6971436  57.3213816  42.0936251  83.6589146  56.7908812
  61.3821268  80.6601715  50.2988434  60.7396698  81.3325405  50.0721073
  62.1235561  81.1483765  50.6568575  73.2715416  86.1867428  83.3488083
  72.4599743  85.8349895  82.9829311  73.6783409  85.4410172  83.7899971
  71.0053778  88.3385944  50.3744602  70.2118301  88.0868340  50.8468294
  70.8858824  89.2690754  50.1842928  50.4144859  68.0574656  60.1209116
  50.4069948  67.8287315  61.0503483  49.5361376  68.3978176  59.9509239
  61.6387749 100.2862072  48.3048105  61.7937231 100.2833462  47.3602390
  60.8185720  99.8050785  48.4144354 108.3689308  72.4065304  54.2555809
 109.2731094  72.0956993  54.2099428 108.1371689  72.3340082  55.1814651
  48.6620283  59.4176722  64.0653658  47.7096033  59.5056534  64.0282917
  48.9139462  59.1647482  63.1772232  57.4785519  66.7784739  54.0477467
  56.7190409  66.2819862  53.7429905  57.8521681  66.2403202  54.7456217
  74.5091677  69.2438126  56.4006805  74.6518755  70.0660849  56.8694448
  74.5542574  68.5702896  57.0793295  62.2213221  82.8271389  73.8813782
  61.3298988  83.0532742  74.1468143  62.6978350  82.7247429  74.7052002
  14.2885971  15.3747141  49.0898514  13.3751786  15.5031264  49.3456030
  14.7761083  16.0080552  49.6165800  50.0910234  79.2267466  85.5586052
  50.7550669  78.8673878  86.1469364  50.4763603  79.1480541  84.6859360
  54.1578960  86.3361835  69.9951029  54.0581751  85.7028389  69.2843580
  53.9571238  87.1812248  69.5928144  90.1998138  68.3057117  55.2888489
  90.3165436  68.7703180  56.1175537  90.7065201  67.5002575  55.3923893
  14.4548357   3.6398423   8.9830732  13.8964295   4.3312323   8.6275542
  14.1437316   2.8394952   8.5601193  54.8337889  87.6540565  47.6776886
  55.6108761  87.9561996  48.1478739  54.1888571  88.3489895  47.8094196
  40.8879614  65.2419424  71.7372513  40.8173943  65.5802631  72.6298857
  41.7637205  64.8578739  71.6952229   2.8279859  55.5347061  61.1992025
   2.7999684  55.8312416  60.2895260   2.2470982  54.7742319  61.2212181
  56.7475176  87.1205711  68.5763454  56.0035133  87.6346970  68.8899851
  57.1587229  86.7840195  69.3725061  14.2127085  74.6011591  66.0708237
  14.3561792  74.4916964  65.1307869  15.0914788  74.6991253  66.4374208
  16.1037834  -0.3628360  80.1287365  16.2357051  -0.0211440  81.0130882
  16.2362106   0.3936852  79.5574379  31.4652133  81.9612694  79.8147345
  31.9036126  81.9812107  78.9640617  30.5505919  81.7686176  79.6083641
  58.1784678  85.2041340  61.8077755  59.0310335  85.3379536  61.3936996
  57.5758314  85.7423592  61.2945795  34.6028376  91.4428997  39.9193668
  33.7920976  91.9517422  39.9229908  35.2960420  92.0961571  40.0139713
 105.8909416   7.9806232  62.8502655 106.0437965   8.0656993  63.7913418
 105.2603817   7.2645366  62.7737999  44.3298149  76.6865969  61.8426132
  44.3670225  77.5247955  62.3033333  43.4535789  76.6633606  61.4580297
  57.2773552  77.5738573  67.3913527  57.9848623  77.6581001  68.0305481
  57.3160362  76.6596508  67.1103573  42.7379513  68.9242840  81.5377712
  43.3422279  68.7445021  80.8175182  43.1966162  69.5652819  82.0808887
  50.4980087  83.8585663  53.6784554  51.0454416  83.3428001  53.0863953
  50.2314472  83.2397175  54.3583107  48.1832838  88.2936192  65.7596350
  48.7643433  89.0035343  65.4864550  47.6394939  88.1200886  64.9912500
  60.1716948 100.0108814  61.5539551  60.5414820 100.5718136  62.2357559
  59.3267345 100.4103470  61.3473272  82.3885250  88.3592510  69.6791267
  82.4992371  87.4564362  69.3809605  82.4539375  88.8845921  68.8816452
  50.8452797  69.7886276  64.3906260  51.1088085  70.1426315  65.2400160
  49.8897505  69.7510624  64.4328260  55.5670404  88.0072212  72.3031425
  55.0691986  88.6643791  71.8168020  55.2233124  87.1690941  71.9938993
  24.6893501  93.6467266  39.2536354  24.7400093  94.3977547  39.8449278
  24.8527026  92.8886509  39.8147702  58.8372183  71.7599392  88.4206676
  59.2803431  71.0929775  87.8962326  57.9064560  71.6257572  88.2420254
  62.0430803  84.5350266  58.3101702  62.6204920  84.1005421  57.6824379
  61.2230492  84.6621895  57.8330851  55.2670097  61.6996956  57.2160530
  55.3388882  62.5752926  56.8360519  54.9485540  61.1524534  56.4981842
  61.5632963  96.6918373  82.2616482  61.9787502  96.5170765  81.4172077
  60.9385347  97.3940277  82.0804501  53.2635975  63.8230181  58.8552046
  53.3987427  63.7796450  59.8018265  54.1198587  63.6151648  58.4812498
  41.0205603  99.3952942  76.7821169  40.1746893  99.8337555  76.6899776
  40.7990313  98.4952927  77.0211840  80.4220676  88.8852310  53.0949879
  80.0768852  88.9854527  53.9821386  80.9479427  89.6722031  52.9522753
  58.7610722  94.6798515  65.8386230  57.9689026  94.7485638  66.3715172
  58.4398174  94.5156765  64.9520159  74.7737217  60.3004789  59.4193649
  74.7299623  60.4334641  60.3662682  75.5988169  60.7092810  59.1579628
  85.7253265 105.4103947  58.6576700  85.6795597 105.3731251  57.7022934
  85.7906342 104.4951344  58.9302111  58.1012583  75.9437656  60.9587431
  58.6684799  75.6479120  61.6707563  57.7049828  76.7506027  61.2877035
  42.3929501  54.4957685  79.8273516  42.7960396  55.3639412  79.8325777
  42.4216223  54.2128849  80.7413387  52.1928072  66.2272739  56.3945341
  52.2129679  66.6102123  57.2715664  52.9999828  65.7159138  56.3378525
  60.1048756 105.9022236  52.1394253  59.5127010 105.6044865  51.4488411
  59.5927191 106.5411568  52.6351070  48.7303877  73.5012531  65.4546976
  48.8389921  74.1398907  64.7500134  49.5473003  73.5510731  65.9510851
  74.8536730 107.9789162  56.2678671  75.6123734 107.6232147  55.8051825
  74.3326330 108.4007835  55.5846596  46.6127253  46.1455441  72.3011923
  46.5081739  46.0490942  73.2477617  47.4514866  46.5949297  72.1974230
  42.8992558  96.9645786  67.3977804  43.0412436  96.0943794  67.7703667
  43.5142136  97.5289822  67.8663063  50.1988459  79.9071026  75.8120298
  49.9331188  79.4235563  76.5942097  50.3411865  79.2311573  75.1494074
  45.0166559  76.0625935  58.6451149  45.8903074  75.8690310  58.9849663
  44.5068455  76.3038588  59.4184923  46.9219303  72.6702070  56.1759615
  47.1309710  72.5588560  57.1033955  46.4939547  73.5250521  56.1278629
  69.3279600  63.7329292  65.5670452  68.8502979  62.9677582  65.8873367
  70.1046562  63.3696175  65.1416302   9.3350315   7.6779342  82.7536201
   8.8716012   8.4967595  82.5775814   9.9631852   7.9011375  83.4405231
  81.9881535  81.7910862  59.0330172  81.5919876  81.7101002  58.1654215
  82.5206089  81.0013199  59.1278505  55.3546286  93.9412117  67.6885223
  55.3378391  93.0297661  67.9804516  54.9548197  93.9216232  66.8190384
  70.4515457  66.2747669  51.1909533  71.1685753  65.8278704  51.6408300
  70.5936193  67.2029209  51.3769054  44.1705799  97.2336006  52.6728439
  43.5086823  97.9168224  52.5663996  43.9822245  96.6067505  51.9744062
  47.2397900  82.4372959  86.5779018  47.7232695  83.1336021  86.1333275
  47.9185915  81.8622398  86.9311237  18.2843924  96.8697071  59.7194052
  17.9119837  97.0268059  58.8517284  17.5977170  97.1427917  60.3277922
  40.5620384  45.4048443  74.5163822  41.4842892  45.1501179  74.5446396
  40.2035999  45.0995731  75.3497887   1.2296072  12.8911209  78.9955235
   1.3094778  12.0681918  79.4778538   0.5224533  12.7343130  78.3697653
  50.0718212  95.2432060  75.4636860  49.9635458  95.3952885  76.4025021
  50.0097704  96.1140633  75.0712585  28.3106971  47.9618788  78.7715244
  27.4334121  48.0362034  78.3959246  28.2060719  48.2402229  79.6813679
  65.0249910  83.1351852  61.8214846  64.1581678  82.9861259  62.1991491
  64.8505354  83.5604191  60.9818602 101.6989994   4.2064774  61.6768932
 100.8852005   4.7023675  61.5871954 101.4289093   3.3690822  62.0537901
  66.8280983  62.4607563  47.1605539  66.5672922  62.1245432  48.0179739
  67.7822781  62.5208712  47.2069788  33.0216241 101.9484234  79.0548563
  33.3932614 101.7031193  79.9021721  32.2356653 102.4489403  79.2739153
  68.4151506 108.2934952  51.3460350  68.8154602 108.9368916  51.9308615
  68.6888695 108.5636139  50.4694843  57.1261120  82.4703884  61.3346100
  57.5508785  83.3093739  61.5132284  57.8477812  81.8745518  61.1336231
  67.3464680  76.1511850  51.2835741  67.7282000  76.1794329  52.1609068
  67.8107786  76.8331861  50.7982731   6.9085783 102.1621704  70.0086498
   7.1280706 101.2314034  70.0501108   6.5808392 102.3701763  70.8836079
  71.8029499  73.8414431  87.4762535  72.3061132  74.3356371  86.8290901
  71.2821674  74.5033741  87.9310799  35.5459690  75.3391743  53.0914402
  35.9814548  76.0299158  52.5919724  36.0595536  74.5521164  52.9097795
  62.9309130  70.5840540  55.5147028  62.1179247  70.4661751  55.0233936
  63.0800295  69.7383308  55.9374952  43.1561041  92.9412651  79.8735762
  43.1863499  92.9378891  80.8302879  43.8501787  93.5472202  79.6141386
  39.2795086  69.6862793  55.5173445  39.1200042  70.4647970  56.0509157
  38.8869476  69.8927212  54.6691036  21.2327766  82.1805191  59.9099016
  21.8565249  81.7812443  60.5163240  21.3680840  83.1224918  60.0128841
 100.7468033  88.8612461  58.5430908 100.1032352  89.2485332  57.9497385
 101.5821075  89.2420673  58.2720327  64.8250580  60.9828997  57.9827929
  64.5781326  60.8951139  57.0621681  65.7265091  61.3039446  57.9594278
 112.6396465  11.7170978  74.5087576 112.6843262  10.7814884  74.7059107
 111.9360924  12.0463920  75.0680542  47.5634670  75.7381821  59.2523193
  47.9631042  74.8706770  59.1894054  48.0566072  76.2746525  58.6316395
  95.0755119   9.0638924  54.8575640  94.4632435   8.5071677  54.3765068
  94.6175289   9.8992932  54.9502373  28.0876493  64.0381336  68.1519699
  28.9920735  64.2577839  68.3755732  27.8653693  64.6361017  67.4383450
 115.9993458 108.1953430  64.8385859 116.3849354 109.0668869  64.7493458
 115.2237988 108.2180214  64.2780018  58.7646008  93.9292717  73.0169058
  58.4648561  93.4146786  73.7662888  59.4281816  93.3801651  72.5993252
  26.4897871   9.4844466  57.5338984  27.1369743  10.1596904  57.7374363
  26.9561601   8.8681459  56.9691849  73.3714962  88.5544586  74.9057531
  74.1179657  88.4318733  74.3192434  72.9554462  89.3599892  74.5987654
  90.7551003   7.4128294  45.7849646  90.5561543   7.5553942  46.7103434
  90.5875206   8.2593483  45.3707743  59.1247225  94.4650745  63.0887747
  59.9235392  93.9379787  63.0713606  59.4293499  95.3560066  63.2610035
  77.8399038  71.9808245  67.3452950  77.8179932  72.9197359  67.1603870
  77.3485422  71.5835762  66.6262770  29.8600411  40.5182028   9.1389954
  29.6289682  41.4381790   9.0106076  29.8586273  40.4012251  10.0890195
  80.8684349 100.8845043  57.1859884  81.7729759 100.8876896  57.4990892
  80.4135227 101.4991283  57.7617645  77.5286627  50.1682329  56.2049913
  77.1579218  50.7684898  56.8518877  77.6260614  49.3400288  56.6749048
  79.8657036  93.6813164  80.7919979  79.4868231  93.3900261  81.6213608
  80.5006790  93.0013657  80.5668354  89.6267891   5.9783208  37.6316094
  88.8320732   5.6114811  38.0190182  90.1629925   6.2342286  38.3820963
  92.4097443  47.6252222  56.4401627  93.0422401  48.2641935  56.7686462
  91.5933037  47.8435326  56.8896103  79.5959139  87.2153473  70.0445652
  79.7336483  87.2640038  70.9905577  80.4555607  87.4024391  69.6674299
  57.9045343  67.1725035  58.2811832  57.0920706  66.6729355  58.3622217
  57.6186275  68.0642700  58.0831003  85.1879501  70.5858183  87.1875858
  85.2724934  69.6356058  87.1089458  86.0722733  70.8887243  87.3935986
  42.1019936  81.8492222  60.5851221  41.4486599  81.8049622  59.8869610
  42.5999355  81.0362816  60.4990625 115.2772331   3.3373407  84.3889618
 115.0612450   2.5817603  84.9354744 115.3712463   4.0615094  85.0078106
  56.8969011  92.0660210  57.3024082  56.8885994  91.2659931  56.7769337
  55.9940290  92.3823738  57.2713232  47.2855520  96.7347622  78.4973621
  46.9121218  95.9303474  78.1372166  46.6016579  97.3928547  78.3731556
  63.8388681  91.3863850  50.1520967  63.8820505  90.4302502  50.1651144
  63.7974453  91.6116428  49.2227030  20.7977200  77.6444244  82.7129173
  21.6286922  77.9867029  83.0424023  20.7696819  77.9236174  81.7977715
  40.6332159 109.3817425  34.5344281  41.3599539 109.3971062  33.9116526
  40.8669186 108.6944294  35.1583052  72.0640469  80.5933571  45.6748343
  72.0559835  80.9817505  46.5496588  71.5723276  81.2112808  45.1338959
  83.4888935  95.2394485  74.7338438  83.1534386  95.4652786  73.8662577
  84.3892288  95.5644608  74.7345829  73.0776930  99.2392921  34.9952722
  73.4096241  98.5744858  35.5986595  73.6671543  99.1951561  34.2424035
  49.3143320  97.5262833  82.5677872  48.7798786  98.0873871  82.0058632
  49.5744514  98.0928612  83.2941246  68.8950109 104.9506378  70.1196623
  68.5127687 104.4176960  70.8168697  69.6715832 104.4635010  69.8442268
  53.7674665  86.7221928  58.9753151  53.7233829  86.7432404  58.0193663
  53.2094622  87.4471855  59.2568350  10.4051125   2.1518567  51.0718012
   9.6983182   1.6019341  51.4098215  10.1129985   2.4061435  50.1964474
  99.2996407  18.9961290  82.8610420  98.9052391  18.2374632  82.4308014
  99.7916508  19.4357908  82.1675968  45.1938772  82.6775646  56.4552355
  45.9316683  83.2572651  56.6445780  45.5175114  82.0944595  55.7685900
  53.4767151  88.9453030  51.0874033  54.3661547  88.5936546  51.0491037
  53.5903263  89.8927784  51.0124063  49.4302893  18.8539732   9.6831089
  49.9093390  19.3556595   9.0235239  50.0061417  18.1175542   9.8888034
  54.7146559  95.1776028  49.1256094  54.8036718  95.6959343  48.3258295
  55.2265549  95.6549168  49.7785759  71.3823605  76.9202805  51.0528040
  71.4530039  77.7334976  50.5528927  71.2467432  76.2428617  50.3902721
  64.2546034  88.8456154  58.9473200  64.8648834  89.5763683  58.8484001
  64.7710991  88.1572628  59.3664169  42.7325058  78.0145788  67.0369339
  42.4228668  78.5533857  66.3088894  43.0309153  78.6455965  67.6919127
  66.5558243 103.4660244  85.9868050  65.7760715 103.4537029  85.4317665
  66.7859697 102.5434589  86.0970020  72.4091578  73.6679888  63.7687731
  73.2996035  73.9834213  63.6143780  72.1958351  73.1601810  62.9859209
  86.1628246  73.5894871  77.8249359  85.3184223  73.7833786  77.4179745
  86.4912987  72.8294563  77.3446274  59.8766613  95.6624222  68.2491970
  59.7524261  95.4971790  67.3145866  59.3591690  94.9841309  68.6832047
  41.7336416  89.4315529  62.5316620  41.4338064  90.3384590  62.4695301
  42.1156168  89.2462730  61.6737604  89.5112896  63.2425785  76.3430882
  89.7700596  62.6125479  77.0156431  89.2018795  64.0036774  76.8342400
 109.3051434   4.0222004  45.9064960 108.7078953   4.4266030  45.2772188
 108.8282204   3.2592764  46.2331772   4.9210364  17.4986756  83.9719963
   5.3938949  17.7642858  83.1832790   5.0009179  18.2475758  84.5627594
  65.3856325  78.7532377  53.6638403  65.3220129  77.9171419  54.1254950
  64.7572899  78.6786747  52.9456043  79.0101147  95.1704502  43.4034014
  79.4493914  94.3410683  43.2152414  79.3054914  95.4036427  44.2835188
 109.8219967 100.8818054  45.8216715 108.8822174 100.7295990  45.7222652
 109.8917866 101.4620876  46.5797138  19.9735069  59.8678875  62.8983545
  20.0855470  60.5185080  63.5914421  19.3693650  60.2785015  62.2797775
  69.1957378  93.4399414  44.6481228  69.1306591  92.7778339  45.3363132
  69.5902014  92.9783249  43.9081669  84.2026234  67.7548265  84.9939346
  84.8671722  67.4116898  85.5913162  83.3793640  67.6638222  85.4737091
  83.7423706  94.8494911  53.8912392  83.9381599  93.9721775  53.5622644
  84.3348598  94.9644566  54.6341801  34.1500568  74.3577099  76.0553312
  33.6855865  73.5321426  75.9176970  33.9406061  74.6029997  76.9565487
   7.2040373  29.5142126   1.9005099   7.2557914  28.5591316   1.8634732
   6.2975806  29.7141957   1.6668959  22.8059435  29.3585086  21.0424256
  23.6919808  29.6176863  20.7894468  22.2357082  29.9749637  20.5830288
  46.7174482  68.4671926  66.2511015  47.3705196  68.6389303  65.5727005
  45.8835888  68.7074757  65.8471489  66.3047409  65.6176138  31.4416599
  65.6056452  66.0844564  30.9838915  67.0156527  65.5647373  30.8028769
  81.8935490  69.7282696  73.8330555  81.0824013  69.9827576  73.3931541
  81.7047787  68.8660812  74.2035055  94.6426964  76.3558865  41.9660234
  94.8099995  75.4163456  42.0402670  95.0387287  76.6044188  41.1307859
  55.9357071  84.9559402  47.7699661  55.2583551  85.4574299  48.2237768
  56.7559290  85.3830338  48.0170679  66.4430428  92.3884583  58.6953974
  66.0433292  91.7606926  58.0934143  67.0271111  92.9098415  58.1447077
  52.3554802  99.4201756  48.2653236  51.7141628  98.8479710  48.6866665
  52.2650957  99.2339706  47.3307705  55.9837532  90.4919910  48.7724447
  56.6025400  91.2206173  48.7231350  55.2132750  90.8608913  49.2043114
  85.7200813  92.2043324  58.4786224  84.8394966  91.8340492  58.5393476
  86.0116673  92.2790527  59.3872643  -0.1893659  93.1182194  30.2419138
   0.7090770  92.7881050  30.2346134  -0.1321651  93.9776134  29.8242903
  65.4581928  93.8093758  51.5728045  65.0943947  94.6552086  51.8344450
  64.8367262  93.1657791  51.9130802  75.2560329  50.9965944  43.5076332
  74.6967649  50.4118586  44.0190411  74.7423458  51.7989540  43.4149837
   7.1208590  17.7052009  29.0561008   7.6130003  17.5915229  28.2430172
   7.7754486  17.6086187  29.7477770  71.8868113 104.9736595  53.2390642
  71.5674591 104.2463779  52.7049160  72.6621056 104.6251965  53.6792040
  26.8717813  95.2924442  53.2398272  26.6003990  96.0520554  53.7551641
  27.7525043  95.0908375  53.5559177  66.7868853 100.9189796  64.5396852
  66.4106035 100.2135086  64.0134287  66.5989542 101.7150593  64.0425205
 114.8242855   0.8550154  64.5821810 115.5202579   0.5351793  65.1562548
 115.2849960   1.2086846  63.8213253  65.2822924  60.8300447  52.5015354
  64.3803215  60.6591606  52.7726126  65.5466938  61.5925550  53.0162191
  39.2609000 107.4053955  74.4176865  38.9675784 107.2531891  75.3160334
  40.1743269 107.6773262  74.5068026  49.3830299  87.8701496  62.7418947
  49.0219259  87.2858334  63.4085321  48.8767958  88.6775780  62.8314829
 101.3464451   4.7055897  33.2485127 101.9958973   4.0242833  33.0745625
 100.5434799   4.3806529  32.8412127  94.7436428  -0.0395306  49.9692059
  94.7533989   0.6339712  50.6493044  95.4227161   0.2332630  49.3522167
  40.8915615  89.4056225  47.2579527  41.6128349  89.0395069  46.7461300
  41.0594654  90.3479195  47.2684622  50.1347542  92.0581532  58.0877733
  50.6156635  91.2602711  58.3076334  49.4146681  91.7585564  57.5328350
  86.2526131 107.5408268  90.7473660  85.8786678 107.5733280  89.8668289
  86.9204426 106.8568039  90.6988716  65.5726528  74.2359877  61.5596056
  64.9138546  73.6501884  61.1866999  65.3128529  74.3365717  62.4753666
  98.2929134  86.9105148  75.2855110  98.3322811  86.1950397  74.6508694
  97.3650932  87.1419239  75.3283262 105.4097939   4.2036298  71.1947393
 105.6660461   3.8049221  72.0263624 105.7090187   3.5836875  70.5296373
  49.7737312  93.2765198  41.3443470  49.5777559  93.3361816  40.4093266
  49.1044521  92.6872158  41.6922188  45.1630354  88.9091587  35.4104424
  45.7604456  89.4020653  35.9729218  44.4660807  88.6178684  35.9983468
  67.9747868  83.4928989  65.2555704  68.3460140  84.0296841  65.9557724
  67.3074198  84.0499687  64.8549080  62.8451586 100.1191807  50.8677626
  62.4279547  99.2626858  50.9603930  62.5904799 100.4164410  49.9942636
  45.7424498  82.3666477  59.4317198  45.1043892  83.0701733  59.3127489
  45.9556389  82.0837498  58.5424757  78.9426088  72.8059244  71.4117956
  78.9572048  73.1871176  72.2896957  79.2490721  73.5097122  70.8399630
  63.1345844 107.1144104  81.7395401  63.6076450 107.1940708  80.9112358
  62.4501133 107.7816772  81.6895771  45.8422852 101.5696049  79.4222069
  46.0000134 102.3606968  78.9069128  46.0100698 101.8352795  80.3263569
  50.0890875  66.6627216  69.2615509  50.6850386  67.4108791  69.2980433
  50.1662636  66.2527943  70.1230860  91.3516808  13.5168827  48.3232689
  91.6489601  12.6081789  48.2772446  92.1238518  14.0334606  48.0927753
  89.1340828 102.9245663  48.5708904  88.3553982 103.4706020  48.4625912
  88.8145542 102.1360207  49.0094423 109.6714401  17.0938659  53.9985037
 110.0966644  16.2415814  53.9034843 109.0488720  16.9723260  54.7153425
  21.4628935 107.5585079  74.8125362  21.9489861 107.3524475  75.6109667
  20.6822205 107.0065212  74.8582220  40.1248360  77.9161310  68.3492994
  40.6452751  78.0236435  69.1454268  40.2912998  78.7124825  67.8449678
 113.8897038  73.0475855  78.6741829 112.9698753  72.9976463  78.4140778
 113.8669014  73.0765343  79.6306753  52.3777151  80.1930618  58.2441235
  52.8831434  79.4338751  58.5346603  51.4686489  79.8934841  58.2536697
  80.4448795  91.7660904  77.4826670  81.3809299  91.6423893  77.6399612
  80.3611660  91.7735863  76.5291643  11.3812542  19.3176639  64.9102068
  11.9874430  19.0514874  64.2188931  11.6214824  18.7751746  65.6613588
  66.3025856  78.8009882  65.9349108  65.4684448  79.2032814  66.1770010
  66.6833162  79.4044781  65.2968884  74.3091440 102.9919338  68.6011982
  74.2665529 103.6247253  69.3181276  73.4156752 102.9565144  68.2595968
  87.9462528  73.0744314  81.1358070  87.9491329  72.6605177  81.9988823
  87.9340363  72.3424244  80.5191612  79.5002365   7.7468103  48.1426287
  78.7204885   7.4251711  47.6901102  79.3373299   7.5551593  49.0661907
  37.2993612  77.2446966  52.3603201  37.0361900  78.0957556  52.0100784
  37.8323078  77.4556112  53.1269455 101.9190979  84.0672207  89.7305298
 101.5627480  84.4294930  88.9193535 101.1806870  84.0718174  90.3395939
  83.3910561  75.7065153  92.1689224  82.7836514  76.3345480  92.5599098
  82.8273582  75.0699711  91.7292881  77.7047253  83.3935642  60.3165054
  76.9085455  83.1881714  60.8065510  77.4821663  83.1999207  59.4059038
  80.8047073 109.5380579  69.8751259  81.5171729 109.9950200  69.4281197
  81.2408211 109.0123433  70.5456924  79.6272707  76.0667181  78.3605337
  79.2283916  75.2303982  78.6007452  80.5247116  76.0068846  78.6880398
  82.1737862  78.5566330  78.5705805  81.8892288  77.8624010  77.9761887
  82.7864170  78.1255627  79.1664839  48.0317545  86.1276436  78.1459951
  48.1546354  85.8435059  77.2402334  47.4974918  86.9189835  78.0783892
  63.7517214  79.0987587  67.7816916  64.3474340  78.5572529  68.2995033
  63.0134296  79.2692327  68.3665800  24.5191312  81.8106651  80.5292034
  23.6068583  81.7705250  80.2421856  24.5777392  81.1636734  81.2321854
  36.9172049  29.4344330   0.7523384  36.3929152  28.6368656   0.8247008
  37.0944071  29.5204115  -0.1843790  92.8637123   1.7082435  46.9965076
  93.6727715   2.2132614  47.0778227  92.4498367   2.0452708  46.2019348
  90.1597786   1.1804286  86.6619873  90.7868576   0.5246162  86.9668102
  90.6931210   1.9528452  86.4745140  57.9936409 104.4602871  29.7766495
  58.0180264 103.6885929  29.2108512  57.1510839 104.8717785  29.5842981
  89.0034294   1.8070039  55.4510880  89.4870472   2.2880030  54.7795296
  89.6385193   1.6744436  56.1548805  72.9043293  82.5693703  62.7796030
  73.5731840  82.5508213  63.4640884  72.0747232  82.5992584  63.2561398
  78.0244160  86.5962696  34.5815539  77.1939516  86.5060711  35.0489140
  77.7842999  86.9809437  33.7385798  78.6071825  98.1912518  46.0635853
  78.0152225  98.7598419  45.5711174  78.1592655  97.3457813  46.0913658
  40.3965235  99.7373486  32.5399423  40.7666159 100.3854656  31.9405985
  39.4517732  99.8858643  32.4996805 103.3685303   4.2364743  39.7358155
 104.1056347   4.7285849  40.0973892 102.6684856   4.8834077  39.6483779
  72.3408127  98.5082817  56.3768911  72.6007128  99.0896893  57.0914841
  71.3859320  98.4720993  56.4327955  88.1439114  99.1884995  80.8187103
  87.6506424  98.3760262  80.7055759  88.2855606  99.5087242  79.9278545
  57.9511309  66.2028694  85.0851727  58.3106947  65.9590769  84.2322254
  57.6212645  67.0927525  84.9605465  92.7047348   2.9050326  53.5083723
  92.6447392   3.7536135  53.0695724  93.5855770   2.5912818  53.3036470
  56.2605762  75.7501173  57.2357559  55.7702303  75.5684185  56.4340258
  56.4815807  74.8857117  57.5824499  61.5747404 102.2948456  65.1193905
  61.3210058 102.1496296  64.2079306  62.5311422 102.3284817  65.0993204
  84.4183826  10.1066506  47.1246767  84.5003986   9.1534716  47.1555805
  83.6922550  10.3038776  47.7163553  55.1600456  68.2069111  60.2840853
  54.8928452  67.5757408  60.9522581  56.0873365  68.3650494  60.4611683
  71.9304180  98.8223076  66.6534662  72.3567867  97.9735088  66.7717361
  71.1758137  98.6355305  66.0949707  75.3506756 104.3025208  50.2673817
  75.1467466 103.4611416  50.6756973  75.1421547 104.9516010  50.9392691
  50.4933834  74.1250038  71.7386532  50.1571894  73.5117483  71.0851049
  50.2723074  74.9894238  71.3920498  93.9442539  80.0177097  35.1233125
  93.3732033  79.3377781  34.7657895  94.4592857  79.5695543  35.7942295
  75.5319118  84.4658566  56.9279146  76.0644150  85.2601624  56.8859291
  75.1184893  84.4088459  56.0664797  60.6367111  77.4699402  64.3314457
  60.9017706  76.5604734  64.4687033  61.4564753  77.9637718  64.3502283
  25.4799914   9.2781818  45.8984518  25.1858187  10.1449168  46.1785650
  25.1614976   8.6855316  46.5793037  61.5227890  89.9737072  42.4518776
  60.6691599  90.3847599  42.3155642  61.9660425  90.5445766  43.0794573
  90.6742859  63.2149792  36.9108486  90.8745003  63.0854177  37.8378630
  90.0392056  62.5290680  36.7048407  56.0056639 101.9268417  84.1201973
  55.9696960 101.4251518  83.3057976  56.2021685 101.2759686  84.7939777
  26.1149478  70.5331945  80.1160526  25.8040166  69.6796703  79.8143148
  25.8610630  71.1400890  79.4207478 109.5244408  65.8065939  43.0203772
 109.4910431  64.9193811  43.3781052 108.7154865  65.8920431  42.5158834
  66.1179399  93.7431431  64.1803646  66.6189957  93.3830738  63.4485674
  65.9026814  92.9827213  64.7204161  80.2223778  92.3505306  67.8074646
  81.0766697  92.7614021  67.6747990  80.1887417  91.6516018  67.1543121
 113.2606602  54.6786880  69.5093107 113.4557343  55.4493427  68.9761400
 114.1166687  54.2919254  69.6934557  22.9424548   9.4353670  64.4306135
  22.1140432   9.0633953  64.1279554  23.1541848  10.1073647  63.7826777
  29.2601609  23.0207825   1.5304494  30.2063990  23.0779099   1.6631213
  28.8837123  23.4108114   2.3193696  46.9839859  87.1059799  43.6662626
  47.1924353  86.3344765  43.1394100  47.0846987  86.8120670  44.5716429
 104.7521496  81.4789486  65.8689880 104.8387432  80.9931087  66.6891670
 105.5544853  81.2794781  65.3865910  52.9560423  89.5698452  47.0388603
  52.0628500  89.9063969  47.1107197  53.2560110  89.8680687  46.1801910
  66.2742043  74.9130774  82.0811176  65.6478071  75.5894232  81.8234158
  65.9540939  74.1164017  81.6579533  80.5510235  98.2217598  58.2708073
  80.3978443  99.0203476  57.7658081  80.5037212  97.5170612  57.6247549
  49.6496534  97.8438663  77.4321175  49.6443844  98.4370041  78.1833839
  48.9098454  97.2562218  77.5857162  16.6576552  83.4490204  48.3045626
  16.5534675  82.6071644  47.8611040  16.7863131  84.0789604  47.5954437
  56.3982964  86.1524296  74.9418306  56.5713787  86.0288620  75.8751106
  56.9722176  86.8742561  74.6853113  71.1245346  76.7760420  91.8732452
  71.0848856  77.7307987  91.8175602  70.9314728  76.5813875  92.7903461
  81.3638973  94.2540932  57.8701401  80.8182907  93.6281776  58.3463430
  82.0326042  93.7155437  57.4470091  76.6706657  64.3493891  57.7625895
  75.7654047  64.4485474  58.0573750  76.9696283  63.5392141  58.1754732
  76.6803503  63.0345011  60.9592104  75.9659815  63.6632061  61.0623455
  76.5907383  62.4451685  61.7081308  89.8966599  88.8323498  29.7302151
  90.6671238  88.6832905  29.1821218  89.1543388  88.6400509  29.1573143
   4.4962749  96.2174892  66.6707611   3.9336973  95.9082222  65.9607649
   5.2889490  96.5254974  66.2314129  71.0803699  98.9923000  76.8398380
  71.8622923  98.6411190  77.2658730  70.3862906  98.3727646  77.0649147
  73.5497427  53.6447239  42.3574066  73.5411787  53.7623072  41.4074945
  72.7329397  54.0448666  42.6556540  47.4629068  76.3208771  69.1408157
  47.5392437  76.0409069  68.2286644  46.6246414  75.9621382  69.4321060
  91.6957474  82.8364468  59.6311283  91.3137722  81.9706535  59.4871521
  91.9033623  82.8542900  60.5653715  58.5450840  81.8123531  50.2089834
  57.7366447  81.8442917  49.6974802  58.3321333  81.2571907  50.9591007
  37.7789974  69.4468546  67.7370024  38.2097340  68.7305403  68.2034683
  38.0811524  70.2385187  68.1822014  56.5256405  92.4494457  37.3481941
  56.1989117  93.2238483  36.8901873  55.8157396  91.8113995  37.2763562
 101.6475964   4.1066140  55.0683308 102.0788670   4.2365724  54.2237282
 102.0964432   4.7089139  55.6616354  77.4179411  77.1156836  41.5705585
  76.6530657  77.4160242  41.0796452  77.0609093  76.5203953  42.2296429
 110.4684162   6.0555303  59.0786743 110.6271553   6.4471352  59.9375534
 111.3068008   6.1300159  58.6228323  82.0699596  92.0467091  35.0994396
  82.4652481  92.5946331  34.4213891  81.9962406  91.1819267  34.6957636
  51.3697100  77.9210281  67.4712276  51.6839647  78.4282207  68.2197189
  51.3687897  77.0147896  67.7794027  84.8390865 100.5258369  80.1124096
  83.9540482 100.8330441  80.3087902  85.1892376 101.1769676  79.5044231
  78.2224131  67.4662495  81.5237045  78.2691145  67.6674271  80.5890465
  77.7631760  66.6274500  81.5654945   0.2036009 106.0346508  63.6500883
  -0.0091792 106.7658615  64.2299986   0.3763484 106.4438438  62.8021812
  77.1780682  70.4283905  75.9352207  78.1012821  70.1756763  75.9285975
  77.1883869  71.3766766  75.8052969  17.8641701 106.6840744  62.8962231
  18.6158991 106.3581562  62.4013376  17.7672958 106.0651493  63.6199427
  71.8461323  76.9089222  73.5088444  71.8319225  76.6597509  72.5847530
  72.6431131  76.5059614  73.8533401  95.4543400   9.5286131  47.7951622
  95.7236195  10.1337957  47.1041679  94.7816563  10.0048518  48.2819033
  83.1656361  94.4297695  82.0606899  83.1336308  94.2567158  81.1198044
  82.9760456  95.3647518  82.1388340  50.6942320  71.8036079  74.2615604
  50.4986715  71.6132259  75.1790237  51.1987829  72.6166105  74.2879295
  22.3836803  35.4000998   1.9875237  22.0522547  34.6686840   1.4665432
  23.1915784  35.6619692   1.5459859  76.8670559 107.0959473  49.5861435
  76.6470242 106.4912605  50.2947807  77.7905369 107.3044872  49.7273064
  90.6247807 106.6836929  35.3196883  90.6155300 106.7396736  34.3641710
  91.3704872 106.1177158  35.5192399  75.7028198  72.6450586  81.9249058
  75.8014584  72.1434546  82.7341652  75.5081558  73.5354900  82.2172546
  87.0539665  69.5773220  56.3264847  86.7882252  68.7201595  56.6594744
  86.6540432  69.6315956  55.4585314  72.4524546  84.5760536  88.6259651
  72.6351690  85.3449821  88.0859661  72.0629168  83.9452553  88.0205059
  32.0981240  91.2403774  59.7024298  31.6058683  90.8503056  60.4247618
  32.7001071  90.5506802  59.4228363   4.8451707   1.9286165  53.4282017
   5.1380539   2.0048885  52.5201082   4.5762610   2.8153068  53.6684084
  44.3424702  84.9125290  74.7915030  44.0576410  85.8217716  74.6999645
  45.2582979  84.9745941  75.0628662  85.8845711  52.1748400  20.0125170
  86.7705536  52.2207451  19.6531212  85.7535553  51.2472200  20.2089572
  94.0605354  82.3262596  48.6190367  94.4310093  82.3599052  49.5009899
  94.6531868  81.7537403  48.1319809  75.8151007  79.8861599  61.4808941
  76.0655117  79.2991066  62.1942616  76.5865326  79.9182558  60.9151316
   9.1017646  37.3314142  38.8349509   8.4464103  37.1234369  39.5009017
   8.6779559  37.1121883  38.0051589  72.1964455 104.6018219   9.0154481
  71.4324522 105.1593685   9.1627145  72.7636957 104.7691154   9.7680932
 111.1729431 103.4781361  37.2665000 111.0728359 104.3983173  37.0226169
 111.1443901 103.0054092  36.4346647  67.6773882  77.9289484  70.2194262
  67.6918602  78.8671875  70.0304079  67.7251673  77.5106716  69.3597746
  80.4674435  67.6501989  62.1068573  80.6503296  67.0658922  61.3710833
  80.9701252  67.2837973  62.8343773   5.0128353  11.3832247  94.6917439
   5.1192790  11.6697013  95.5988407   4.4646937  10.6007123  94.7504520
  55.0687408  95.6952572  59.7071266  54.4380713  95.7089901  58.9871979
  54.9495602  94.8368835  60.1136065  47.9205608 102.7342606   8.5981435
  47.6170206 102.1976089   9.3303353  48.8334084 102.9314804   8.8080078
  25.4208136 102.8863811  64.8373222  25.2467728 102.9323387  65.7774448
  25.2111602 101.9833946  64.5987940  46.0837221  88.0101585  47.7808094
  46.4878702  87.3715591  48.3682442  45.3452349  87.5427246  47.3904562
  59.8134041  89.7841167  36.5101910  59.4715071  90.3076553  35.7854533
  59.0988970  89.1871643  36.7323756  33.7997127  97.7774239  29.9673939
  33.8164902  96.8528938  29.7200298  33.2958317  98.2020187  29.2730904
  36.5273094  53.6586285  76.5574884  37.4338555  53.3613491  76.4798307
  36.1191916  53.4012365  75.7307911  55.0157070  67.1884155  56.6196918
  55.0844955  67.6112556  55.7637072  55.2225924  67.8815746  57.2465563
  27.9433346   1.7710175  49.3464136  27.5279069   1.0039639  49.7404718
  27.2268653   2.2359066  48.9142275   2.6301184  20.5870771  57.3834848
   2.6214680  20.7493877  56.4401865   2.1263236  19.7804987  57.4923611
  74.2157698  76.4151382  29.0585685  73.5197258  77.0704126  29.0099168
  74.2333460  76.1522627  29.9787974  90.7423592  91.1814976  30.9740543
  91.0919571  90.3628254  30.6222463  91.0224247  91.8498707  30.3486991
 114.2897606  32.0340180  48.4900618 114.8407269  31.3367558  48.8457203
 113.3948803  31.7532730  48.6813545   4.1453916   0.3836963  57.0518875
   3.7171447   1.2213734  57.2283363   4.0253559   0.2465799  56.1121941
 116.1452007  20.4501247  63.4927320 115.2772427  20.3043413  63.1163979
 116.3969421  21.3205409  63.1841326  88.9005852 100.6030369  86.6602135
  89.6503448 100.8709335  86.1288643  88.2667732 101.3125896  86.5550804
  51.9499683  56.7586851   3.0274355  52.0949745  57.1688271   3.8800722
  51.7688131  57.4903250   2.4374211  93.2963181  79.2463541  49.7053957
  92.3433208  79.1600513  49.6811628  93.4628868  79.8633242  50.4180193
  71.7264891  77.0968390  27.6826501  71.4439297  76.2218189  27.9485965
  72.3767996  76.9407177  26.9978476  12.6345742  30.4430246  32.5867081
  12.5970042  29.5900273  32.1540236  12.8451681  30.2401853  33.4981561
 112.4490452 109.5040131  40.5791664 113.0109882 108.9713097  41.1419106
 111.6333961 109.0070820  40.5158520   2.4780744  32.3279738  60.0713491
   2.3325689  32.4770951  61.0056019   3.1376639  31.6350484  60.0392866
   8.9024454  16.7801297  75.3696680   8.3132231  16.2931097  75.9457445
   8.3261406  17.1719241  74.7134686  75.8228207  66.2555265  54.4142342
  75.0273705  66.0734892  54.9145889  75.8560133  65.5611897  53.7561893
  64.1694689 109.0553379  47.7168941  64.2801094 109.2209339  48.6531448
  64.3167686 108.1144047  47.6210451 104.0663052  22.6144266  28.7617373
 104.8684502  22.7492690  28.2571507 103.7336636  23.4973216  28.9232206
  68.0490255  97.3461533  73.9172363  68.8985300  97.7065468  74.1715813
  68.0608559  97.3575592  72.9601812  75.4529905 103.5306740  31.5763021
  76.0488749 103.1977558  32.2473621  76.0049295 103.6490059  30.8032632
  76.1121988  98.6736393  48.9956379  76.5979624  98.9622307  48.2229900
  75.2179480  98.5415936  48.6808205  63.2511330  93.3839893  67.8754377
  63.7077522  92.5434303  67.8409052  62.3936844  93.1756973  68.2464170
   8.5023779  15.2281535  62.5243235   8.6662024  15.7091129  63.3355379
   9.3543994  15.1948833  62.0893717  97.5457859  11.9347763  68.0077982
  96.6863346  12.0092738  68.4225512  97.6085663  12.7074623  67.4463320
  25.8109958   0.3923596  36.7135477  26.1125476   0.1744164  37.5954771
  24.8651702   0.2478398  36.7412853  10.2114522   4.1103178  45.4580832
   9.5872146   4.2795625  44.7524548  10.7301784   3.3687627  45.1462317
 116.4316620  27.4860120   7.6126927 116.1427574  26.6818452   7.1813190
 115.6582275  28.0499506   7.6108587  18.5022879  30.6655812  64.9546957
  17.7042031  30.9254503  64.4945192  19.0681386  30.3087854  64.2700529
   4.2642274   1.8096222  81.0151672   4.0027773   2.6755801  81.3282108
   4.9270996   1.9863197  80.3476334  99.8829842  96.5649605  68.8210583
  99.2494583  96.0338306  69.3035316 100.7295227  96.3346386  69.2039013
 107.1851444   2.9113394  30.7514071 108.0579567   2.6926067  31.0778666
 106.7566395   3.3481795  31.4874721  77.3388052  73.0449486  76.6483688
  77.8516626  72.9643726  77.4525547  77.2186136  73.9877081  76.5343952
  92.6809120 108.8683224  53.3457327  92.7293301 109.4596863  54.0968466
  93.5291767 108.9618206  52.9122162  82.6704216  88.8051796  89.7702122
  82.9652596  89.1721058  88.9367390  83.0058384  87.9086781  89.7692585
 109.8264980  25.5794287  42.4508762 109.4934082  26.3328171  42.9384041
 109.0454197  25.0708961  42.2328234  56.6839266  96.4949989  50.8355188
  57.3637152  95.9216976  50.4813480  56.0247374  95.8963394  51.1866713
  53.9297199  73.9900494  69.8775864  54.1638899  74.6794701  70.4989529
  54.6058893  74.0370083  69.2017031  45.7764530 108.0445385  62.6536703
  45.8677006 107.1046257  62.8101206  46.3933849 108.4497833  63.2630920
  76.2911558 104.2720795  40.8113432  77.0023632 104.8469448  40.5285978
  76.3476467 104.2733574  41.7668772  74.4556093  72.0501375  60.4378891
  73.5774231  72.2130823  60.7820892  74.6055412  71.1180067  60.5956316
  78.9895535   4.1224778  63.2763624  78.7846899   3.4685957  63.9447165
  78.2437897   4.7223413  63.2916212  70.3668976  68.2903290  55.2186489
  70.3714752  67.3714113  54.9506950  70.3151608  68.2609844  56.1739969
  99.7568512   3.5682991  64.7950649  98.8553810   3.6705181  64.4898796
 100.0164318   2.6994559  64.4885302  26.8979359  23.3535409  76.4547491
  27.2666550  22.5623965  76.8476439  27.5835609  23.6710191  75.8670759
  74.2732906   1.5024534  81.8125057  73.3407736   1.5042295  82.0284748
  74.3333673   0.9770074  81.0146809  96.4090252 101.9275951  83.6257839
  96.4240360 101.5732193  82.7367306  96.5732288 102.8638649  83.5132217
  71.2544060  91.6243362  43.2451344  71.2512398  90.7554913  43.6467838
  72.1007681  91.9983673  43.4900951  62.3316240 100.6519699  78.2204294
  62.3021984 101.5368176  78.5843134  63.2342958 100.5464649  77.9199505
  53.8365698 104.7827435  52.7202845  53.4014082 105.5426025  52.3336744
  54.0547037 104.2257500  51.9730139  61.7957973  91.3909340  76.2139559
  62.5007343  91.2474728  76.8453979  61.7091322  92.3428822  76.1639118
  77.7416372  91.8862438  63.2111311  77.1362400  92.4683380  63.6703730
  78.0415154  92.3973465  62.4594116 105.1138783   7.7530766  46.9171762
 105.4566002   7.4349058  47.7523661 104.2357731   7.3764652  46.8595314
  94.2725468   6.0554904  66.9128323  94.0235806   5.9765387  65.9919548
  94.8410702   5.3021836  67.0726681  90.4701519   1.9299614  58.2185841
  91.2407303   2.2679952  58.6748409  89.8390388   1.7499399  58.9153767
 115.4197254   5.4717505  63.3263063 115.5579696   6.2171638  63.9106703
 116.1108802   4.8523521  63.5605764   0.8191548   3.5680532  64.0597963
   1.5588394   3.8795504  64.5813990   1.1428560   2.7732256  63.6358881
 110.1135731  16.1025393  66.8104124 110.3041267  15.9912479  67.7418280
 109.4898033  15.4051161  66.6085529  74.0756273  62.9994202  40.5145788
  73.7987185  62.1008348  40.6937504  74.2481709  63.3736515  41.3785315
   8.6947930   2.1907270  58.5990381   7.8813183   2.1486802  58.0963230
   8.9831048   3.0993673  58.5125494  10.4792571   4.7517428  10.0276184
  10.1052773   5.3975451  10.6270432   9.7771168   4.1153133   9.8927569
  38.6478972   5.5581117  15.3347027  38.5437751   4.7262132  15.7965839
  39.1247964   6.1154449  15.9496653 116.2504768  21.6182494  84.2052364
 115.8094406  22.4677324  84.1952896 116.7689610  21.6081381  83.4006882
  98.6538219  19.8359513  50.0125694  97.8846836  20.0488734  49.4840622
  98.8714218  20.6540728  50.4592896  83.9637947  97.3147964  79.9882936
  83.0080509  97.3251152  79.9365044  84.1981030  98.1998825  80.2674770
 110.4901218   5.8099401  68.2860994 110.7298946   5.3710926  69.1022825
 111.0586166   5.4142410  67.6254416 112.3861504  13.5574663  55.0402260
 112.5144577  13.1992865  54.1618872 111.5594482  13.1762230  55.3359413
  97.8679371  92.4304104  38.8660216  97.7320290  91.4989567  39.0396595
  97.3821545  92.5968361  38.0582142  82.0517349  66.4237738  27.3689580
  82.7805138  66.6719294  27.9377651  82.1584797  66.9705725  26.5905929
   4.0186810  34.4224977  73.0377007   3.5284498  35.1974058  72.7630711
   4.9032834  34.5672655  72.7019119  38.8967872  32.0899391  35.0845766
  39.6672416  32.4202371  34.6224809  38.6526489  32.7984524  35.6800914
  16.9780815   7.0058221  71.4821005  16.5199757   7.7038503  71.0139894
  17.8878701   7.3007470  71.5212965  14.0219796  14.8891819  60.3908157
  14.8629618  15.2082825  60.7181644  13.4184849  15.6191444  60.5293083
  92.5684071  72.5165510  74.0066433  92.2751522  73.1096649  74.6983480
  92.3366451  72.9643202  73.1929970   1.0549009  12.0509994  65.9751797
   1.7498007  12.6725638  66.1919832   0.9677653  11.5066302  66.7576742
  93.8370228  95.7036877  68.1379128  93.3154774  95.1698971  68.7373209
  94.7377491  95.4125118  68.2798433 115.3800297  30.1133680  37.2094202
 114.7476864  30.4544640  36.5769386 116.0606956  29.7075653  36.6725349
  10.9118640   2.0276710  42.8545761  11.8360007   1.8462628  42.6834249
  10.7155120   1.5377825  43.6531305  38.8802934 109.3325710  65.2982426
  38.4228659 109.0655422  64.5009470  38.9837766 108.5225964  65.7977009
   8.9363271  13.4061658  77.9295635   9.7194463  12.8599799  77.8614712
   8.5004401  13.1017113  78.7255192  88.2270622  81.1279678  20.7615161
  87.9917526  82.0553207  20.7320166  87.4055004  80.6785870  20.9598470
   8.8427138  11.4703953  68.0821133   8.1036240  11.2771535  68.6588573
   9.3451297  12.1363008  68.5515594 100.8970356  90.1127243  36.9137406
 100.5838680  90.8966160  36.4624333 100.2074718  89.9084473  37.5454092
   1.7011620 107.7900887  36.3387585   1.4744438 108.2736492  37.1331143
   2.6363415 107.9541016  36.2172174  49.3804121 101.0376263  37.4978709
  48.8899422 101.1029625  38.3172607  50.1272249 101.6241360  37.6183414
  11.3590407  23.5425544  71.0753393  11.1673057  22.9517984  70.3469992
  11.8614924  23.0087399  71.6908216  93.2067966  73.7597895  42.9646063
  92.5069141  74.3324375  43.2784128  93.9540672  73.9647913  43.5265589
  69.1780806 105.7159615  51.8167973  69.0918446 106.6550350  51.6526985
  69.6038723 105.6604195  52.6722813  60.2889538 102.9934692  22.7825284
  59.5121193 103.2346916  23.2870793  60.9468555 103.6429882  23.0305529
   6.9223982   9.3368036  25.8687758   6.8407774  10.2833915  25.9851432
   6.3773358   8.9625216  26.5609121 106.2597942  18.5583568  41.8633795
 107.0836830  18.2450104  41.4901972 106.2254524  19.4845557  41.6242027
  80.2664471  93.5910320  36.6257095  79.3267202  93.5124874  36.4614558
  80.6711483  93.0046082  35.9865332 113.3831024  79.4461870  76.7493582
 112.6002693  79.6811771  76.2511826 113.4160805  80.0867462  77.4598789
 101.4419651  12.3696709  18.6289346 100.6460190  12.4947405  19.1457200
 102.1196175  12.8390825  19.1154158  85.9582996  82.4874401  66.0328293
  85.1569462  82.1779060  65.6106424  85.8591461  82.2333717  66.9503498
  14.6488762  12.2122192  75.7929659  15.5402148  12.4967527  75.9949255
  14.7074342  11.8507731  74.9085665  20.5751252   9.0448457  15.5530369
  19.9069750   8.5883331  15.0417602  21.2017274   9.3596488  14.9014997
  86.8802071  89.0034485  30.9511924  85.9572983  89.1096497  31.1818242
  86.9311523  88.1298447  30.5632925 100.1536369  85.2483845  25.8881354
  99.3973923  85.8209991  25.7599521 100.1194096  85.0101948  26.8145967
  12.5985122   2.7722779  72.0750523  12.6953328   3.1416142  72.9528046
  13.4943235   2.6992428  71.7457771  48.3092546  38.5016108  91.9469738
  47.5675011  39.1062522  91.9259071  49.0805531  39.0684390  91.9409943
  71.8104362  83.2157135  51.8972588  71.8936539  84.1265965  51.6151381
  72.5738096  82.7777100  51.5208960  27.0606780   5.7686687  70.4430819
  27.6804018   6.4227813  70.1201105  27.5808048   4.9702677  70.5339575
  32.6065922  85.3741741  89.6827888  33.5209775  85.5817509  89.8752594
  32.6311541  84.9624062  88.8190365  72.7032137  87.2718906  68.6382532
  71.9066811  87.3290348  68.1105185  73.2944107  87.9169846  68.2502127
  64.1085625  97.0506191  72.8413296  64.6319914  97.6163578  73.4089518
  63.2686329  96.9691944  73.2931280   0.9405234  97.0812416  72.1884108
   0.7311615  96.1472321  72.1932793   0.5597288  97.4162960  73.0001831
 104.5072842  17.7112937  48.8760900 104.8800755  17.5474977  48.0098152
 105.0842571  17.2410822  49.4779444  42.4524832  89.1708851  43.7111759
  41.5198088  89.2559624  43.5134125  42.4795914  88.6739731  44.5288420
  77.4168253 107.8063107  41.4815950  76.6866350 107.6452541  42.0791864
  78.0249310 107.0858002  41.6468048  41.5566254 108.4853363  61.2060452
  42.2152662 109.0851307  61.5562963  40.7486820 108.9984322  61.1921644
 111.7659950   3.7716419  60.5367184 111.6571999   4.4797540  59.9019194
 110.8838749   3.6140695  60.8732843  66.7020988  99.6557617  70.0113153
  66.0970831  99.8239708  70.7337379  66.8259096  98.7066269  70.0186539
  84.6336460  21.6586637  58.9074087  84.4945717  21.0413480  59.6256113
  84.6019459  21.1185336  58.1177998 112.1180058 106.7405415  21.3151813
 111.3251209 106.2636757  21.5604711 112.8345966 106.2049007  21.6554999
  88.1566334  84.7320461  67.3456812  88.2007504  84.6702957  66.3914919
  88.2221222  83.8260746  67.6476049  23.0384421  10.4105318  70.9422207
  23.6183715  10.8043754  70.2904510  22.3089290  10.0585461  70.4321671
   2.0905636   6.0006845  92.3653126   2.9053625   6.2772286  92.7846622
   2.1419427   5.0450033  92.3490047  98.3313656  85.7335854  84.9668312
  97.4837494  85.2970695  84.8818016  98.1720161  86.4480495  85.5835819
  26.0869813  51.1544275   2.0250925  25.5848145  50.6465912   1.3877861
  25.8995318  50.7364798   2.8655744  50.9837818  67.3180151  75.1873159
  51.3641024  68.1917429  75.2778101  51.6043568  66.7395782  75.6306314
  27.8068519  16.1737502  54.8362923  27.8178406  17.1006536  55.0749540
  28.2135701  15.7299614  55.5805111 109.2350960  40.7652950  58.4450006
 110.1394081  40.4535961  58.4809732 109.1229343  41.2684870  59.2515087
  83.7774654 109.4108796  94.0038506  83.6843200 109.3439651  94.9541552
  84.7087856 109.2590261  93.8431896  54.4775438  96.7003250  46.8946409
  54.0208197  97.4939251  46.6156673  54.4659996  96.1336422  46.1232996
  79.0391588 107.2197342  69.3716669  79.6147299 107.8657913  69.7810078
  78.2266426 107.2697067  69.8752069  65.0668240  94.2955017  46.0566854
  64.8030233  95.1316357  46.4407682  64.9646091  94.4223404  45.1134491
  51.4672709 108.2618141  56.4769840  51.1643314 107.3894691  56.2250376
  51.0373306 108.4318638  57.3151159  58.4832335  87.4761963  66.3413334
  58.0126619  87.5458145  67.1719646  57.9555130  86.8739986  65.8168316
 113.0989456  14.4290042  65.7109165 113.4597683  15.2440846  66.0597515
 113.4673119  13.7452292  66.2703705  14.8716366  19.9356353  67.3027515
  14.4387317  19.4085777  66.6311598  14.5700550  19.5627582  68.1311512
   6.6032141  16.2553608  50.1298618   5.8961618  16.8966401  50.0586605
   6.2293833  15.4467905  49.7795820  36.1393809  74.6409273  79.9041367
  36.7663288  73.9918470  80.2232933  36.1146545  75.3077126  80.5904388
  48.6943579  73.1767797  59.2946529  49.1278028  73.2512760  60.1448345
  48.2540894  72.3273468  59.3238783  81.4079189 102.9354191  62.9957485
  82.0290756 103.1067085  62.2878981  81.5615463 103.6401844  63.6249876
 110.6533623  14.3343282  85.6427002 110.2342224  15.0885463  85.2283287
 110.0488663  13.6087334  85.4867554  54.6878386 107.3201466  51.0402727
  54.3148661 108.1966305  50.9459257  55.0266171 107.1090889  50.1702642
  69.1037464  97.6387691  66.5201187  68.9254761  96.8809509  65.9631872
  68.4716463  97.5645542  67.2350836  69.6851254  40.7814932  90.0565910
  69.7036028  40.6990433  89.1031265  70.5989456  40.6815767  90.3233910
   8.6474103  15.5821729  24.6523833   7.7619284  15.6483424  24.2949271
   8.7952358  14.6418786  24.7535014 113.6384678  26.2805176  71.9965792
 114.0218163  25.4052615  72.0532084 114.3471813  26.8313432  71.6640949
  88.5745144  67.5789928  64.3722725  89.0897083  68.3188248  64.0506220
  88.1011581  67.9272366  65.1278448  13.9765191   4.0078259  45.8652878
  13.1971049   4.1543543  45.3293085  14.1594172   4.8603934  46.2601423
 100.9275627  99.1439152  33.2800388 101.0421658  99.0506840  32.3343086
 100.4351616  98.3651733  33.5395527  69.3995714 105.3941536  79.8117590
  69.3197584 104.4407177  79.7830057  69.8270273 105.6237125  78.9866400
  64.1376543 101.0178566  75.3000498  64.6742725 100.4486656  74.7484207
  63.4531689 101.3424015  74.7149134 114.8433113   9.1066223  31.9639349
 114.4320869   9.3365604  31.1307168 114.5401287   9.7788304  32.5742221
 113.7508202 108.0464745  43.0821180 114.1786861 108.1319332  43.9340878
 114.4721317 107.9476261  42.4606895  12.9986644  36.0176778  70.2862740
  12.0417356  36.0368443  70.2985907  13.2601631  36.7872882  70.7917929
  75.7178450  88.6122227  45.6860447  76.2838411  87.9293251  45.3261566
  76.2767601  89.0869617  46.3012457  96.0981846  20.1706862  67.0622253
  96.2850189  20.1478791  68.0007362  96.1231995  19.2531562  66.7906666
 114.6799183  97.8598118  86.8741894 115.4790020  98.1016541  87.3423958
 114.9803257  97.6121712  85.9997368  96.1596584 108.5343933  44.1619110
  96.2111568 107.6528835  43.7924194  95.2339649 108.7685394  44.0947723
  63.5971880  83.6663914  49.4187927  62.8672600  84.0347195  48.9210224
  63.1817007  83.1040573  50.0725365  80.4900074  92.1794891  23.5713291
  80.2218914  91.4358234  23.0315971  81.1413670  91.8170834  24.1718578
  78.4080839 108.6011696  32.7878523  78.2771730 108.6851692  31.8433738
  77.6849842 109.0948200  33.1747198  56.5875053  99.6666718  85.7999992
  57.4277020  99.3079948  86.0857296  56.4093065  99.2263985  84.9689484
  33.7244821  24.2829180  74.1806269  33.9205909  23.3506656  74.2737865
  32.8375697  24.3063688  73.8213682 108.4570026  12.6967978  47.4818993
 108.1000996  13.5754943  47.6113224 108.3423805  12.5270522  46.5468693
  69.8370266  99.8512077  52.0099115  69.4400883 100.4762554  52.6165342
  70.3446388 100.3930759  51.4058065  97.4718189 103.1750107  70.0021696
  96.5512466 102.9204178  70.0650024  97.4485493 104.1132641  69.8141050
  76.5570641   8.1566888  68.7258911  76.5707254   7.2297359  68.4875584
  75.8076429   8.5152179  68.2504416  71.2669420  89.1630077  61.4200974
  71.4066887  88.9944458  62.3519182  71.0688639  90.0982952  61.3729525
  99.6886444   6.3036650  40.7490587  99.1621017   6.0929936  39.9779558
  99.2636299   5.8320761  41.4654350 111.2954140   2.6397422  85.2495193
 110.3721237   2.4016525  85.3336811 111.4900208   2.5194368  84.3200684
 104.3468094  14.0400624  47.2632074 103.7493420  14.6397114  46.8163395
 104.1548443  13.1829524  46.8827581 101.5208530 104.6470070  71.6830015
 102.0065689 103.8926125  71.3495350 102.0547962 105.4028320  71.4383316
  97.1149254 101.5767574  46.0763693  96.5380573 100.8397484  45.8756924
  97.3952484 101.9014168  45.2206564   6.8209797  33.0294824  64.8835993
   7.4553800  32.6467967  64.2775249   6.4841503  33.7984562  64.4237518
  82.8495407 104.7170830  73.0844927  82.5377083 103.8176250  72.9847050
  83.7910652 104.6637535  72.9204273  24.1822934   7.0688564  26.8037629
  23.2800698   7.3791105  26.7265177  24.4998121   7.0286590  25.9016562
  73.2786942  90.7805252  55.4168463  73.1907034  90.2320194  54.6373367
  73.0804110  91.6654873  55.1106358  69.6081638 102.2355556  18.4854269
  69.6968508 101.6683102  17.7195251  70.4354906 102.7153206  18.5252392
  83.7891388  12.9752266  67.5078726  83.8889027  13.3280718  68.3920574
  84.2553520  13.5961986  66.9481707  88.9116859  14.5625603   6.1959827
  88.3111763  15.2687752   6.4344770  89.2427254  14.8108983   5.3328651
  80.5563831  80.0441933  67.5375795  79.7232437  79.6318293  67.3093748
  81.0399437  80.0798988  66.7122793  78.4474182  75.2094126  30.8687425
  78.5047865  75.7583618  30.0866961  79.2913818  75.3253937  31.3052177
  57.6058245 108.6303902  36.1967039  58.3275223 109.2113972  35.9562540
  57.9876614 107.7528858  36.1758757   2.1676281  18.9029455  63.0719137
   1.3726380  18.3942831  63.2315540   1.8983629  19.8131824  63.1951857
 105.6842518  97.0777988  43.0882168 105.4765701  97.6010895  42.3140860
 106.2428761  97.6460171  43.6185932  63.6801767  83.4913445  88.5465908
  64.0729904  83.7203121  87.7042770  62.7628469  83.3102894  88.3417606
  79.7349739  69.4042826  76.7006636  80.2707672  68.6976767  76.3402939
  80.2191639  69.7033644  77.4703026 100.8592129  67.9080915  85.3014851
 100.6641293  68.8267517  85.4865265 100.7589626  67.4672985  86.1452198
 114.6498108   5.3998327  47.6091480 115.0954723   4.9944225  48.3529615
 113.9851093   5.9627706  48.0060101  72.8624296  77.0068312  66.3415003
  72.9046392  77.9237604  66.6129494  73.6477375  76.6092920  66.7176390
  98.3887291  73.5116482  51.9851828  97.9838848  74.3789291  51.9980192
  98.1762314  73.1354713  52.8393316  47.7189589  69.5176411  59.2220783
  46.8933821  69.7686195  58.8077545  47.4667215  68.8854313  59.8950672
  85.6868553  95.8780956  71.2727404  85.5613995  94.9338818  71.3674164
  85.1796913  96.1102867  70.4948568  40.6869745 105.4183388  38.1716633
  40.3833532 104.9272060  38.9350986  41.6233635 105.2265453  38.1203842
  93.2777309 109.0456772  44.8183441  93.2646751 109.7799587  45.4322577
  92.4460316 108.5953903  44.9657774  52.0727444  84.8161983  64.3639040
  51.2765551  84.6457386  63.8606548  52.6154947  85.3470802  63.7809658
 108.2462692 101.4544201  65.2460337 108.2907391 100.8037090  64.5454454
 107.3399544 101.4158630  65.5515480  83.1008053  29.8945570  44.7101021
  83.1549931  30.8377504  44.8639917  82.1620941  29.7126079  44.6660233
  61.9529247 107.2549820  61.0165977  62.0056438 106.3185692  60.8253241
  61.2991095 107.5885010  60.4021740  70.7712841  85.6080914  82.1631718
  70.5698633  85.4699612  81.2376499  70.4426527  86.4872265  82.3511982
  39.5656824  96.9507122  61.9652462  40.0238371  97.1254444  62.7873135
  39.4203234  97.8163242  61.5833902  41.6271257  94.3457127  40.8585930
  41.5297079  93.4598541  40.5093241  40.7632017  94.5609379  41.2100792
  92.6849174  92.8225994  37.1509767  91.8453789  93.0761051  36.7673683
  92.5515461  92.9054070  38.0952168  64.8872566  88.1666660  70.1932144
  65.3345633  87.8582573  70.9812689  64.0502834  88.5061073  70.5102110
  21.6251850  24.9341965  63.9801788  21.9058728  25.3443861  64.7982168
  22.0074415  25.4815984  63.2942772  90.1904297  96.8008423  64.3582201
  90.2378178  96.0219383  63.8038731  89.5716381  97.3769474  63.9094067
  93.3897305  59.2080402  41.9553709  92.4638462  59.4253635  41.8470287
  93.7436199  59.2174625  41.0660410  43.4520578 103.9118862  84.6332932
  43.0537462 104.7683239  84.4780922  43.2882166 103.7358952  85.5598068
   5.9138310  20.0687003  64.1439581   5.6869531  20.0112629  63.2158089
   6.7491382  19.6067536  64.2153692  61.7518663  77.5745440  18.8870406
  62.6203346  77.9337597  19.0685987  61.8154716  77.2334290  17.9949498
 112.9121876  94.7167969  67.8988171 112.0674515  94.7818565  68.3442497
 113.5103893  94.3829536  68.5673475  61.4479828  92.2672844  39.7482896
  60.7568789  92.5724888  39.1605330  61.2589025  92.6956749  40.5831289
  61.7583421 109.3072708  41.2653542  61.5308431 110.2259706  41.4084196
  61.0904267 108.9867139  40.6592512  67.4143410 101.5756607  23.1893992
  67.6171589 101.7534065  22.2709727  67.4978256 102.4254799  23.6219215
  10.4176545  32.0574164  22.1250176  10.1702917  31.7900634  23.0102110
  11.0141575  32.7945900  22.2553587  48.8372803 107.4743938  77.2468519
  48.5582209 106.9282246  76.5119648  49.6903467 107.8170490  76.9802237
  53.6361837 104.2001534  86.7669582  54.4882393 104.1943550  87.2030735
  53.8180017 103.8843060  85.8818531  84.3929100  74.4969797  37.5453377
  84.9035740  74.0691853  36.8579912  83.7550449  73.8365984  37.8159976
  74.6566677  86.6243935  25.5989456  73.7779045  86.2606716  25.7071805
  75.2060843  85.8671093  25.3967237 108.7258053 106.6807270  49.3472576
 108.3396149 106.8065548  48.4805107 107.9866695 106.7513275  49.9513435
 110.1543903 104.7301674  72.2943878 110.7382011 105.4268360  72.5944710
 110.6165314 103.9204407  72.5111485  89.2302895  78.2094145  76.0995293
  88.4892654  77.7941132  75.6583595  89.0635300  78.0689383  77.0315599
  31.1897326  22.9746366  58.5187435  31.3701177  22.7173352  57.6145887
  30.2584100  22.7892971  58.6392450  21.9549847  33.9237833  69.9615002
  22.2328568  34.7949886  69.6786261  21.0654283  34.0513754  70.2911091
   1.6661188  40.1594973  27.2233963   1.0826163  40.3573084  26.4908481
   1.7770600  39.2092872  27.1914053  97.8278160   8.3060324  36.9004536
  98.0582333   8.0436021  37.7916718  97.0290756   7.8159213  36.7053986
  86.0629368  24.7371435  49.9555397  85.4684353  24.0404224  49.6773720
  86.2755108  25.2068138  49.1490316  57.6646042 101.2749100  61.2623358
  57.4830580 101.8878555  61.9747734  57.5519466 101.7934608  60.4656887
   9.3923640   2.3842201  64.6026564   9.4288266   2.7798468  63.7318087
  10.2455473   1.9639392  64.7107077 113.7231827   1.6039729  86.2771797
 113.6322403   1.2251364  87.1515083 112.9067326   2.0838131  86.1379623
 112.9570389   6.7514461  80.9055901 113.1234169   5.9821320  81.4503002
 113.7709236   6.8806666  80.4186249  45.9287262  27.2370005  10.9806073
  45.1820898  27.6923966  11.3696826  45.5374050  26.5281200  10.4701304
   8.7786555  19.1842330  63.7199211   9.4848561  19.6136940  64.2026997
   8.8496709  18.2609928  63.9624453  81.9557381 104.8048687  64.8704243
  82.5703430 104.7088146  65.5979300  82.2238445 105.6144047  64.4356775
  90.2545738 108.1503010  49.4804621  90.6810570 108.6514282  50.1755905
  90.8904839 107.4735546  49.2483807  87.3952103 106.2325954  81.4602470
  87.6461983 107.0696640  81.0696602  88.1852245 105.6951523  81.4030647
  20.4277873   5.3636461  77.9128170  19.5666468   4.9725229  77.7655363
  21.0301328   4.8112360  77.4145651  34.8272228   5.6043971  91.2499619
  35.6269312   5.8808267  91.6974926  34.7366738   6.2177092  90.5206585
  72.2564363 105.0861359  67.4919128  72.5158358 105.8361530  68.0270815
  73.0564547 104.8320198  67.0318842   6.8116057  17.6413977  73.5381222
   6.5883851  17.2612202  72.6884937   6.1035979  17.3624778  74.1187763
 116.2556171   0.2174088  74.9891090 115.5519104  -0.4005033  74.7910595
 115.8406258   0.8866034  75.5333471 100.1815987   9.3210614  47.1755505
 100.7377052   9.8700184  47.7283764  99.4161892   9.1321337  47.7184057
  76.1017323  59.1396379  29.9473333  75.4035091  59.3760729  30.5579185
  76.7596292  58.7070942  30.4916739  82.3623657  42.9244471  44.2687511
  83.0263710  42.2628307  44.4626427  81.8756485  43.0223227  45.0871372
 108.4087753  16.2722647  79.9399853 108.8443279  17.0498800  80.2890396
 107.5880718  16.6015840  79.5736265  88.0039692   3.7328529  73.2977581
  87.0763397   3.8351926  73.5105133  88.3377361   4.6284035  73.2446527
  34.2634225  46.9158459  46.0263777  34.2544246  46.7285538  45.0877190
  35.1768637  47.1266651  46.2198019   3.5494587   8.1797278  65.2298784
   3.7626526   9.1125441  65.2550697   2.8497648   8.1114113  64.5802689
  60.8797216  70.6740379  20.4618168  61.6940641  71.0517502  20.1295233
  60.3591490  70.4996061  19.6777225   7.1941364  12.2771430  42.0392895
   7.3220706  11.3298023  42.0883894   7.9024249  12.6422858  42.5695992
   8.9111984  28.8952637  55.2386189   9.3946344  29.6993303  55.0488853
   9.1602081  28.6720610  56.1355066   5.3432971  20.3273010  45.5602026
   4.6708208  20.7889080  45.0592756   5.7447451  21.0052896  46.1037159
  10.8287287  14.0187073  64.3968773   9.9964935  13.5461569  64.4145393
  10.8163953  14.5552099  65.1894951  82.3471832 105.6619358  59.6897411
  81.4950752 105.2329731  59.7680092  82.1888447 106.4045811  59.1069508
  76.7929745 102.7247047   9.6087056  77.0565939 101.9182110  10.0517583
  77.5806141 103.2686138   9.6126860  86.4666653 104.1965675  65.5792856
  85.5341625 104.2949867  65.7715559  86.5986633 104.6942329  64.7723532
  98.2001305  30.7718801  48.5373783  97.3867416  30.3743649  48.8481998
  98.3670521  30.3485870  47.6952410  26.8186927  48.2141018  45.1379299
  26.4633274  48.5535192  45.9593582  26.0562778  47.8743887  44.6693659
  23.2123399  17.3341668  55.6973362  23.3954692  17.9813290  56.3784218
  23.7502623  16.5786159  55.9340096 103.2774448 105.5749035  85.4123688
 103.0540562 105.2732563  84.5318317 103.4436989 106.5119267  85.3095627
   3.0662754  14.1291606  36.7938638   3.9184406  14.3198001  37.1859121
   3.1769741  13.2702470  36.3861322  66.6742563 101.0428238  39.1527224
  66.8194485 100.1535225  38.8297725  67.5287437 101.3201427  39.4831276
 115.5872250  17.5576341  32.6148844 115.2167225  17.3578906  33.4745741
 115.3773594  16.7921388  32.0799041  38.4012151   2.3163393  31.9650316
  37.8264952   1.5701008  32.1354961  38.4100914   2.3988961  31.0114408
 111.2058544  19.7880709  90.7007504 110.6731129  20.0383544  91.4555836
 110.8651829  20.3187346  89.9806309 115.6631030  11.4277160  54.0857363
 115.7911549  12.0793092  53.3963442 116.2953517  11.6681647  54.7629929
 107.0619869 103.7216473  55.8348751 107.2891712 104.6167469  55.5830526
 107.4197006 103.6229706  56.7172194  90.6656551  41.7557335  10.4716897
  91.3533497  42.3529959  10.1774359  90.3442669  41.3461924   9.6684361
  12.2758317  33.1386685  57.6505232  12.2228158  33.6373544  56.8352079
  11.5687716  33.4892917  58.1921482  15.8413088   5.4538113  11.0995853
  15.1853788   4.8836246  10.6984937  15.3418386   6.0097867  11.6976261
  91.6478920   3.1050217  44.9034548  92.0981503   3.7618440  44.3723392
  90.7276535   3.1834424  44.6519613  30.6604886  18.9224803  42.8104162
  31.3521361  18.7051117  43.4354019  31.0790420  19.5158672  42.1867704
  77.8680849  99.5736694  58.0443192  78.4093332 100.3520775  58.1760740
  78.1347179  98.9755726  58.7424755  17.3987484   8.6032194  58.2353973
  17.1625304   7.7468950  57.8788280  16.9139075   9.2288351  57.6971006
   0.1008568   4.5899212  41.3961554  -0.1835193   3.6759561  41.3908577
   0.5612908   4.7023231  40.5645323  27.9875088  83.0031013   6.1742282
  28.8636613  83.0537987   5.7921082  27.5866032  82.2422314   5.7540131
  97.8205872  88.7752056  32.3692393  97.7781105  88.0065155  31.8004298
  96.9813538  89.2165852  32.2384810  73.0543375 100.4952145  73.7793875
  73.3612728 101.0813713  73.0876923  72.2624063 100.0950432  73.4203053
  81.5398884   5.3956693  58.6896944  80.6829262   5.3633696  59.1149187
  82.1671104   5.3590304  59.4118261  13.5128057   7.7810216  58.2224178
  13.6747575   7.6513648  57.2879696  13.5657299   8.7288082  58.3454275
   5.5777431  42.0200300  44.3871069   5.6344885  41.2343359  44.9308872
   4.7310108  42.4059534  44.6114683  27.4513626   3.1593710  44.1791677
  28.2721496   3.5600758  43.8928556  27.6315475   2.2192842  44.1807604
  85.1091671 105.1625347  56.2530041  85.6452751 105.0266361  55.4717588
  84.3056297 105.5661297  55.9248447  28.0641198  48.6297512  81.4118099
  27.6906466  49.5063353  81.3204098  28.9089084  48.7726402  81.8385983
 107.9170513  38.0924606  53.1790113 108.3747101  37.5608397  53.8302851
 108.0631161  38.9953351  53.4613466  87.2981644  30.1696372  62.7895927
  86.7650223  30.9036398  62.4842501  86.7868042  29.3923402  62.5647449
  38.5948420   1.3097440  79.8605156  39.2202735   2.0282821  79.9541664
  38.7815094   0.9407113  78.9972639  70.1215076  96.7158985  49.3982315
  70.3125095  96.4803219  48.4903479  70.2513742  95.9042168  49.8886824
  33.5304689  50.3483343  28.9467025  33.5160685  49.4137907  28.7401724
  34.3938375  50.4949474  29.3331385  79.8922968   2.6781917  60.9429312
  79.5423794   3.0246574  61.7637539  79.9227953   3.4347206  60.3572989
  33.7257338   2.1266897  59.3938541  33.3236957   1.2886587  59.6225500
  33.8387990   2.5747740  60.2321053  15.4331374  25.0086212  72.1465206
  14.9721324  24.5314717  71.4565706  15.1510835  25.9169888  72.0390654
  82.2698116 102.6467896  -0.1706348  81.3292599 102.5568390  -0.3239457
  82.4400711 102.1036053   0.5989099  87.7944469   8.3363491  75.9260368
  87.9623318   7.5123805  75.4687405  87.7906609   8.0991477  76.8533754
  91.5472317  93.0697536  75.2875328  91.4250374  93.5374165  74.4613409
  91.2681675  92.1737385  75.0991011  12.3974383  26.2549663  65.1801872
  12.5109518  26.6093493  64.2982769  13.1845403  26.5283489  65.6513119
 105.8665562  22.5065017  30.8054709 105.1864719  22.5960350  30.1378679
 106.1894798  21.6116238  30.6999040  59.9958181 103.0150795  34.4394779
  59.5139647 103.5602665  33.8175273  60.7611227 102.7129459  33.9503384
  42.0703650   2.0772350  56.2580872  41.9175434   3.0220714  56.2453270
  43.0228043   1.9881772  56.2240219 102.7759171   5.9139669  42.8607988
 102.3945522   5.0590080  42.6611996 102.1623230   6.3115978  43.4785557
   6.9502437   8.9386016  55.6014585   7.3161536   8.0559170  55.6581068
   6.2435049   8.8642061  54.9601936  94.6591282  12.7542198  49.8858643
  94.2886162  11.8719709  49.9100351  94.4363785  13.1309557  50.7371473
  70.1714277  87.9166603  73.6795092  70.8841705  87.9352665  73.0408525
  69.7038746  88.7402821  73.5406876  24.6307492  16.4680469  62.3749733
  25.5872154  16.4311802  62.3814917  24.3996954  16.8425119  63.2250452
  92.3897839  74.9690962  40.2929020  92.1222019  75.8383083  39.9944091
  92.7130795  75.1104259  41.1826992  92.5060272  25.6175375  45.8657932
  92.9982853  26.1182570  45.2152586  93.1742764  25.1350522  46.3524961
  13.3949482  29.9034548  71.9914818  13.6831832  29.7564793  72.8923416
  13.6323917  30.8126760  71.8093586  96.4841461 107.7351570  18.4686100
  95.9797668 107.9181957  17.6759374  97.1333218 107.0870781  18.1951177
 105.5497456   2.5881124  55.6827974 104.8250771   3.1138226  56.0214901
 105.1836109   2.1376546  54.9217033 112.6578808  30.0778913  22.7501225
 111.7567348  29.7658467  22.6677203 112.6273823  30.9827304  22.4393654
  75.5025530 108.7177563  59.0089560  74.7220612 109.2580605  59.1319847
  75.4001760 108.3449364  58.1333113  97.8890991 101.3983536  55.2996397
  98.5892105 100.7458019  55.3154230  97.1343708 100.9312820  54.9412298
  74.1716576  92.5751209  43.6620235  74.0364122  93.4618664  43.3279228
  74.6526337  92.6982784  44.4803953  18.8644016  25.9269667  82.2798634
  18.8418734  26.7657137  81.8191814  19.4321954  26.0833359  83.0344391
 109.2895031  51.5920925  56.7200661 108.8241291  51.1179066  56.0310030
 110.1601696  51.1948013  56.7381668 100.2310276  16.4531732  73.8566875
  99.9922752  16.2077677  72.9628181  99.3974400  16.4897263  74.3257761
  96.6422653   4.8048899  69.9669361  95.7985592   4.4237456  69.7238111
  97.2860813   4.1442955  69.7113037  69.6237850  96.7765903  37.6330137
  69.6291208  96.3245201  36.7893100  70.5144215  96.6704273  37.9672623
 112.6720524  90.8127117  54.6961355 111.7497349  90.9654522  54.4906425
 113.0878448  91.6671276  54.5806789  88.4260368  10.0794399  61.8662167
  88.9512348  10.0972629  61.0661650  88.9361477  10.5851376  62.4988985
  17.9498732  49.8247862  35.9275031  18.7547731  49.6253061  36.4055991
  17.8743541  49.1220999  35.2819324  54.8970222  97.5662804  61.8471479
  55.1545763  97.1081734  61.0471249  54.8203611  96.8750572  62.5048447
  42.3652649  36.7032504  51.4718056  42.4587440  37.0760512  52.3484516
  41.7638874  35.9675598  51.5872669 116.4282871  30.7287836  53.0002117
 116.8754985  30.0110602  53.4486628 115.8730845  30.2967119  52.3511410
  37.6936698  13.8283718  40.2066898  37.3653817  13.1730771  40.8223581
  38.4393311  13.4049904  39.7812819   3.8581362  41.5024471  54.8938417
   3.4406894  40.7966137  54.4001102   3.4653997  42.3029852  54.5458031
  24.7223234   9.0072650  60.1703310  24.9943900   8.8504684  61.0745573
  25.5387855   9.0048999  59.6707153 113.4139633  33.0679417  59.4051743
 113.9821815  32.5582767  58.8276005 113.9956379  33.7160349  59.8024797
 104.6478176  16.5223134  59.7440004 104.5297813  16.1932969  58.8529062
 105.1760483  15.8527052  60.1785469 104.7434139  14.2980552  17.0873797
 104.6595097  14.1438127  18.0283368 105.4143620  13.6779165  16.8019068
  94.9907398  98.5989761  42.3489761  95.4016876  99.4606113  42.4192286
  95.6001759  98.0854607  41.8187761  29.5243573   6.5081298  61.5636492
  29.3636632   7.4392933  61.7164326  30.4585171   6.3944113  61.7386961
   1.6744038  13.2959449  34.0211773   1.6105042  13.0196702  34.9354100
   1.0843663  12.7067626  33.5511231   6.5998441  61.0572147  66.9310474
   6.5774065  61.7387390  67.6028061   6.0001081  61.3690758  66.2533379
  72.8986883 107.1244335  69.5883846  73.1517076 108.0329514  69.7521639
  73.4689665 106.6102409  70.1598883   2.0065533  11.4997780  73.9506197
   1.0730355  11.4038634  73.7620020   2.0354977  11.9722295  74.7825956
  77.7625942  76.0017395  47.4264669  76.9730043  75.5266380  47.1675110
  77.6961279  76.0758543  48.3784771  76.8115950  12.9627144  68.7589884
  76.8121672  12.3471344  69.4919920  76.8495321  12.4076748  67.9800653
  88.8769245  88.9671898  84.7806931  88.1474018  88.7960243  85.3762913
  88.8376904  89.9097443  84.6185875 109.5526314   1.5626931  27.4473357
 109.9274254   1.8843165  26.6273856 109.4170856   2.3504230  27.9739690
  48.9034033  24.6946001  40.9964800  49.5756340  25.3721857  40.9242487
  49.2193985  23.9833546  40.4392481  91.5025520  24.9412441  52.7359676
  91.1236191  25.0523067  51.8640137  90.8197689  25.2446795  53.3342695
  71.1297083  72.0230246  32.5708628  70.4366684  72.6794291  32.6419640
  70.7177782  71.2078238  32.8572106  14.6570873  21.4758301  59.2939329
  15.4337418  21.9570279  59.0084696  14.4342160  21.8616724  60.1410961
  81.4415741  80.6321049  61.6352940  81.8122292  79.8112774  61.3111162
  81.3822269  81.1907005  60.8602619  71.1346102  83.6748695  54.6154594
  71.0376644  82.8691006  55.1229668  71.3529205  83.3769321  53.7323904
 108.5859013  20.4552078  41.8315840 108.0506992  20.7364821  41.0895061
 109.4264126  20.2133226  41.4426470  94.6812916   6.9935173  51.3558388
  95.5383682   7.4190688  51.3322401  94.3590450   7.0539349  50.4565382
 110.0985527   4.1251698  34.1872001 109.9495411   3.7626007  33.3139467
 110.3678513   3.3739066  34.7157025  30.5930972  13.0066526  38.6965370
  31.1561227  12.4664903  39.2510271  31.1985540  13.5812616  38.2280564
  25.0019050   9.3561351  79.7174644  25.1969266  10.2725470  79.9133968
  24.2890692   9.1299301  80.3149033   2.0636483 101.4516830  57.4716091
   1.3507229 101.9761848  57.8361177   2.6430321 101.2853622  58.2151699
  28.2420325  25.2005196  34.5570493  28.6455226  25.1548481  33.6902475
  28.5293007  24.4006491  34.9974060   8.4955251  18.0916429  69.0786982
   9.2538691  18.6736774  69.0298796   8.0592817  18.3346343  69.8953247
   8.2139075   4.0629199  15.4009664   7.3977524   3.8498268  14.9485123
   7.9451025   4.2659467  16.2969327  35.6186128  67.3350477  12.2960246
  35.9296441  68.2338285  12.1879053  36.0839820  66.8379927  11.6232705
  95.1193142 108.2542896  40.4776239  95.5304241 108.5745907  39.6747351
  94.4436169 108.9026451  40.6758356 100.8788586 105.7120132  25.6714010
 101.4400578 106.2293434  25.0937653 100.7946301 106.2438488  26.4627814
  59.6679497 106.8424225  72.4167776  59.1757536 106.1064720  72.7805710
  59.1780519 107.0946789  71.6340876  11.4059055  40.7497835  12.2583175
  12.0764208  41.3666010  12.5518727  11.6944039  39.9027371  12.5981915
  77.3877048  89.6016502  47.9456949  77.7832413  90.4700756  47.8707218
  77.8625154  89.1834068  48.6639261  21.4590001  35.7922459  32.7493119
  20.6738353  35.4021859  33.1335044  22.1837187  35.2962494  33.1301022
   9.4177687  14.7521329  50.2842760   9.0594786  15.1988745  51.0512733
   9.3457162  13.8209891  50.4940605 104.7680950  14.2038953  29.9504042
 104.8354816  15.1546919  30.0380158 104.5227814  13.8996410  30.8241796
  23.1970930   2.1060210  74.6267891  23.5056210   2.6741385  75.3326845
  22.4849796   2.5976363  74.2175913  18.9840801   0.1888646   9.7802949
  19.2747028  -0.4955779   9.1775483  19.2755897   1.0051812   9.3742388
 114.5616722  29.1723371  47.2377968 114.0756989  28.5253358  47.7491283
 114.3931770  28.9329886  46.3264513  20.8674407   6.1748993  58.3953667
  20.7261419   7.1204805  58.4416485  21.7745590   6.0542542  58.6760998
  11.2072599  32.8800297  32.7360058  11.7731416  33.5261774  33.1585026
  11.6562128  32.0451522  32.8688765  71.2327909  94.5085239  22.8212667
  71.2636948  93.6681843  22.3639941  70.7841873  95.0958538  22.2129655
 112.3131275  22.3732734   9.6603924 112.7183723  23.2143784   9.4493234
 112.8718662  21.7242193   9.2328703  41.6372156  10.7610524  25.7907772
  42.1009588  10.0031805  25.4346871  41.5559435  10.5743730  26.7260742
  23.5328579  23.5731292  13.3937669  24.4575262  23.6849952  13.1730711
  23.1929946  24.4654393  13.4609091  93.0775166 104.3263531  45.6880140
  92.7127838 103.4924889  45.9844446  92.7138042 104.9747276  46.2909746
   3.5399064 103.1510353  55.9155226   4.3371531 102.6347542  56.0342026
   2.8596121 102.6472950  56.3623810  31.0796046   0.9946766  44.9175835
  30.6755614   1.7481571  44.4871759  30.5275130   0.8311384  45.6822300
  10.3175318   0.0389653  23.0840373  10.1892483   0.8635013  22.6150846
  10.4650784   0.3007527  23.9928436   1.7919886   8.2812226  52.1670341
   2.1064046   9.0036875  52.7105618   1.2954317   7.7270210  52.7691364
  82.1294022 105.9405136  55.2109957  81.9285774 106.8476486  55.4412317
  81.4628410 105.4249859  55.6650305   4.8203850  69.9462748  62.4747276
   5.3281802  70.1236343  61.6829443   4.0769517  70.5469131  62.4220324
 111.6205597  20.0977063  42.9527092 111.8288517  19.2602682  42.5385284
 111.4982605  20.7028389  42.2212076  15.0468564  17.0626307  77.2733927
  15.9387445  17.0654857  76.9258881  14.8900640  16.1520100  77.5232315
   1.9454156   5.3505599  22.7462101   1.4151049   5.9229016  22.1917486
   1.3068917   4.8206902  23.2234478   8.4098965  18.3584261  50.0009251
   7.9856658  17.7208805  50.5751991   7.7156293  18.6458921  49.4079733
  46.0616398   0.3715404  64.8301601  45.4247952   0.8837311  65.3284788
  46.4762211   1.0070813  64.2466879  24.2736435  93.7580490  67.6207542
  24.7071862  94.4574261  67.1317339  24.9651122  93.1170940  67.7859354
 108.9370441  99.3509197  83.5095978 109.5558739  99.3342876  82.7795219
 109.4518280  99.0706539  84.2663479  18.2651484  13.0241847  60.7424212
  17.6883495  12.5511515  61.3422298  18.9000463  13.4577382  61.3126564
 113.1036472  35.8328366  54.2235327 113.7834454  36.1590123  54.8132086
 113.4164810  36.0606885  53.3480644 103.3261013 108.9305210  46.5423918
 103.0809307 109.7266293  47.0139122 102.8231716 108.9694786  45.7288980
   0.6579234  26.1391020  58.8210487   1.4515272  25.7783413  59.2163706
   0.7010660  27.0764875  59.0099382  71.2445068 100.2939510  40.0070858
  71.3208866 100.8887196  39.2610025  71.7154312  99.5063686  39.7347331
 115.0683022  32.9351711  51.9126225 115.4590225  32.6819158  52.7489424
 115.4188156  32.3044086  51.2837267  54.8354673  20.1213288  16.2000346
  55.3683424  20.8046269  16.6067040  53.9345646  20.3558087  16.4227939
  19.2979527  35.3087854  44.3937397  19.7070503  35.1970315  45.2518654
  19.9418998  34.9646401  43.7747669  91.2854481 108.7469864  39.5180798
  90.4719925 108.3404160  39.2193699  91.9655609 108.3497620  38.9741230
  89.6515846 105.3626537  23.8560343  89.4419956 106.0598755  23.2345986
  88.8020325 105.0806713  24.1951203  67.3972464  66.1554813  55.1664162
  68.2351685  65.7052422  55.2732038  66.8928814  65.9099865  55.9420347
 100.5443668  93.8483334  18.2371092 100.8072186  94.3711376  17.4795973
 100.0570679  94.4579029  18.7913656   4.7901049   9.4438511  84.7015667
   4.6440598   8.7940806  85.3890991   5.0902396  10.2235365  85.1687336
  22.0579155   0.0454796  40.1428986  21.4450367  -0.6088268  40.4783010
  21.6087158   0.8812703  40.2690172  36.3913441  17.2283304  43.2777357
  37.2192430  16.7551959  43.3611393  35.9998250  16.8861389  42.4740887
   0.8876763   1.1188021   5.9633869   0.8397065   1.9037928   5.4177493
   1.2630902   0.4508835   5.3896415  38.7801194  39.7571230  54.3796921
  39.5653629  40.2737093  54.5606947  38.7031937  39.7645545  53.4256172
 115.2134132  30.1808357  66.6714811 115.5242825  30.3103495  67.5674868
 115.8109760  29.5305657  66.3022852  38.0438328  23.1692624  56.2074041
  38.2978892  22.6352286  56.9600677  38.7766242  23.0870056  55.5970907
  50.5468464  25.5137825  38.2207775  50.2028465  26.2556696  37.7232838
  51.2103033  25.1285434  37.6483703  48.2365799  57.8998423  87.9605293
  48.6983824  57.2647905  88.5079575  48.9055252  58.5415316  87.7218246
 114.1117191  80.3798294  19.9160135 113.9688301  81.3133621  19.7600532
 114.3362904  80.0249195  19.0558743  14.3958163  13.5582566   9.5418513
  15.2121305  13.0609524   9.4913328  14.4444656  14.1734505   8.8101393
  86.5795898  93.9960289  45.4702902  85.6730175  93.9954758  45.1631308
  86.6727352  93.1690693  45.9432554  23.8520837  46.7305040  16.6641390
  24.6160507  46.9855881  17.1813583  23.9094996  45.7767725  16.6064417
   4.3302706  10.9748852  20.3338003   3.4555346  11.1701572  20.6698608
   4.8555896  11.7375898  20.5757761  62.3360014  26.9083810  52.2809076
  63.0815744  26.3899064  52.5834560  61.5908575  26.5679216  52.7759695
 102.1657085  40.9674215  66.7552614 102.8384018  41.3901281  67.2891474
 102.4079800  41.1783600  65.8535719  78.6160135 103.2048416  24.4430995
  78.4499788 104.0307236  24.8976040  78.8370275 103.4639740  23.5485435
   4.3653712 100.7446194  46.3847113   4.4253311 100.8879375  47.3292208
   3.5271662 100.2987480  46.2628460  13.2527089  10.1813185  63.2805824
  12.7383554  10.0084019  62.4920559  14.1166115   9.8170424  63.0876875
  16.0084641  12.7117491  54.7677040  16.1004245  13.3185446  55.5022621
  15.9812474  13.2746625  53.9939976  15.5527103 100.0145149  58.3354044
  16.3260365 100.3670216  57.8950167  14.8132932 100.4150963  57.8782034
  17.1931100   7.8282559  60.7479000  17.8938591   7.1792352  60.8107758
  17.3655641   8.2881016  59.9262953   5.0243676 104.5918941  22.1737742
   5.7753122 104.7469807  22.7467132   5.3387016 103.9522839  21.5347695
  76.3060141  93.2360077  65.1871347  76.8314505  93.6835384  65.8503580
  75.4684258  93.6993027  65.1923990  27.8203225  18.1901240  36.8610787
  28.2331467  17.7713311  36.1058187  28.5365820  18.6454737  37.3036432
   2.1668361  23.4308410  55.4310846   2.9118943  23.9262581  55.7712030
   2.3943880  22.5151682  55.5923176   5.6560820  22.1741986  14.3435395
   4.8881227  21.6107988  14.2484045   5.8133417  22.2074294  15.2871490
  44.5851469  63.8760805  75.9769440  45.1158810  63.0809641  75.9285784
  43.7933064  63.6659765  75.4818916   6.2250268  74.5134783  50.4733658
   6.9336438  73.9413118  50.1788759   6.5023202  75.3917646  50.2126837
  19.3898487  19.1271091  13.9018643  19.3311584  19.6079934  14.7274184
  20.2018356  19.4374454  13.5011160  12.0849669   6.1375308  62.5718641
  11.4518380   6.8314672  62.7557993  12.1867120   6.1522347  61.6201973
  10.0300217  83.0270767  42.8306150  10.4479730  83.5263729  43.5322189
   9.1886955  83.4629345  42.6948547   4.8523489  26.8992186  43.1541634
   3.9548582  27.1315598  42.9159212   5.1926750  26.4398670  42.3864365
  43.2003927  33.6985612  30.6626225  42.4091530  34.1446137  30.3606129
  43.2035446  33.8319397  31.6104794  41.2018490   9.6677893  46.7587471
  40.5220509   9.0213174  46.9489622  40.8421278  10.1896334  46.0414553
  53.3803892  22.6478195  52.3054075  53.3244228  22.0049477  53.0123854
  54.1227913  22.3572397  51.7756605  41.2421751  10.9627318  54.8187733
  42.1881151  11.1008418  54.8673153  40.9409332  11.5952289  54.1665220
   8.6591405  72.8258753  55.5759192   8.5167801  73.7649345  55.4570532
   9.4039905  72.6230192  55.0099850 108.4450626   8.2687008  27.4374819
 107.6579094   8.8092405  27.5040889 108.1149197   7.3804688  27.3022628
 113.9036314 109.6370184  32.1279359 113.6104314 109.6982536  33.0370641
 113.1059472 109.7494277  31.6109276  12.5776124   0.5864276  21.1620951
  11.8226242   0.2016934  20.7168937  12.5097597   1.5240513  20.9818459
  16.7683005 101.0143375  45.8870602  16.3010800 101.1146259  45.0576735
  17.3436809 101.7780018  45.9316874  19.8312926 103.0194187  37.5764132
  19.4148755 102.4158478  36.9611716  19.5750833 103.8890648  37.2693110
  68.0931616  91.2969112  56.3092184  69.0284014  91.4836979  56.3909292
  67.7261257  92.0836544  55.9060383   0.2705298  45.3913116  27.2193885
   0.3260901  45.8752537  26.3954091  -0.5495747  44.9019194  27.1548963
  12.7654445  45.9615374   7.9925382  11.8231320  45.7951212   8.0167049
  12.8385019  46.9013071   7.8260213 108.3055210  37.8820181  62.2895718
 108.2524395  38.1976318  61.3874626 108.8698578  38.5158730  62.7322674
 109.8108482  10.3532922  39.4052434 110.7450199  10.5500114  39.3356395
 109.5595646  10.6860089  40.2668667  49.9251890  22.7805376  64.4402599
  50.1251030  23.3627629  65.1732540  50.0476885  23.3243465  63.6621237
  17.4104714  28.5247397  49.0978098  17.8277707  29.0837407  49.7532558
  16.9396591  29.1334891  48.5286045  39.0371633  18.8699448  34.0840077
  38.5129547  18.3876717  33.4445930  39.7242022  18.2556713  34.3426156
   2.9808608  93.1127453  85.3372002   2.5779381  93.1502628  84.4697475
   3.6511362  92.4336815  85.2607918  77.8995943  80.4949665   9.7834611
  77.5324917  79.7370148   9.3285185  78.8032913  80.2445412   9.9754196
  34.0272212  16.1232030  44.1216660  33.8666582  15.2500045  43.7639284
  34.8140669  16.4265919  43.6688280  25.4693460  41.3041353  31.9283128
  25.1669288  41.0205173  32.7910638  25.6233168  40.4900551  31.4489365
 107.0568275  93.4472275  70.5139160 107.3068619  94.2391777  70.0379753
 106.1890984  93.6438465  70.8669329   8.2705891   4.9044743  25.5928421
   8.9712405   4.8140156  26.2387037   8.6296797   5.4955697  24.9311090
   5.0601053   1.5343049  40.5673504   5.1953465   0.6098048  40.3594017
   4.3349513   1.5356731  41.1921549   4.3282819  23.6849737  45.8427525
   4.3173563  23.6779690  46.7998648   3.7451789  22.9687285  45.5913210
   0.9190349   9.0584624  48.0878973   0.3602260   9.7861326  48.3607721
   1.2477499   9.3185377  47.2273540  31.6266012  87.2064495  94.4317627
  32.0600247  87.9568768  94.8382473  31.8798423  87.2540188  93.5098934
 108.1228924  10.6131041  23.3990622 108.1621361  11.5068054  23.7396359
 108.8328362  10.1542616  23.8481545  12.7922666  30.7182622  59.0621090
  12.0074546  30.8707929  59.5884514  12.8073716  31.4443994  58.4386301
  96.5380859  16.1089969  36.9332361  96.0961723  16.4419913  37.7142978
  95.8505630  16.0671437  36.2685633  13.0329850 109.0420660  71.8984222
  12.5557139 108.5061454  71.2649918  13.2652047 109.8347500  71.4147282
  87.6053238 104.0839767  29.4487572  87.5758743 104.8520470  30.0192308
  88.4494495 104.1495037  29.0022278  18.6983788  44.9313879  55.9891319
  19.3537664  45.4655552  55.5403948  19.1241443  44.0829229  56.1118793
  30.3896761  36.7359924  83.0761528  30.3368115  35.9461093  83.6142254
  31.0799766  37.2583222  83.4846687  30.4399562  13.0982018  87.5397778
  31.1222816  12.4659348  87.3141670  29.6298790  12.5883198  87.5349331
  54.2004395  28.3939958  74.0220165  54.8976994  28.7909102  73.4999847
  54.1761589  28.9148188  74.8247528   3.3583772  17.7865720  15.7438254
   2.5776649  17.5590050  15.2389169   4.0687615  17.7802610  15.1023066
  90.6254578  84.6600723  69.5210028  89.9935436  85.3341770  69.2709970
  90.1880741  84.1675282  70.2155018  21.7837906  19.2512321  67.0016193
  21.1238933  19.2333472  66.3084745  21.6521573  20.0940013  67.4359465
  88.3523846 103.7561131  56.3782930  88.5813141 104.4604588  56.9846916
  87.6453972 104.1195107  55.8450460   8.8778430  96.3629627  16.0744965
   9.0124089  95.4992962  15.6843579   9.5365524  96.4183235  16.7667902
  34.2258501   7.9390562   7.8256166  33.6118126   7.7901053   7.1065879
  33.6932182   8.3296770   8.5184020  30.9840155  50.5246162   7.9745871
  30.6482482  49.6755886   7.6871204  31.0797143  50.4357386   8.9228350
  97.6654434  95.8944702  64.4270706  97.5753593  95.0188828  64.8031998
  97.8621387  96.4576435  65.1756525  86.7221165 103.4321308  39.8939753
  86.6955662 103.1205654  40.7986593  85.8778954 103.1712246  39.5259380
  14.4154453  38.0620718  21.4694071  14.2467415  38.5609365  20.6700897
  14.0772498  38.6157608  22.1731710  56.0947704  15.8238328  72.4495697
  56.4158487  16.7110360  72.6108646  56.8874407  15.2977407  72.3440695
  78.0995274 103.3768654  80.8494186  78.2207680 104.0639400  81.5047455
  77.2526360 103.5742188  80.4493427  30.0109458 103.7846470  60.6767178
  30.8055615 104.1352844  60.2743864  30.1032329 103.9893436  61.6072083
  93.1005573  10.0353384  45.6806946  93.7500572  10.5799139  45.2359200
  93.1707764   9.1816574  45.2534628 107.0974827  98.6136723  20.2704978
 107.7562141  99.0268040  19.7122598 106.7842579  97.8674603  19.7593355
 107.8221226  42.6601648  66.3472652 108.3975124  42.9138088  67.0689487
 107.1217823  42.1583605  66.7643309  84.8369217 102.5819016   7.1858120
  85.0857544 102.6333141   6.2629527  84.2455292 103.3232021   7.3160708
  16.8295658  24.3477845  68.3425236  15.9156048  24.2904186  68.6211205
  17.0675766  25.2632880  68.4889412  28.6745715  29.5340466  36.6236544
  28.7848616  28.6164355  36.8727708  29.1909719  30.0204253  37.2663045
  92.4793816  90.2965927  21.6000938  92.1130371  89.4907665  21.2358570
  91.7614269  90.9280205  21.5546918  74.5595503 106.9505215  18.8573349
  73.7888765 107.3899746  18.4979212  74.4217348 106.0244179  18.6583829
  36.8944573   7.3169780  43.7621403  36.5081620   7.3612797  42.8874731
  37.6851583   6.7896533  43.6483335  15.6241596  21.7545986  70.8420944
  16.0604227  20.9685206  71.1707115  15.5514312  21.6114116  69.8984671
  13.5632515  16.1967707  31.8386221  13.8898885  15.7664168  32.6287723
  13.5207462  17.1243048  32.0712256 116.4594269  17.9332376  43.4488678
 116.3053799  17.3244071  42.7264881 115.8008766  18.6176217  43.3298635
  81.3002872  87.6692581  32.7489877  81.0679531  87.0027733  32.1024179
  81.2697506  87.2098064  33.5881519  10.2390969  14.2577338  55.2818727
  11.1704934  14.2129016  55.4980278  10.0580025  13.4332609  54.8305607
  24.6487045  37.8941083  70.2024460  24.7427177  38.7686038  69.8247528
  25.5300331  37.5222325  70.1677990  26.0210514  27.5905585  49.0919209
  26.1108255  26.7974329  48.5635996  26.9203019  27.8379321  49.3073034
 103.1711102   5.3821951  45.7993984 103.0972672   4.4303021  45.7309961
 102.2931671   5.7056630  45.5973387  46.4111328  38.9280224  33.4655356
  46.1925125  39.7507429  33.9032197  46.5523672  39.1733432  32.5511479
  63.1705284  35.1958323  42.2010040  64.0751076  35.4833245  42.0772266
  62.6462698  35.8475280  41.7355204  20.1735830  34.8229408  38.1188726
  20.4621553  35.5086803  37.5166106  19.5878994  35.2710462  38.7291265
  24.9151587  36.6279602  47.8539610  25.8116078  36.5564466  48.1818199
  24.9192405  36.1319089  47.0353317  20.8811283  28.1459546  40.2441692
  20.9382272  27.7642798  39.3682146  21.1998749  29.0420461  40.1362228
   2.2337691  33.0782223  62.6494455   2.5197801  33.8676906  62.1899128
   1.2780723  33.1081605  62.6049614  71.3353300  16.1518860  47.6938009
  71.5879107  16.3101196  46.7841864  70.9916258  16.9923663  47.9966116
  19.8745441  44.1307878  35.3547359  19.6844947  43.1927109  35.3436184
  20.3975677  44.2598438  36.1459517  24.8577023  10.2064347  53.5408211
  24.1652107  10.6431293  54.0367889  24.6575475  10.4033518  52.6257277
  63.6819458  37.4039626  92.6907349  63.5425901  36.5875936  92.2107792
  64.5527983  37.3092818  93.0765915  31.4511704  16.9832945  40.0670052
  30.5578780  16.9212413  40.4052544  31.7655754  17.8331447  40.3754473
  29.6590734  28.1374454  18.5089898  29.5116091  29.0764761  18.3962536
  29.4420767  27.7570367  17.6578534  90.0977898  83.9186192  88.6873817
  89.2388725  84.2006493  89.0019608  90.1396465  82.9879570  88.9072609
   1.6177715   3.8713488  15.4643548   2.5208080   3.7768537  15.7673848
   1.4343315   3.0547798  14.9998152  36.3177705  37.0754957  63.0212688
  36.1431170  36.1857176  62.7146339  36.6453385  37.5352502  62.2482491
 102.1705723   6.2033564  73.0018377 102.2886753   5.3516763  72.5812149
 101.2258530   6.2738639  73.1388712  86.6081715  99.8718071  48.3079815
  86.7139912 100.4281616  47.5362921  86.4976501 100.4866695  49.0332079
 108.0317020  86.0576534  29.8363376 107.7722073  85.8075237  30.7230878
 108.3811378  86.9438553  29.9300313 113.7118912  79.1873550  46.4235163
 112.8344345  79.2918062  46.0555601 113.7325287  78.2846165  46.7411137
  36.9666481  24.9752522  75.9424973  37.0363092  25.9295177  75.9150171
  37.5064993  24.7171068  76.6895914  44.8021984  15.5924726  37.8555655
  45.0876522  16.4865828  38.0434871  44.6872330  15.5724442  36.9055057
  23.2950068  15.9786439  17.1385753  23.7833261  15.8715463  16.3222992
  23.6134529  15.2737331  17.7024257  34.0344095  19.3895221  55.5794477
  33.5912609  18.5586846  55.4075193  34.9518156  19.2205465  55.3648615
  47.5491333   5.9519982  27.6261163  47.2012186   5.2696341  28.2001948
  47.2558451   6.7719012  28.0235720  32.6930594  24.9071217  23.4235430
  32.1722817  25.5109525  23.9530778  33.5990691  25.0916815  23.6711693
  67.3581314  30.7498646  12.7382505  67.3530769  31.6873932  12.5452530
  68.2709074  30.5537271  12.9494452  25.9711671  38.5694194  30.0506115
  25.3091693  38.0112696  30.4586053  26.7419958  38.4749627  30.6101942
  58.6474371  36.1948609  74.1547632  58.9795113  35.4149389  74.5993757
  57.7618790  35.9557891  73.8811588  48.3639336   3.5066554  68.3123064
  47.4078846   3.5112560  68.2656145  48.5673666   2.8660369  68.9938164
  11.9911575  91.3463116  64.5476198  12.9331601  91.4045143  64.3880081
  11.6136527  92.0423889  64.0098476  29.9464893  26.5864754  26.2972999
  29.5967817  27.4624443  26.4604425  29.1943884  26.0043478  26.4054894
   0.9739508  28.0069304  53.7758398   0.7807153  27.1219015  54.0850544
   1.3061436  27.8828120  52.8867531  22.4042344  15.4820895  60.8825111
  22.0363712  16.1489677  60.3026962  23.1419897  15.9169996  61.3100624
  53.4892941  33.3124113  48.0856895  54.3376637  33.0479693  47.7299166
  53.5376263  33.0851460  49.0142584 108.3935165  12.6992393  25.0536442
 108.0572701  13.5819852  24.8989582 109.2618465  12.8366327  25.4322743
  15.2593136  69.4945621  26.0001826  15.1169252  68.6341286  26.3946629
  16.0674965  69.8119783  26.4030695  16.1636221  50.7005548  79.9874353
  16.9284511  50.9078598  80.5243683  16.5269423  50.4658651  79.1335297
  57.1048355  34.7378087  71.5180874  57.6175165  35.5404377  71.4223099
  57.0727015  34.3674374  70.6360292  12.0116198  35.4462051  44.2028475
  11.3752818  36.1371303  44.3870354  12.7279878  35.6106925  44.8160315
  52.0946169  30.0859451  36.1166310  52.7753782  30.7114029  35.8684421
  51.2733984  30.5265903  35.8983016  48.6491299  30.2647448  79.2126513
  49.3329811  30.5177975  78.5925341  48.8108349  29.3366146  79.3819380
  94.6175861 102.4740219  49.4872379  93.6677456 102.5681400  49.4152308
  94.9559307 102.8212738  48.6619091  43.6225414  15.2054954  64.2461967
  44.5035076  15.2876925  64.6114063  43.7604284  14.8639023  63.3627176
  81.0772800  96.6911697  35.1657271  81.7397022  96.4610100  35.8172393
  81.2418079  96.0943222  34.4357085 114.0573692  56.0156918  17.0081997
 113.8628674  56.3799620  16.1446559 114.4840813  55.1787853  16.8245423
  59.3049192  86.0589600  21.9787717  58.7130117  86.7905998  22.1536255
  60.0345469  86.1912346  22.5840616  96.7070389 102.4012566  38.9679790
  96.5221500 102.0502663  38.0968547  97.5970268 102.7475262  38.9027548
  77.3889542  76.5689564  50.0798798  78.1848860  77.0964193  50.1470327
  76.8407297  76.8692827  50.8047819 115.4774611 109.2069162  26.0748768
 116.1428492 109.7099780  25.6053877 114.6738975 109.7163985  25.9702539
  15.5951440  69.1213417  72.2317839  14.7728336  69.5726347  72.0410728
  15.6400323  69.0990734  73.1876707  84.1349506 106.7731667  65.8690691
  83.6703682 107.5070286  66.2713718  85.0197029 107.1048164  65.7159233
  32.5165868  18.2648194  65.2086830  32.0629001  18.2718623  64.3658590
  33.1783891  18.9519048  65.1301956 109.5404911 100.2448750  93.7510777
 109.6751404  99.3647671  94.1025162 108.5892677 100.3450203  93.7139988
  33.4932017   2.3435466  44.8460865  32.5849605   2.0815714  44.9967432
  33.9322042   1.5386021  44.5711803  29.9600530   3.3545387  43.3117342
  29.5508647   3.2216644  42.4566650  29.9438381   4.3029356  43.4402370
 115.5361843   9.6816349  21.3848114 115.9612370   9.9375349  22.2033954
 114.6006680   9.6924627  21.5871263  10.0486934  35.2974439  67.5718689
  10.9171295  34.8959017  67.5433493   9.6571749  35.0817537  66.7254496
   0.6101292  33.7514997  53.9824438   1.1042881  33.0014300  53.6516380
   0.0964409  33.3983588  54.7088385  60.1838779   9.6530491  55.6480360
  61.1199713   9.8466486  55.5982685  60.1061440   8.7590581  55.3149128
  92.9723358  99.9921703  47.9426527  93.2682896 100.3727722  48.7695694
  93.4861660  99.1898251  47.8507948  15.5792272  62.1640491  47.4112177
  15.8598864  63.0563831  47.2082424  14.7566628  62.0571804  46.9335175
   0.0160519 102.3517323  61.2022686  -0.2663508 103.0386162  60.5983925
   0.9089632 102.1434212  60.9274101  40.9881687   4.3153575  21.4893889
  41.2567616   4.0234485  20.6182528  41.4218903   3.7087846  22.0895457
   2.9397812  35.3347397  40.2116537   3.5068849  35.2333999  40.9760857
   2.5912273  36.2229419  40.2880716  30.3836513  91.1262035  87.6050949
  30.2194333  91.9841766  87.9964256  30.3193998  91.2768459  86.6620064
 107.2523499  33.8592124  41.7142487 106.8435192  33.0084658  41.8733644
 107.7565193  34.0350056  42.5086927  29.7310352  20.2619958  13.1338727
  30.4039478  19.7618961  13.5957384  29.8808265  21.1688328  13.4011614
  23.0206132  53.3584404   6.9408929  22.6727796  53.1519032   6.0733765
  22.3491526  53.0479431   7.5483149  51.4181089  81.7935181   8.6989385
  50.7521248  82.4019909   8.3788466  51.8441391  81.4662743   7.9067016
 114.8995495  30.3910780  43.7570715 115.2892590  31.2045670  43.4367657
 114.1477966  30.2434373  43.1832314   9.5328498  43.3471632  52.1457672
   9.1101569  42.6495647  51.6448498   8.8344425  43.7057972  52.6933479
 110.9865475   5.2292669  52.2430086 111.1164665   6.0759968  52.6700926
 110.4201603   5.4222578  51.4958811  44.3980646  23.9743018  92.4036121
  44.7814560  23.1370902  92.1422291  44.9303150  24.2600775  93.1460857
  20.2064395  24.8859358  27.3953509  20.0661182  23.9516878  27.2413349
  20.2676797  24.9652028  28.3472943  41.5677023   7.3200846  41.9583082
  41.9779062   6.4634264  41.8395615  42.2679949   7.8755647  42.3007536
 112.5926495  24.1302180  47.3507309 113.5320282  24.2232466  47.1921206
 112.5170994  23.3395624  47.8849459  46.1169100  62.9816198   3.5001054
  45.1632404  63.0636549   3.4963343  46.4331675  63.8524342   3.2595000
   8.4820521  12.1152186  44.7025681   7.5995898  12.4234831  44.9086380
   8.5252357  11.2390661  45.0856161  22.5219297 105.5856895  34.0420365
  21.6228414 105.8619595  33.8644314  22.4731636 104.6311951  34.0950108
  50.9545994  27.5729561  51.7596102  51.1776972  26.6422963  51.7413902
  50.7289886  27.7829599  50.8533955  99.3108463  86.1406326  21.5914774
  99.0429020  86.5997314  22.3875093 100.0715446  86.6295242  21.2775612
  14.1979504  42.5109625  36.2617111  14.7134268  43.1306076  36.7780042
  13.5631955  43.0562496  35.7969713  35.6091738  24.2058182  56.5752411
  35.1877522  23.4532475  56.9902992  36.5091014  23.9199448  56.4182758
  58.6591864  38.4346247  57.7265310  59.4002247  37.8990602  58.0098438
  57.9758167  38.2593775  58.3734703   1.4844286  84.6743298  17.3383713
   2.3620042  84.8733807  17.6646674   1.4814639  83.7240505  17.2234440
  97.3604298  16.4559031  63.7596750  96.5069294  16.4765143  63.3268356
  97.6349068  15.5405629  63.7045097  44.4796705  22.8948903  27.5642514
  44.5336342  23.3374453  26.7172194  44.9414539  22.0669794  27.4317694
  27.1987963  44.9715042  42.7969980  26.7120624  45.7775784  42.6250410
  26.5328813  44.3458128  43.0821228   2.7667248 102.6951981  59.7954798
   3.3706945 102.0621872  59.4072151   3.2980600 103.4791946  59.9342871
  28.0329776  65.1798391  45.0177860  27.9900789  65.8230829  45.7253361
  28.8660550  65.3587246  44.5816517   8.1786627  23.6966085  41.7560053
   8.7659091  23.5445046  42.4964333   7.5065011  23.0203819  41.8405581
   9.1652101  33.1805897  15.3105569   8.8548231  32.5026608  15.9108090
   8.4361124  33.7976837  15.2485514   9.3966502  28.8740349  46.2528372
   9.0686375  29.7696662  46.3333702   8.6402792  28.3676839  45.9566259
  53.0357838  25.8662844  69.2272711  52.5058794  26.6543269  69.3473911
  53.3942509  25.6840062  70.0958967  27.5593734   8.8443315  44.2371750
  26.8432212   9.3134451  44.6653032  27.2914314   8.7833798  43.3202648
  14.8110664  36.8176246  58.6801815  15.0266325  37.6388788  58.2382536
  15.5793750  36.2632990  58.5435963  33.5669231  34.9908042  69.3020678
  34.4093919  34.7844434  68.8972282  33.0306506  35.3239322  68.5825729
 101.9421768 102.8365040  27.3452377 101.5009880 102.1327591  26.8694925
 102.2777176 103.4149170  26.6603446  97.5878239 101.4269829  35.7119012
  97.8500557 100.5834675  35.3431869  98.0571556 101.4807796  36.5444040
  65.3707981   8.8199693  39.4520664  64.5475721   8.3384210  39.5335650
  65.2274227   9.4168645  38.7176323  39.4551086  78.1953716  13.1110525
  38.7092066  77.5971365  13.0666482  40.1659107  77.6655579  13.4720075
  15.9839916  51.9220877  17.4951649  16.2105060  50.9954357  17.5741816
  16.0850728  52.1147156  16.5630126  21.8501687  40.9873295  16.3687968
  21.6234136  40.4151678  15.6356919  21.2815118  41.7498970  16.2622559
 111.3401413  11.6128695  52.9557657 110.5451298  11.2578738  53.3534575
 111.8497467  10.8410645  52.7090788   7.1010900  27.7764535  44.3962383
   6.3249999  27.6751280  43.8451958   7.4804503  26.8986964  44.4393969
   4.5996863   4.6302658  55.8535433   4.5692930   5.0490928  54.9933720
   3.8856068   5.0377601  56.3437176  19.7587824   4.5436606  48.7690496
  19.7654593   5.4915136  48.9023256  19.3360984   4.4243488  47.9185581
  44.5490074  46.0485935  46.2101030  44.2532921  46.9564009  46.2784052
  45.0786495  46.0285521  45.4130411   1.6242871  20.2792454  42.4473190
   1.0603303  20.8123755  43.0076361   1.1978476  19.4226015  42.4240255
  12.2500348  21.5650010  67.9491615  13.1038404  21.1390257  67.8730345
  12.0508230  21.8625546  67.0614624  35.4468536  46.6823816  34.3877792
  34.7191906  47.2097969  34.0582752  35.0863504  45.7991076  34.4658732
 102.4342346  27.1550679  63.2381535 102.7897358  27.0764923  64.1234112
 103.1273651  27.5873089  62.7391958   8.2728267  48.6924505  11.7483330
   8.7727302  48.9825916  10.9853482   8.9089477  48.6871052  12.4635625
  46.4934111  11.9464207   2.6543441  46.9131756  12.1348298   1.8149796
  47.1589518  11.4737523   3.1542161  51.5702295  18.6252439  38.4187222
  51.6969109  19.5582163  38.2462549  50.8026218  18.3875883  37.8986001
  35.4815817  26.7045498  42.3604345  35.5633402  26.2219739  43.1830311
  35.0253391  26.1016679  41.7734003  39.0144897  32.7261353  50.6305933
  38.1593657  32.7923107  50.2056026  38.8166165  32.7190804  51.5670919
  50.3183889   9.0964484  59.5901680  49.5003223   9.0940976  59.0931892
  50.1759148   8.4580714  60.2890301  47.9108715  53.6377668  48.4287691
  47.0813465  53.1646061  48.4938908  48.0856228  53.6865759  47.4889231
  33.4195447  28.6169744  80.1713943  33.6989021  29.4983912  80.4189777
  33.6933255  28.5264778  79.2586565  25.9157491  31.2710357  65.6594753
  25.7814813  31.9029808  64.9531841  25.3229523  31.5584230  66.3539028
  43.6074162   1.1909188   8.7098879  43.9177322   0.3602841   9.0704179
  43.4611845   1.0093424   7.7815139 107.7787018  98.0920601  15.2190340
 106.9544697  97.9035091  14.7703445 108.0867481  97.2382355  15.5228949
   4.6842083  20.1047969  73.3393908   5.0531173  19.6603537  74.1026831
   4.5600456  21.0096312  73.6259031  29.1393852   4.8663959  36.1723065
  29.3311787   4.9349353  35.2370262  29.9822927   5.0142390  36.6011167
  32.1838999  30.0733995  44.1289616  32.9319906  29.9248219  44.7073364
  31.6252851  29.3069291  44.2582083   7.0011723 108.1828880  55.4370117
   7.5777513 107.4192333  55.4119730   7.4731702 108.8219738  55.9708881
   3.4971911  98.2357788  72.4372482   2.7175093  97.6923847  72.5514603
   3.3595109  98.9787292  73.0248642  21.7489409  19.3806851  21.2970567
  21.0832739  19.0828216  21.9170523  22.2967744  19.9803281  21.8035531
 107.0574856 104.2869568  47.3524141 107.4335003 103.4148312  47.2330904
 106.2536526 104.2743492  46.8328667  17.4652565 103.0988979  50.4023409
  17.5863373 103.2189560  49.4604492  16.5961730 103.4586334  50.5798769
 115.1229477  27.3912907  66.4198589 115.9883308  27.5836825  66.0588503
 114.5188141  27.5605512  65.6969404  87.2159576  23.4225368  52.1775246
  86.9191647  24.3148851  51.9990444  87.8577805  23.5197902  52.8809738
   2.5823650  95.9088707  -0.0166205   3.2519719  95.8117199   0.6604466
   1.7715448  96.0617447   0.4685930  15.5424595  40.0587749  58.1733513
  15.7077551  40.7123947  57.4938726  14.9801958  40.5070162  58.8051558
  10.1366472  25.3017831  37.5720930  10.4995537  24.4290447  37.7232909
   9.5157605  25.4305196  38.2891417  50.9901476  17.7474892  33.9878178
  51.6725302  18.0419040  33.3845711  50.3612757  17.2873402  33.4319234
  18.8259125  35.5085325  34.8881674  19.0523183  34.6350408  34.5688176
  19.5688641  35.7635880  35.4351592  25.2299380  18.9000046  33.4194255
  25.1068091  18.3834314  32.6230431  24.3418932  19.0780044  33.7291455
 111.2731934  22.7274632  39.6202564 111.9284725  22.4127698  38.9975095
 110.6512356  22.0041871  39.6994495  33.1585979  28.1785798  22.5122166
  32.4112320  28.3671045  21.9446468  32.8097606  27.5870132  23.1789970
  49.0148211  32.4618411  31.3293219  49.1394424  32.8143215  32.2104907
  48.3377695  33.0171776  30.9427524  33.1071830  15.2038121  31.7906570
  34.0191412  14.9261010  31.8769217  32.7823305  14.7256124  31.0277486
  61.3280487  17.0230937  58.4205484  61.2139750  17.5245810  57.6132488
  61.3452721  17.6840603  59.1126871  65.9702258  37.5856042   0.4074634
  65.4835181  38.2121586  -0.1280343  65.3007178  37.1514725   0.9361613
  21.2296700   7.2943878  49.6646118  21.7684746   7.9111493  49.1691017
  21.7924881   7.0093393  50.3844833  12.6885939  45.2013874  27.6540470
  13.1042004  44.5236635  28.1871438  11.8208885  45.3130627  28.0424380
  33.8904476   7.0637941  23.5483909  34.0807986   6.8988109  24.4718504
  33.8808799   6.1949319  23.1468725  40.4922819  13.1488132  39.3943644
  41.0937023  13.2919002  40.1251507  40.5669355  13.9420688  38.8638902
  35.3277755  19.9069619  69.2078400  34.3769646  19.9018717  69.0975523
  35.5706787  18.9814985  69.2351961  87.6409435 106.0903835  60.2744389
  88.0700016 105.2352524  60.2446175  86.7387199 105.9151173  60.0070333
  51.3492537  31.0563302  77.6557827  50.6245470  31.3886738  77.1260881
  51.6955948  31.8301129  78.1002426 101.0689545 101.5960884  73.6647129
 101.0315514 102.5401115  73.8185167 101.8460560 101.3061810  74.1425276
  68.8941097  34.3999815  34.6608019  69.8486090  34.4106889  34.7318316
  68.5945606  34.0705156  35.5081224  50.2785397  17.1313536  49.3100643
  50.8991146  17.7890587  49.6239758  50.0500250  17.4200940  48.4265232
  44.6950674  38.9303255  45.2634048  45.3949308  39.1167688  44.6375751
  44.0734005  38.3915591  44.7740269  48.9990473  16.3425469  18.0281055
  48.3753633  15.6167221  18.0487752  49.8312902  15.9363854  17.7859616
   2.6450238  19.0750241  80.7453537   3.3740112  19.6544588  80.5238533
   2.1213423  19.5769536  81.3699055  35.8757067  43.3482122  42.7142096
  35.3232312  44.1199636  42.5901175  36.7620373  43.6548853  42.5229025
  36.8965793  55.1351690  66.2064505  37.5320530  55.5873203  65.6515026
  36.3556170  55.8357239  66.5708923  85.0557709 100.6268597   9.1556454
  85.1246738  99.9796391   8.4538019  84.9809170 101.4659500   8.7011606
  34.9606133  22.7798843  60.5679989  34.0263319  22.7938557  60.3602648
  35.0171518  22.2825122  61.3838768  28.1299472  39.2775989  80.8969975
  27.9529285  38.9437032  81.7764378  28.9699292  39.7295547  80.9769821
  39.5569921  30.5246496  61.7002821  40.3787518  30.8038259  61.2965488
  39.3065166  29.7386408  61.2148094  25.8959818  53.1013918  29.2140722
  26.6790533  52.5541210  29.2734742  26.0314250  53.7853003  29.8699331
  33.5630965  27.8255272  92.3256779  33.5102677  26.8846989  92.1574974
  34.4219303  28.0811477  91.9890881  22.5088096   7.2281998  42.9000807
  23.0727911   7.9837435  42.7348280  22.4500179   6.7836761  42.0544004
  81.8619823  99.3958855  70.6501436  81.1330509  98.7934685  70.5018377
  82.0909786  99.2725754  71.5713310  11.4316356  16.0530627  35.9167171
  12.0255196  16.7479777  35.6327724  12.0079982  15.3731990  36.2657475
  45.6333971   2.3841490  22.9652071  45.9905577   3.2015178  23.3124447
  45.8144236   1.7355579  23.6454940  45.0835276  27.2988796  31.8063521
  45.5068874  27.4906421  32.6431465  45.8086300  27.1429372  31.2012601
  19.0488732  30.9677529  46.6878939  18.3089709  31.5651560  46.5788746
  18.8286197  30.2118564  46.1435223  49.6308756  21.6867828  78.6013937
  49.1775799  22.4495339  78.2422829  50.4002666  22.0499539  79.0400028
  29.8428035  34.9136519   0.6770947  30.3317881  35.0839806  -0.1279614
  29.2851973  34.1651535   0.4648247  26.2050271  16.5838528  49.7917557
  26.7709208  16.7102730  50.5533409  26.0125971  15.6461978  49.7893524
  20.5756474  39.8467374  51.8517971  21.4820910  40.0687122  52.0646763
  20.2105999  40.6533957  51.4881039  46.3029957  50.7744265  32.8144145
  46.5911388  49.8792076  32.9927111  47.1146441  51.2731361  32.7208948
  39.5919371  29.9563384  41.4671469  39.8543310  29.5083356  40.6629848
  38.7611103  29.5471668  41.7090940  46.7239952  42.1798277  44.3195677
  45.8236694  41.9382000  44.5369768  46.9389629  42.8810644  44.9346209
  49.4011164  70.5872726  17.6548398  49.1555929  71.0775566  18.4394228
  49.5357847  71.2581778  16.9855261  35.2361512  21.7178655  66.9734859
  34.5620179  22.3943901  67.0374107  35.4923272  21.5485883  67.8801012
  48.9040995  19.7904289  64.0972757  48.7488651  19.6915793  63.1579351
  49.2799520  20.6661606  64.1870737  32.5230289  39.1593814  45.3506374
  32.2993660  38.6531639  44.5696449  32.3183775  40.0645542  45.1160908
  38.1187820  31.0676932  18.1775820  37.5057602  30.3824711  17.9112995
  38.8663149  30.5925155  18.5403955  83.1637859  87.8700352  17.4132633
  83.9170265  88.1533432  16.8949974  82.4870586  87.6744747  16.7651725
  52.7688074  35.8603740  38.4812522  52.3479986  35.0850511  38.1097269
  53.6946392  35.6248569  38.5411859 111.5381622 108.3199787  67.9945946
 111.4092636 108.5573101  68.9129019 112.4070930 108.6588669  67.7793217
  86.8641090 103.0072498  59.8267651  87.7731800 102.8157234  60.0573015
  86.3617325 102.2941875  60.2209616  17.1331990  69.4591999   7.1015149
  17.2744870  70.3892088   7.2785705  16.5684116  69.1626263   7.8151608
 114.0311432  38.4957647  88.3372498 114.6748352  37.9186440  87.9263687
 113.6647701  37.9753566  89.0522194  51.4565516  10.9112847   1.8296233
  51.7315769  10.3146696   2.5257862  51.7191505  11.7780674   2.1393980
  18.7084830  96.4721584  73.6598349  17.8647006  96.6956615  73.2670116
  18.4871292  96.1394978  74.5296431  29.9511886  15.0611258  47.8459644
  29.3306589  15.7569802  47.6292515  30.7743096  15.5188715  48.0167627
  34.2644238  31.4087844  35.5017567  33.3231282  31.2437081  35.5560303
  34.4022989  32.1883202  36.0398507 103.5308456  59.0680122   6.9249535
 104.3219376  58.6505270   6.5841961 103.0991936  58.3827591   7.4351931
  46.6204548  16.3826787  57.9039431  47.4480152  15.9419799  57.7111912
  46.0525751  15.6894064  58.2402754  27.0644403   4.4148466  29.8243499
  26.6895127   3.6600000  30.2780747  26.3508153   4.7448587  29.2783999
  72.5941515   6.9978493  68.5954809  72.1537256   6.2887937  68.1269741
  72.2822142   6.9192594  69.4970083  28.7797785  33.4748793  52.6710415
  28.9377427  33.6873722  53.5908937  27.9939318  32.9284978  52.6829767
  34.7396445  33.2104850  37.7293372  35.0486040  32.6194620  38.4159708
  34.9424672  34.0862966  38.0580425  31.6282105   8.8405043  79.9482870
  31.0107899   8.6560929  80.6561089  32.3208833   9.3550360  80.3626442
  40.0001478  41.6289854  52.3163128  40.1420546  41.1803055  51.4827776
  39.0481496  41.6706800  52.4068356  89.2558861 103.0394363  62.5580359
  89.4218731 103.4172440  61.6943598  90.0417900 103.2448387  63.0643797
  85.0159550   1.1283969  44.8720264  85.4883099   1.9456297  44.7131491
  85.2175331   0.9081613  45.7814741  17.4300003  33.5333633  37.5139666
  16.7751789  33.8458943  38.1382775  18.2660019  33.6495209  37.9654551
  17.9398143  60.0269127  41.9537449  17.2489452  59.9759912  41.2931824
  18.5263133  60.7127380  41.6345358   7.0547706  23.0801606  50.4955244
   7.6000500  23.6825204  51.0015535   7.0510429  22.2720146  51.0084772
  49.8604059  11.8609858  41.1400080  50.6691360  11.6192436  41.5913963
  50.1210356  11.9746232  40.2260113  59.4600248  14.4307113  13.2864499
  59.4499826  15.3758299  13.4377170  60.0738907  14.0904856  13.9373279
  30.6888437  22.8206062  14.1947293  30.3037238  22.5956988  15.0416827
  31.6024184  22.5439525  14.2659891  29.5249104  59.6029472  71.8942261
  29.5416427  58.6633825  72.0763445  28.6122727  59.8571968  72.0309114
  32.7394319  47.3545265  36.6033077  32.3149586  47.2936344  37.4590802
  33.2020068  46.5222311  36.5056300 107.3101902   6.2742954  37.8461862
 107.9968452   6.9206458  38.0103946 106.5968132   6.7772704  37.4533272
  55.2272892   1.0673466   4.9569240  54.5480967   0.7610925   4.3559802
  55.9992027   0.5486523   4.7303373  37.7897167  16.1724126  35.1626253
  37.2008514  16.7465043  35.6524062  37.8480959  16.5729630  34.2952251
  29.1024017  13.4700286  43.6443424  29.3523526  12.5573003  43.7881565
  28.8225031  13.5004103  42.7294874  21.5425706  72.6284456  73.0389500
  20.7400346  73.0365038  72.7138996  22.2013831  73.3209038  72.9869699
  24.6482038  47.2472048  52.3423243  23.8292408  47.6012754  51.9956779
  24.5183611  47.2276497  53.2904768  16.0671270  31.0925841  70.1632118
  16.6956329  31.4552617  70.7874537  16.2029111  31.6011739  69.3637562
  72.2932959  30.6913638  21.6001749  73.0200863  30.4988241  22.1925735
  71.9090796  31.4968348  21.9463420  20.1093817   3.7554118  59.1245031
  20.7207847   4.4777784  58.9809608  20.5577445   2.9879537  58.7692404
  17.9137707  36.1587214  41.9650793  18.0650222  35.7859826  42.8336525
  16.9619894  36.1512041  41.8636417  54.4193411  26.9920063  82.8257847
  54.8197031  26.3821316  82.2061157  54.6813822  26.6653752  83.6865234
  21.7656136  99.2291451  31.5908146  22.6524591  98.9358330  31.3817596
  21.2047672  98.4963799  31.3363624  57.9433012  50.4915857  28.4085202
  57.7181673  50.9020519  27.5736165  58.1300211  49.5798826  28.1845427
  19.2743301  50.2996969  39.3843007  19.5596278  50.4505873  38.4831524
  19.2480564  51.1724520  39.7765279  37.1233726  24.8317099  52.3584700
  37.2093606  25.6074953  52.9125404  36.4542651  24.3013239  52.7911568
  57.0577097  31.1352205  10.7414734  57.2635555  31.5990567   9.9298596
  56.4164686  30.4732347  10.4829895  44.1621590  44.9134207  23.5125875
  44.1881514  45.0133562  24.4641995  44.1065598  43.9681625  23.3724570
  21.7476106  13.1228578  59.0820837  21.5157676  12.3681939  59.6233463
  21.9213414  13.8238490  59.7103024  20.6492853  41.0247993  25.8837533
  20.1389289  40.2981710  26.2412143  20.3537941  41.7903137  26.3766074
  10.2347934  99.7025299  42.4417257  10.7617843  98.9076614  42.3598814
   9.9893135  99.9207783  41.5426493   2.7272919  67.9831314  19.5785308
   2.3387021  68.4645987  18.8481736   3.3956778  67.4309635  19.1728187
  34.7417808  24.6979952  34.9929237  33.9670396  24.3393278  34.5600653
  34.4127846  25.4456902  35.4918718  55.0101995  72.7028227  13.9435983
  54.3780851  73.1422901  14.5123994  55.4163074  73.4114075  13.4443820
  24.7968030  45.7855272  39.3591428  24.7975159  45.7482052  38.4026718
  23.9502645  46.1720991  39.5831227  25.0725269  52.5802374  43.9745283
  24.5369935  53.3231926  44.2528248  25.4341745  52.2277546  44.7876692
  31.1132097  18.0961740  56.8029690  30.5643225  18.3834541  57.5326395
  30.7246590  17.2674763  56.5227556  48.2666016  30.8213043  28.7453175
  48.9157248  30.4497194  29.3426418  48.2107544  31.7434478  28.9958453
  77.0148277  33.4962320  51.4110470  76.7340469  33.5613680  52.3238182
  76.6484928  32.6660275  51.1064339  53.7177229   5.5502641  73.9205742
  53.5870838   4.6982488  73.5043573  53.1462717   5.5319470  74.6882534
  43.1992102  56.7054701  61.2666035  42.7082539  56.3193178  61.9919157
  43.9863396  57.0657158  61.6751099  43.7048864  45.8778048  36.3499856
  43.8095617  46.8283463  36.3081956  43.1266451  45.6680489  35.6165910
  33.7814069  47.3631668  50.7265663  34.4608903  48.0233526  50.8632803
  33.0650687  47.6342916  51.3006639  16.0865939  13.1899178  37.7691054
  15.8655727  13.5216999  38.6393356  16.9622779  13.5356486  37.5962520
  63.3370352  37.9205990  58.4335947  62.5658369  37.5211334  58.8359785
  64.0649700  37.6554608  58.9957762  96.9285488   0.4407803  72.0299959
  96.4866638   0.2504338  71.2025070  97.8598881   0.4437551  71.8090200
  86.7329788   6.0868287  51.2853575  86.7281246   6.5446401  52.1259594
  87.3808384   6.5568429  50.7603884  48.0316305  32.1001816  46.3536215
  47.5566769  31.7020631  45.6241322  48.7708902  31.5119505  46.5076065
  43.0657911  19.0051317  71.4734030  43.3232641  19.6491599  72.1330738
  42.9307556  19.5188069  70.6770754  42.7071071  61.3989900  -0.1601636
  43.5834071  61.3897632   0.2248634  42.2933295  60.6002478   0.1669944
  30.2164745  20.0685191  53.2359409  30.2091861  19.1742301  53.5771513
  29.6627021  20.0318289  52.4560547  68.8199091  18.5557175  77.1818590
  69.2591333  19.2386413  76.6749811  68.4798908  17.9499304  76.5233469
  33.0923343  51.2656355  72.1762276  33.4721899  51.3777685  71.3048077
  32.4589419  50.5555964  72.0718527  39.6934628  54.2097521  40.9069490
  40.0863981  55.0732899  41.0339594  39.2243361  54.2800093  40.0755548
  14.9140346  69.3003988  40.9309769  14.7962248  69.0355778  41.8432379
  15.8619738  69.2886496  40.7986689  29.6977544  39.2206526  89.7725391
  29.7768140  38.6541796  90.5400562  30.3613162  38.8943958  89.1646862
  77.2984362  47.0653534  49.7489595  76.4348316  47.3191023  49.4233274
  77.1578932  46.8733406  50.6761122  28.8190079  21.8736458  10.4631388
  29.4152331  21.1302400  10.5531287  29.0472865  22.4531102  11.1900091
  38.6173487  27.7661061  72.6621056  38.1807518  28.6121535  72.7611923
  38.1992030  27.2030520  73.3135319  63.8177633  22.2691989  35.4707003
  63.1372070  22.0645213  36.1119342  63.4717464  23.0178666  34.9849033
  38.4640789  54.7256804  38.4667301  37.9935026  54.1252851  37.8885365
  37.7834392  55.2943802  38.8266563   5.6742007  15.3271115  75.0735760
   5.4065663  15.7541668  75.8873463   6.4394033  14.8060822  75.3169346
  67.4113369  19.7079885  83.5707092  67.8353786  19.4030821  82.7685547
  66.9567680  20.5095100  83.3115482  16.5000296  34.0957832  61.4396572
  16.1776805  34.9964046  61.4049673  15.7087445  33.5602069  61.4967632
  30.5530787  33.2812786  40.7737064  29.9900961  32.7503133  41.3370514
  31.3559294  33.4002066  41.2811708  47.1200275  57.1246862  39.4338989
  47.0261335  58.0660963  39.2884231  46.4676666  56.9195890  40.1036692
  38.9903092  37.3696017  73.9191580  38.9378524  37.6021957  74.8461866
  38.2150102  37.7714396  73.5271549 111.6277790  22.9616117  34.2725968
 111.7707157  23.6968923  34.8685551 112.4624825  22.4931669  34.2656589
  43.4384060  54.8314238  43.3904791  44.2701912  54.5064974  43.7351322
  42.8306103  54.7619963  44.1266823  12.2099459  39.8866391  51.1520958
  12.0325136  38.9648366  50.9649420  11.3976645  40.2131033  51.5392065
  65.6847000  51.6818237  25.7315922  65.1886511  51.9209385  24.9486566
  65.7388496  52.4924803  26.2376928  41.0478115  24.5879960  64.8520041
  40.6549358  25.3792000  64.4833899  40.7568026  24.5785499  65.7638454
  55.3730917   8.7998021  65.5523205  55.0068903   8.0903190  65.0243425
  55.1011848   8.5971624  66.4474392   3.4115836 105.8640194  56.7543507
   3.2739836 104.9652767  56.4550829   2.5496858 106.2744331  56.6841793
  41.8633747  22.5317311  40.7080078  41.9774055  21.8265295  41.3451242
  42.1863556  22.1653318  39.8848057  37.6819539  47.5677299  35.7059884
  36.9706440  47.3231316  35.1140070  37.3067665  48.2506943  36.2618876
  33.5593438  32.8048038  45.2673578  34.4390225  32.9874039  45.5975866
  33.0753279  32.4959421  46.0332298  43.8267946  38.9353704  40.1397896
  42.8817415  38.8219929  40.0385189  43.9200163  39.4860601  40.9171438
  15.6818378  28.6793828  16.6326356  14.7300184  28.5789824  16.6464579
  15.9878111  27.9822826  16.0524094  89.2614269  20.9043622  43.3445358
  88.6724949  20.6027508  42.6528502  88.7425709  20.8390069  44.1462564
  48.1333160  51.5514946  53.7152529  47.8706026  51.9953442  52.9088974
  48.1450462  52.2433901  54.3765926 108.9817142  96.9440079  62.0798874
 108.3883476  96.4576530  61.5075159 109.8318005  96.8925190  61.6429186
  41.6692114  48.3367777  56.5080214  41.2411499  49.1696262  56.3096285
  42.4361610  48.3193254  55.9355545  38.9964581   1.5408632  12.3046255
  38.0607581   1.4201394  12.1429980  39.0591145   1.6915038  13.2478189
  85.0578403  44.8980904  22.1044803  84.3830490  45.5450535  21.8987560
  85.0527763  44.8422956  23.0600405  61.7557764  36.1163735   6.8890709
  61.2949562  35.9714723   7.7154368  61.6166973  37.0436668   6.6966808
  38.7495589  22.3893380  41.0732412  38.7140274  23.3449221  41.0305166
  38.9088988  22.1149707  40.1701546  63.4212160  55.7274055  26.1026692
  63.2064009  56.4761400  25.5463600  63.0900717  55.9689045  26.9676852
  75.3884506  25.8540511  22.8828430  75.9991932  26.5295339  23.1777167
  75.1384640  26.1261415  21.9998336  40.0592852  36.9238091  26.1946201
  39.8365808  35.9933090  26.2229753  39.6584892  37.2901416  26.9829082
  35.8880091  45.4357481  84.3377972  36.7583179  45.4883051  84.7327995
  35.6947923  46.3323116  84.0638161  24.0948915  42.4395609  50.4166985
  24.2498326  43.2882023  50.0019217  24.4579840  41.8024397  49.8015022
  23.4309244  63.5247564  17.6414299  23.8499284  63.8696432  18.4299231
  23.4981632  62.5741100  17.7307534  36.3598037  39.3574786   3.1370798
  36.6766572  38.4653306   3.2781655  36.9592476  39.7246075   2.4873751
  10.9418690  44.3479872  17.1883690  11.3915598  44.1076136  17.9984498
  11.2321663  45.2424192  17.0096135   9.8882502  40.3881407  88.6371136
   9.3916029  40.8516836  87.9627991   9.3477517  40.4590321  89.4239235
  40.2296782  43.8600874  27.1037555  39.9365401  44.4975471  26.4526439
  40.4196548  43.0704212  26.5972304  36.0397100  17.5288951  71.2659979
  36.7896438  18.1235278  71.2816715  36.2848902  16.8185067  71.8588448
  60.2322340  41.8278170  22.2390723  61.0075235  41.6076422  21.7226672
  60.3777504  41.4010859  23.0834389  40.1128435  40.6356478  18.6605048
  39.1635656  40.5904531  18.7748075  40.3867865  39.7230530  18.5690677
 109.1165257   5.6625891   8.1419414 109.9108887   6.0325116   8.5271549
 109.4346905   5.0541800   7.4749732 116.1196709  64.5094824  82.3542213
 115.6908703  65.3375959  82.5700665 115.6609917  64.1985655  81.5737247
  28.5170197  19.4858110  51.0218096  27.9206347  19.8117304  51.6958523
  28.5741234  18.5447454  51.1872339  17.5703979  43.0025673  51.6220284
  17.5768220  43.9044380  51.9426775  16.9419789  42.5521898  52.1863747
  57.9733801  18.9123714  41.8027687  58.1385326  19.8549211  41.7791796
  57.2214317  18.8155127  42.3870802  35.6253552  26.3386226  45.0280094
  35.4445481  27.2422338  45.2869081  36.0733032  25.9580803  45.7835007
  47.2899103  31.7392635  57.4650908  47.7422142  31.5390325  58.2845783
  46.4111280  31.3783383  57.5821733  40.6014919  19.6552849  39.7713614
  40.3273249  19.6462977  40.6884098  40.5543852  18.7390685  39.4983006
  17.5128567  60.1544619  47.8081369  16.7019558  60.6536865  47.9053259
  17.2742581  59.2601633  48.0521345  11.0625732  45.8171511  33.1035542
  11.2285972  46.0343075  32.1862149  10.4184389  45.1099300  33.0694771
  44.7167015  34.2037940  65.0383472  44.3208027  34.8378038  65.6362867
  45.0260925  34.7304392  64.3013620  51.6909933  14.6096230  49.6018839
  50.9561110  14.9127531  50.1350737  51.8069983  15.2939475  48.9427376
  16.1715662  28.0706930  32.1430469  15.5560052  28.0853844  31.4101744
  16.6570687  28.8918853  32.0645452  33.8941526  44.7358704  77.0077324
  34.2097783  43.9200830  76.6190100  32.9755211  44.5632124  77.2139740
  53.3580112  43.9176702  25.1167655  53.9528179  44.6304989  25.3498292
  53.7251091  43.5530329  24.3114638  41.1333370  39.8188305  42.5778437
  40.5526829  40.3647900  43.1079340  40.7464695  39.8373556  41.7025042
   9.7539937  62.7791023  52.2426271   9.3076944  63.4766006  51.7624712
   9.5155907  61.9774151  51.7771244  14.6744359  34.3800664  48.9756441
  14.8065376  33.7837887  48.2386017  13.9975429  33.9593244  49.5057631
  39.7353888  51.8628025  57.2746468  39.0058804  51.2447309  57.2294855
  40.2333164  51.7046261  56.4726019  29.4256258  35.3982925  50.8077240
  30.1034498  35.9191704  51.2383938  28.9172745  35.0245333  51.5275288
  26.3811231  37.8471398  73.9970303  26.8461967  37.2888398  73.3739424
  25.9497237  37.2340989  74.5922709  47.7241516  59.7795296  39.8291731
  47.4265671  60.6719303  40.0060844  48.4059334  59.6205664  40.4819679
  16.1900520  31.9515491  41.1500359  17.1463847  31.9234276  41.1795187
  15.9457850  32.5432849  41.8616676  73.0885696  35.3455353  31.9790483
  73.3800507  34.5452619  32.4158907  72.1986294  35.1483750  31.6868639
  97.0688248  39.8031402  34.5133257  96.5164661  40.5847788  34.5003629
  96.9954205  39.4728136  35.4087186  67.6771450  36.2989450  32.8279686
  68.4213257  36.1679959  32.2403669  67.9591465  35.9188795  33.6599851
  22.3848128  21.3710904   8.1751400  23.2047844  21.6480350   7.7662665
  22.1734738  22.0747733   8.7886536 101.3749981 102.3603344  51.2215042
 101.1121750 101.4826584  50.9443045 100.6659985 102.6530075  51.7941236
  63.0349207  19.9950635  29.1952562  62.7576923  19.6446323  28.3487511
  62.6805544  19.3795323  29.8369575  38.3199358  51.3865471  79.1280651
  38.8939357  50.7136202  79.4940186  37.6119256  50.8961630  78.7103653
  33.7010670  49.7357368  35.9675622  33.5276890  48.8243818  36.2033653
  32.9535866  50.2201796  36.3180208  86.8789101  36.8797350  49.5716476
  87.1167183  37.7944827  49.7230387  87.3713684  36.3918447  50.2317095
  12.0381808  51.7049503  50.3947830  12.0487392  52.4934340  50.9373856
  12.3824286  51.9916821  49.5489073  43.0669880  47.9198027  41.6011810
  42.4648619  47.7164173  40.8854198  42.6906109  48.6950350  42.0178175
  23.6495972  53.4869814  22.9591942  24.4158792  52.9302406  22.8210449
  22.9713297  53.1031179  22.4034619  63.7508154  37.6239014  52.1396828
  63.4115887  36.7290115  52.1578026  64.5179367  37.6008773  52.7117157
  21.6706276  19.1791499  50.4899693  21.3265920  19.4695520  49.6452570
  22.5597715  18.8817906  50.2970123  64.7132015  32.4381447  62.7090454
  65.3679657  31.7756653  62.4885130  63.8966846  32.0994210  62.3418999
  42.6059866  41.1900234  64.8907423  42.5091410  41.3132095  63.9464569
  41.7219687  40.9891796  65.1979971  34.5327163   4.3016136  61.7741680
  35.1875901   4.4517526  61.0923815  35.0232506   3.9054918  62.4943733
  64.6314621  17.5598991  36.6781735  63.8323784  18.0706191  36.8080091
  65.2191162  17.8534675  37.3743892  13.4821975  95.3075790  38.1046963
  12.9126608  95.8216953  37.5323844  13.9584124  95.9603882  38.6178112
  24.2225361  29.3192434  35.4426908  23.8744283  28.5910535  34.9281096
  25.1618361  29.3152165  35.2584934  18.1912601  67.5775814  29.4756961
  17.3612833  67.1021128  29.4396448  18.6742306  67.1624994  30.1903152
  32.2940302  40.8339071  62.9051590  33.1135631  41.0603571  62.4654722
  32.1038723  39.9424362  62.6130056  25.5443215  80.5573082  73.1600285
  25.5202508  80.9905720  74.0132189  25.0363326  81.1305046  72.5859022
  35.8189154  20.8258247  28.6289430  35.0239682  21.3589191  28.6390519
  36.5236735  21.4499855  28.4558249  54.9114990  29.0935230  57.1233130
  55.0510788  28.1954122  57.4235582  55.7860518  29.4082141  56.8944979
  15.9717572  28.6901498  42.5022936  16.3906050  28.8663578  41.6598272
  16.4800167  27.9705739  42.8766060  93.4690475 106.0876083   7.7372789
  93.7384987 106.5194035   8.5479468  92.7176094 105.5512047   7.9899478
  47.4444294  37.7172732  55.2861309  46.8964815  37.2427177  54.6610022
  47.0525599  37.5293875  56.1389875 108.1234074  55.1492643  58.1465578
 108.0183601  54.8407507  59.0465641 107.7377415  56.0253334  58.1471205
  43.5392141  49.4254875  51.4873075  43.3422136  48.4993792  51.6278315
  42.6893473  49.8260450  51.3042355  35.8620024  21.5001607  51.0207605
  35.4828000  22.0027947  51.7417288  36.7611766  21.3246226  51.2980795
  63.0017233  22.0943213  53.4614611  62.0692444  21.8814945  53.4238529
  63.3566380  21.7622232  52.6368523  52.9971361  30.1600170  19.4165397
  53.6360550  29.8028517  20.0333452  52.7432013  29.4126248  18.8751054
  11.9422805  53.3937693   6.6685343  12.5254524  53.5139799   7.4179947
  12.5216734  53.1281757   5.9543943  58.8311243  28.9539194  53.1577921
  59.3013096  29.2181396  53.9485788  58.6217070  29.7774911  52.7172184
  72.5429249  28.6686993  29.7698498  72.1585655  29.4970441  29.4828892
  72.5474834  28.1218863  28.9842248  49.6078014  22.3992968  39.6758866
  48.9923239  21.9071150  40.2191877  49.3246222  22.2278023  38.7777591
  26.0829878  22.0996237  10.1125836  27.0316744  22.0989633   9.9852002
  25.9229636  22.8245568  10.7168150  26.0833907  11.1013722  48.5208845
  26.8275094  11.6949940  48.6215401  25.3656530  11.6641259  48.2303810
  59.7923136  45.9972191  30.1484847  60.6635523  46.1440420  29.7802186
  59.9182844  46.0625887  31.0951066  41.4404535  38.6864257  58.5286903
  41.2929153  39.1941881  59.3265915  40.6117010  38.2320213  58.3772898
  60.4088354  34.8951817  39.3256235  60.7259464  35.5977726  39.8931074
  60.9381628  34.1350436  39.5669556  42.1645021  45.0873089  31.0192728
  42.0530462  46.0333395  31.1132693  43.1071901  44.9471760  31.1083627
  25.7899547  56.2735653  19.8838425  25.0020242  55.9159040  20.2930784
  26.3394880  55.5086422  19.7131598  26.9700789  45.9972620  48.9845181
  27.4882674  45.7081604  49.7356081  27.6146960  46.1515808  48.2939482
  48.6837816   0.4784466  68.6763287  48.7010145  -0.0507415  69.4737577
  47.7576256   0.5235197  68.4387589  49.5421791  13.7649536  66.1814451
  49.1074991  14.2010415  65.4485655  48.8359594  13.5712135  66.7978477
  46.4010143  39.9823833  54.1836452  46.9594002  39.3664908  54.6581078
  46.4009953  39.6602297  53.2822847   4.5114633   7.6272607  35.0346375
   4.5636046   8.0189961  34.1628265   4.3024483   6.7074609  34.8718095
  51.2062550  48.8084078  59.7371531  51.2092257  48.4791517  58.8383675
  52.1267748  48.9862967  59.9301100  50.3644276  41.9418621  39.8377252
  50.0167179  41.7938900  40.7171774  51.2363386  41.5472841  39.8553729
  20.5850697  25.5329728  57.1047449  21.0873938  26.3414335  57.0033026
  20.7666016  25.0364757  56.3067675  38.7381482  26.3920116  57.0013857
  38.2654905  25.5606651  56.9603109  39.6622181  26.1423635  57.0022678
  41.0618019  23.8222051  78.4837627  41.7059851  23.4093332  79.0589094
  41.4442968  23.7554860  77.6088476  51.7270899  58.5128736  37.8793168
  51.1299896  57.8466988  37.5388670  51.8771076  58.2574034  38.7895155
  47.4934101  49.8071432  70.2169371  47.7259302  50.5682850  69.6851158
  46.6107512  49.5743418  69.9289274  39.7411323  16.7166531  55.0023890
  38.9375114  16.5858829  55.5057049  40.3225470  16.0138261  55.2926016
  37.4118519  40.1158285  47.5127983  36.9371700  40.1200867  46.6815996
  38.2676911  39.7448611  47.2979641  46.4029455  27.3946786  29.0558171
  46.7066002  27.9789829  28.3611131  45.4492855  27.4745011  29.0361238
  93.5342121 104.8302174  11.9945133  92.9947853 104.0578651  11.8250489
  92.9097939 105.5546761  12.0332062  42.8909636  32.0241094  53.7808704
  42.0112944  32.0226765  54.1582441  43.4490538  32.3735595  54.4755983
  25.1737428  25.4532337  33.6468029  25.7985377  25.0445724  33.0477548
  24.5140839  25.8448577  33.0743384  33.4802318  33.5889053  32.4981689
  33.8571477  32.7092505  32.4788308  34.2197156  34.1702843  32.3209906
  32.7369976  21.3250446  53.0464268  32.6870418  22.2745061  53.1571341
  31.8285203  21.0290790  53.1039286  30.5186629  17.1428645  53.1924105
  30.8140779  16.2528741  53.3844471  30.2674937  17.1178603  52.2690868
  25.4488015  53.3615017  48.6286068  25.5562115  52.9750824  49.4977283
  25.6858301  54.2816067  48.7446165  88.7198830  25.0511861  54.1823530
  88.5372543  24.4305801  54.8878527  88.7687778  25.9018970  54.6183968
  42.5761318  44.0940475  43.2033157  42.1584940  44.4650888  43.9805794
  42.0980072  44.4778442  42.4682426  17.1024370  17.5699329  64.7247362
  16.7140424  17.1982801  65.5167294  17.4522221  16.8144953  64.2523003
   0.4243336  31.4864016  32.4526215   0.5528031  31.2108278  31.5449953
  -0.3856029  31.9962502  32.4357772  78.4260082  29.8087645  51.1007547
  77.5748920  30.1096201  51.4190626  78.3773279  29.9142504  50.1506329
  57.7061081  30.2845788  30.9968758  57.0333338  30.0845218  30.3460431
  57.5216246  31.1853552  31.2629557  32.4605799  47.3679447  29.6663475
  31.9679284  46.5579510  29.7983980  33.3755255  47.1143150  29.7879124
  35.6832480  18.1712019  61.5323448  34.9134755  17.6035559  61.4940929
  36.0378766  18.1540775  60.6434250  35.2881312  35.8712554  42.8194857
  35.2115250  35.7057095  43.7591457  36.1861181  36.1817002  42.7034092
  36.0275316  15.9971797   2.8024095  36.6860414  16.0110486   3.4969628
  35.6463099  16.8750823   2.8162342  46.4808464  24.3669796  42.3992968
  47.3707008  24.4479609  42.0560312  45.9312725  24.7966480  41.7438745
 102.6858616   8.8439578  55.4793787 102.4868107   7.9095429  55.5383730
 102.7013969   9.0266883  54.5399094   7.6490134  41.0781813  40.1749754
   8.3406520  40.4213238  40.2550077   8.1110126  41.8866587  39.9532700
  63.4007788  28.6376834  41.7939234  63.7896872  27.9850936  42.3762512
  62.4908161  28.7048459  42.0832157  53.2232332   9.8495585  44.0093851
  52.6976633   9.1877091  44.4587898  53.7871933   9.3482220  43.4204483
  19.6120274  11.8347621  28.3051109  18.8755143  12.2965813  27.9044819
  20.0845075  11.4509988  27.5663829  36.2873960  18.4309185  29.9091506
  35.6411171  18.6797905  30.5699229  36.4376593  19.2321062  29.4074011
  55.6585026  34.0586758  42.5156927  55.6577682  33.2410955  43.0134773
  56.5120554  34.4506502  42.7001858  69.1888666  28.6221313  49.9728060
  69.6243095  29.4504786  49.7716570  68.4050941  28.8757396  50.4602671
  25.9377050  43.0725622  27.3730016  25.7155395  43.5690260  28.1606531
  25.0958896  42.7600384  27.0414758  51.5746880  23.6310792  89.9882698
  51.7954206  24.2719412  89.3123913  52.4076891  23.4420061  90.4202366
  50.6518078  27.0307112  63.7385988  50.4454041  27.6749706  64.4157696
  51.2249756  26.4001727  64.1746378  24.0050673   9.7067505  66.9067860
  23.3585501   9.2166924  67.4148130  23.5912490   9.8357916  66.0533619
  54.4092274  49.5020390  22.9948831  54.8757219  48.6662960  22.9826355
  53.8841629  49.4950104  22.1945763  53.3302736  57.9111719  47.5701809
  52.8796291  57.8389406  48.4115696  53.0053139  57.1693373  47.0599699
  32.0661449  17.0303011  47.5544167  32.2196054  17.8751564  47.9773808
  31.5559602  17.2428656  46.7729044  50.7302523 100.0607967  43.8249254
  50.9194183  99.6474838  42.9825401  51.3223791  99.6300316  44.4414091
  35.1666141  40.0114346  51.1262751  35.3567910  40.8271790  51.5895510
  34.6380234  39.5038891  51.7420864  31.0798502  31.7176890  74.2409801
  31.6210604  32.4462414  73.9367867  30.9792423  31.1566615  73.4719801
  77.6610088  46.9718599  12.8964210  78.3295965  47.5517654  12.5318229
  77.3058939  47.4550343  13.6425221  70.5768585  53.7241411  16.7631733
  71.2435532  54.4093990  16.8098068  71.0467243  52.9179335  16.9764555
  41.8461895  53.6213160  18.1125486  41.0746193  54.1623497  17.9446399
  41.5048552  52.8526068  18.5695076  43.8667488  43.5419416  71.4934778
  43.2272339  42.8418112  71.3628292  44.5113277  43.4103727  70.7981777
  14.0996385  46.2633467  50.8364153  13.1955934  46.4788723  50.6073284
  14.4075477  45.7200718  50.1109695  94.3537331  36.6614938  50.0680780
  93.5910225  36.8349290  50.6198215  94.5955372  37.5186801  49.7173691
  20.0067544  27.3574042  29.3173337  20.1577544  26.9651103  30.1772952
  20.1088786  28.2980943  29.4619274   0.6493482  64.9691868  70.0034332
  -0.0324711  65.4066563  69.4935560   0.3355792  64.0701866  70.1013136
  11.3251483  65.8710623  45.2352858  11.1446095  66.7211199  44.8339891
  10.4958534  65.6161213  45.6396484  42.9872513  26.6085458  65.1669407
  42.4827099  25.8370399  64.9091673  43.3109999  26.9697046  64.3417215
  47.2919464  57.8550434  43.2161379  46.6975451  58.6023712  43.2826757
  48.1292439  58.2375860  42.9537868  35.8416104  38.3144259  35.4460549
  35.3026295  39.0763354  35.2333975  35.2479959  37.5687981  35.3572178
  35.8776808  34.6210384  61.8605280  35.1671505  34.1744900  61.4001274
  36.5679669  34.7131610  61.2038326  48.1431198  56.9800234  34.8255754
  48.9963484  56.9443512  35.2579689  48.2337523  56.4010286  34.0687513
  35.3818059  40.2005816  68.2325077  34.5251441  40.0411463  67.8363466
  35.7442141  39.3268633  68.3791637  78.0571651  44.3446827  13.2018423
  77.1176720  44.2085791  13.0790997  78.1485462  45.2898884  13.3221102
  55.2527571  62.3694706  20.5282044  54.5991468  61.9113541  21.0565543
  55.3849411  63.2027483  20.9803200  34.2664528  44.4369030  53.3484459
  34.8220992  44.3850279  54.1261339  33.5660481  45.0412035  53.5943842
  47.7953339  62.5234461  32.5534606  47.9125214  63.1543636  33.2637024
  47.7522755  61.6739178  32.9924154  71.0091877  56.8396044  22.6528120
  70.7316542  57.7486658  22.7660298  71.9422388  56.8456650  22.8663921
  51.7829037  59.9096394  24.0343451  51.8567705  59.0243483  24.3907595
  52.3707199  60.4358673  24.5763659  22.5439644  27.5095439  58.3107090
  23.4173846  27.8448248  58.5130787  22.2681546  27.0615792  59.1103935
  35.6780386  43.4154463  31.4392614  36.1010265  42.9110527  30.7443500
  35.8439231  42.9114676  32.2359538  89.0637970  67.0534849  45.0201368
  88.7055397  66.4712954  44.3501043  89.9514771  67.2474718  44.7191143
  12.9493058  23.5829329  52.8090572  12.5069010  23.9491725  52.0433044
  13.4253812  24.3223333  53.1870365  46.8086100  50.1318789   7.8295618
  46.2303782  50.8191490   8.1605333  46.3162041  49.3214035   7.9595655
  61.4129782  70.8046246  16.1922145  60.7274866  70.7992935  15.5241573
  61.0510349  71.3343859  16.9025540  24.5918608  32.8180385  32.8409863
  24.7856975  33.4711528  32.1686029  23.6360145  32.7712083  32.8609109
  50.2688789  52.9267740  56.9367933  49.5950985  53.1252050  56.2865019
  50.2049017  51.9806194  57.0669222  41.4792109  27.7432299  56.5293407
  41.1493063  26.8656039  56.3365459  41.1831617  28.2776213  55.7924461
  19.8209620  61.6108322  30.8097863  20.0718093  61.6342545  29.8863363
  20.5998135  61.2857342  31.2613750  18.5041022  36.6717386  24.5501614
  19.1431057  35.9772301  24.3902755  17.6849663  36.3308764  24.1909075
  20.1383638  31.6455388  52.9650640  19.9057758  31.3130713  53.8320112
  20.5288649  32.5029397  53.1341887  71.3483238  66.9273376   9.6650523
  71.3833761  67.2255754  10.5739295  70.4298592  66.6979742   9.5234895
  21.3837838  36.5843010  27.9288673  21.6922450  35.6849718  27.8180051
  21.2467384  36.6759872  28.8717580  43.6508799  56.2585545  38.5565710
  43.1678963  56.9935513  38.9343762  44.5529413  56.3891220  38.8489270
  30.5061173  66.8417072  16.6590106  29.9182701  66.7372656  17.4071801
  30.4272032  67.7650881  16.4194763  50.9511423  34.5840597  24.4036198
  51.0768270  34.3890977  23.4749508  51.4194059  33.8853621  24.8605466
  47.1638823  43.9260864  46.2086439  46.5238619  44.6236706  46.3499880
  47.7757168  44.2885971  45.5679607  44.6290064  19.7488499  55.2165461
  44.9470329  19.3782079  56.0397816  44.2161274  20.5745983  55.4693365
  14.7446597  34.5715237  52.4532223  14.0747142  34.1624427  51.9054461
  15.5410159  34.0730238  52.2700691  49.9015808  55.1397896  50.3250742
  49.4200945  55.0182152  51.1433792  49.3757010  54.6841049  49.6677828
  64.2975092  40.1855326  35.2062082  63.8139772  39.8816228  34.4380498
  65.0763988  40.6099606  34.8464561  25.3030276  34.2364478  30.4923677
  24.7094417  34.9714160  30.6463456  26.1256480  34.6452641  30.2233052
  65.5135584  37.8071451  32.1069503  66.3184452  37.4754190  32.5048757
  65.7205391  38.7097192  31.8645620  63.6453819  49.1397667  24.0369225
  63.0338621  48.8354874  24.7075105  64.2495012  48.4075785  23.9137244
  46.3234091  56.8535089  36.7386031  47.1841335  56.9328260  36.3273907
  46.5133476  56.6503668  37.6545119  52.0048428  57.7075768  40.4624605
  52.0217848  58.3485413  41.1731720  51.3546801  57.0614147  40.7381248
  76.9911480  27.2961378  53.4856939  76.1963224  26.7691779  53.5681391
  77.5131226  26.8405628  52.8252220  30.6691265  44.0182114  24.0834618
  31.3908577  43.6369705  24.5834565  30.7310176  43.6064053  23.2215953
  62.8474569  28.8057876  23.3296990  63.2212591  29.6687746  23.5078979
  61.9433546  28.9850640  23.0714560  43.7037802  51.5416193  76.3371134
  43.0320978  50.8760977  76.4859676  43.3222580  52.1242857  75.6804752
  35.2403784  46.9162703  39.8024893  34.8698497  47.7604437  39.5449901
  34.6027231  46.2714005  39.4962645  23.1995344  52.0781612  36.9415927
  23.7695789  52.3429918  36.2196875  23.7888741  51.9838333  37.6899314
  38.3529520  53.2534313  28.1117606  38.6152673  52.6967669  28.8449383
  38.8444734  52.9126120  27.3644447  56.6575956  42.3682117  16.1170435
  57.4864006  42.1678019  15.6821263  56.7898321  43.2373333  16.4956868
  43.1076860  37.6771522  54.1317892  43.2645988  38.1710625  54.9365664
  43.9251757  37.7547050  53.6399269  87.5392628  81.8263149  29.1218829
  86.9516659  81.8657398  28.3672905  86.9554329  81.7455101  29.8761010
  84.0055466  41.7355156  37.6039529  84.1870975  41.3741636  36.7363715
  83.1278515  41.4182854  37.8166723  70.0814199  56.5145302  53.8513231
  70.7936573  56.0761595  53.3857250  70.3404188  57.4357796  53.8725424
  91.4349842  80.6188202  36.1028576  92.3208809  80.7759380  35.7761359
  91.5347385  79.9035454  36.7310786  63.1313276  75.9608746  42.3450613
  63.7002468  75.2111912  42.5198126  62.3584509  75.5824614  41.9259024
  65.6603670  97.7209282  44.1903830  66.5421772  97.3486710  44.1985321
  65.1649857  97.1767330  44.8024893  42.2475433  76.1100101  64.0256786
  41.5264177  76.0681963  64.6537399  42.2228813  77.0068455  63.6920404
  72.2352123  85.0157261  35.2770662  71.3480473  85.2086639  34.9738407
  72.3721790  84.0965939  35.0475812  72.9431629  86.8610191  53.9833450
  72.2983932  87.5172234  53.7189484  73.1448030  87.0766449  54.8938847
  93.9887142  31.2366009  51.4656258  94.9376297  31.1119652  51.4816332
  93.6860275  30.8787680  52.3002291  76.0819530  56.7314720  62.9673004
  76.9593000  57.0972919  62.8547382  75.8624363  56.3673639  62.1097040
  87.5982189  55.4157114  33.2017469  86.6776085  55.4288578  33.4635544
  88.0330944  54.9003553  33.8811064  87.6588631  76.6871309  54.3216467
  87.4392414  76.9320726  53.4227562  87.3832512  77.4373055  54.8484468
  83.0731106  46.3991785  20.9802008  82.2324276  45.9568691  20.8625102
  82.8408146  47.3066711  21.1769772  49.9129057  57.9161072  27.5705957
  50.2477741  57.6441908  28.4250879  49.2994928  57.2244120  27.3225737
  75.1059723 106.1800385  52.1766043  75.6920147 106.8484974  52.5314999
  74.2911482 106.6481400  51.9944525  79.6251106  68.0039454  33.1000757
  80.2758503  67.3270941  32.9139423  79.9280834  68.4107065  33.9118552
  70.6777573  72.9066801  65.9247494  71.2167263  73.4163284  65.3197670
  69.8425865  73.3735085  65.9529257  71.4150858  46.0114670  54.4775915
  71.5901279  45.2154779  54.9795818  70.4662657  46.0111237  54.3512011
  70.5461407  60.9103632  37.0876241  69.8806000  60.6431389  36.4536834
  70.0861025  60.9229374  37.9269338  56.9154406  65.8430719  28.0799031
  57.7755070  65.4665804  27.8934312  56.3412619  65.0853062  28.1909966
  56.4308643  65.1785898  12.7573407  57.1206522  65.4950142  13.3406925
  56.2478447  64.2900562  13.0627060  73.8387632  67.5246716  58.3731318
  73.0367804  67.0023918  58.3562517  74.5023918  66.9331408  58.7279749
  80.9836864  54.3259239  24.5717955  81.3317204  53.4370232  24.6422648
  81.0553551  54.6821022  25.4573631  72.6419258  59.9806070  56.1928463
  72.1088457  59.1872787  56.1410046  73.3888149  59.8051214  55.6204891
  69.0811634  47.2771645  48.6808062  68.5620928  46.5869141  48.2680750
  68.9567089  48.0402899  48.1165504  64.9109507  73.6807728  42.5025034
  65.7057810  73.5729265  43.0248499  64.6665335  72.7899647  42.2515965
  72.0092058  24.6832824  40.4013729  71.4495468  24.0600443  39.9381399
  71.9495058  25.4877400  39.8860931  64.5809078  67.3319817  33.0458951
  64.9402857  67.5299406  33.9107013  64.1552830  66.4812565  33.1523991
  65.9758043  69.9227953  19.4653642  66.8224192  69.7402096  19.0577698
  65.3525877  69.3890810  18.9724314  68.6457253  56.0324335  28.7818050
  69.1074085  55.8071995  29.5894861  69.2980289  56.4922476  28.2533121
  69.3513632  67.4379444  57.8297234  68.4868717  67.8037119  58.0170679
  69.9630594  68.0394077  58.2543421  70.8087301 103.0671501  48.7473917
  71.1173868 102.9509068  47.8488111  71.3028479 103.8186359  49.0750360
  77.3965979  90.8386993  23.6013913  78.1829643  90.2941799  23.6382127
  77.2511768  91.1109924  24.5074511  62.4188042  75.5571651  28.8026738
  61.8674946  74.9018908  29.2303419  61.9102812  75.8384752  28.0420804
  67.7744913  73.3845758  93.4371281  68.1522703  73.4431982  92.5595951
  67.3427486  74.2286491  93.5689068 106.9825268   2.0841193  61.6418076
 106.6227722   1.2099617  61.7923307 106.2749100   2.6799518  61.8877745
 101.0917377  77.9488564  49.2703199 100.7468987  78.8031387  49.5301628
 101.3251877  77.5237179  50.0955439  90.6064892 100.1149750  64.0103626
  91.3554859  99.9667931  63.4330559  90.6156540 101.0574245  64.1774607
  71.8206739  72.0061111  38.4821796  72.1159172  71.7970991  37.5959635
  72.0491409  71.2336206  38.9991808  91.7990780 106.4325237  53.8658428
  92.6344204 105.9708500  53.7931538  91.9339466 107.2489071  53.3846331
  81.4167500  68.6858702  56.6666937  80.7086945  69.3298006  56.6821861
  82.0404530  68.9998960  57.3213863  69.1759729  80.4058170  48.2484674
  68.6737108  80.1430798  47.4771500  68.7313700  81.1910725  48.5677290
  96.1899662  85.8895493  53.7077093  96.4912510  86.2385178  54.5465612
  96.8398952  85.2257442  53.4771204  87.1171856  98.9362049  59.5841026
  86.9948483  99.5483685  58.8584852  86.2291527  98.7303257  59.8760748
  64.3669081 101.6586971  48.5454750  64.2451429 102.3112106  49.2351389
  63.4891033 101.3117695  48.3863115  45.9310961  98.7714291  21.3033676
  45.0863123  98.9783001  20.9036493  46.4124489  98.3064938  20.6189919
  78.5566807  91.9027996  56.4564991  78.9998770  92.3487759  55.7347536
  77.7419806  92.3909855  56.5755272  96.7882061  77.1227884  37.0522046
  97.2676277  76.3993788  36.6483903  96.7827702  77.8087521  36.3846326
  80.5063820  85.2155399  51.1913681  81.0551167  85.4751682  50.4512930
  80.0821877  84.4073391  50.9030914 102.6854134  19.6577263  42.4291801
 102.9673100  19.2503572  41.6101503 102.9116535  20.5821919  42.3271561
  79.1995859  77.3450518  59.4451714  79.2915869  77.6301241  58.5360527
  78.2555771  77.2504091  59.5721388  77.7880049  71.2418604  43.8262796
  77.2491026  71.3144112  43.0385303  78.4540367  70.5920506  43.6018324
 114.9929142   0.2946931  43.6378384 114.6989155   0.8174154  44.3838644
 115.1352978  -0.5800267  43.9995337  77.7961969 100.7698441  47.9349518
  77.9959249 101.4707565  48.5554838  78.4894228 100.8273506  47.2774124
  66.2586451 102.9948711  51.5145874  66.1212826 103.8414764  51.9395781
  67.1045971 103.0818748  51.0752439  70.9899044  50.8187580  63.7416220
  71.6801071  51.4064312  64.0490007  70.3421688  50.8207703  64.4463682
   6.3093013  72.0054483  26.4115095   5.6965768  71.7980194  25.7059789
   6.5131748  71.1585951  26.8083811  18.3599889   0.9034344  64.1233683
  17.6241016   1.0436504  63.5275126  18.2214665   1.5361962  64.8281050
  85.1083565  66.0836792  16.1475587  85.9545422  65.7376671  16.4312232
  84.7801113  65.4339600  15.5259824  66.8335962  71.0159254  64.7538376
  66.3583946  71.8318653  64.9108505  67.0624638  71.0469866  63.8249207
  52.4923754  99.1422653  55.9184885  51.7092991  98.5937309  55.8722973
  52.3477364  99.8221207  55.2603817  64.8856544  90.6849480  56.7958212
  64.3145037  91.4054775  56.5296555  65.0455761  90.1954651  55.9889317
 103.7870598  48.4680843  45.7457447 103.7620258  49.4113922  45.9062815
 104.2781830  48.1120682  46.4862108  85.5206490  76.3054943  28.5913181
  86.2087917  76.6917992  28.0495954  85.9920406  75.7897282  29.2455387
  84.1292000 106.1806774  42.3561668  84.4525909 105.8863449  41.5046883
  84.3028450 107.1219444  42.3659945  62.9936600  76.3483429  57.7192354
  62.7725697  75.4210615  57.6326323  62.2125912  76.7458677  58.1041288
 101.3117981  70.3744555  50.6661081 100.5510712  70.2488613  51.2333441
 101.4843178  71.3153124  50.7016325   4.9014124   7.8393024  79.1343737
   5.0392473   6.8923998  79.1590357   4.5516858   8.0077219  78.2594109
  77.3409939  96.9461060  73.4923124  77.7074957  96.6493130  72.6593542
  76.5381479  96.4353561  73.5962820 116.0599804   6.6911465  77.6892281
 116.1002064   5.8803457  77.1820641 116.9633961   7.0069492  77.7080584
  77.0796061  96.1805248  52.2372818  76.7273378  97.0244694  52.5199366
  76.6774035  96.0273457  51.3822937  77.4353266  96.5119267  62.6062107
  76.7910147  95.9767532  62.1428680  78.2484579  96.3844299  62.1175480
  75.4088020  73.9458752  13.0442190  76.3264847  74.2123127  12.9884660
  75.0388765  74.5028639  13.7291670  75.0472546  65.7686043  35.6960225
  75.9401226  66.0796213  35.5467510  74.7032499  66.3461018  36.3774800
  75.6348133  69.1098690  53.9380217  75.6270838  68.1916666  53.6677027
  75.0521183  69.1410828  54.6967888 102.2020721  86.1349583  60.8459902
 102.1249580  87.0139503  61.2170029 102.7383900  85.6548691  61.4769459
  94.2800808  58.0131388  57.7346992  95.0737476  58.1440973  58.2535219
  94.0590191  57.0908070  57.8638077  81.7853059 109.0655893  35.5561256
  81.7868979 109.8267628  34.9757433  80.9619393 108.6178379  35.3616571
  79.1861773  73.7368727  41.6709614  79.5619631  74.6153545  41.7282963
  79.8251200  73.1740427  42.1082401 100.2953720  10.4656398  16.9899392
 100.6524372  10.9169245  16.2250328 100.7956791  10.8132052  17.7282667
  90.3910351  65.6286287  42.1011019  89.9827576  66.2069225  41.4568043
  89.7338104  64.9527216  42.2667408 113.3372784   9.2943037  57.5343084
 112.4013996   9.4947839  57.5472784 113.6583900   9.5947492  58.3845139
 105.5602074  50.5183268  53.2033014 105.1587486  51.2872362  52.7985287
 105.1041031  49.7746611  52.8093910  59.9726915  89.2463398  75.2535200
  60.7438469  89.7859192  75.0791359  59.6001959  89.6129894  76.0554266
  89.7918224  51.2959623  32.0223451  89.0541458  51.6557693  31.5297961
  90.4806614  51.1761236  31.3686085  85.0973892  87.8665257  66.9784975
  84.8090172  88.7788391  67.0061302  85.7450485  87.7987003  67.6800394
  86.7023468 107.5232029  56.1000872  86.5301800 106.6259193  56.3854933
  86.4002895 107.5478649  55.1921272  83.8742447 104.4966125  50.1127100
  84.3999958 105.0116539  49.5007086  84.0523624 104.8865891  50.9685278
  72.9702568  88.6988831  33.6559415  73.8674498  88.7563801  33.3273482
  73.0672741  88.4485912  34.5747304  65.2536917  71.0080481  40.6886435
  65.2698278  71.6002226  39.9367809  64.6948624  70.2825260  40.4101419
  85.2499580  65.4428720  40.8685017  84.2952728  65.4548597  40.8001328
  85.4302883  64.8528051  41.6003036  81.0721970  62.4843788  25.5534101
  80.7759190  61.7088890  26.0299253  80.4166031  62.6087952  24.8671484
  83.2262039  55.0633526  52.9894972  83.4597397  54.2859221  52.4822569
  82.5389194  54.7635889  53.5844851  67.6750612  74.5554352  36.6753435
  68.6250210  74.6627522  36.6275120  67.4443579  74.1003561  35.8654618
  49.1464949  81.8955898  36.4518023  49.2536831  82.4968624  37.1888375
  48.8096666  82.4434185  35.7428145  71.7319632 101.2149620  50.3687811
  72.5013876 100.8770370  49.9105072  71.3844585 101.8910408  49.7870588
  77.5805426  92.6744747  10.4967296  76.7117500  92.3736572  10.2303827
  78.1616211  91.9429493  10.2882993  66.7557764  80.6471443  61.5055323
  67.6043844  81.0770607  61.3993883  66.1257458  81.3667774  61.5431738
  95.7591534  76.7439461  60.5981064  95.2652359  76.5808868  61.4016533
  95.0931931  76.9737196  59.9500799  82.6750088  69.6233892  44.3353128
  83.1080341  69.1562414  45.0498009  83.3930111  69.9551535  43.7961960
  87.9527760  84.4442749  81.9936371  87.5778103  85.2503777  81.6389179
  87.6474285  84.4168663  82.9004192  53.9031839  93.2005596  77.1295881
  54.2442989  93.6804485  76.3748789  54.6763182  92.8026485  77.5297880
  74.7711420 101.2170506  70.8751440  75.5535316 101.0067081  70.3653860
  74.2362690 101.7478848  70.2849245  76.6939116  84.0805531  46.1278582
  77.3077297  84.6710396  46.5646458  77.0535564  83.2064915  46.2791967
  69.8903608  81.0634518  61.1045933  70.2998352  80.3977203  60.5519962
  70.1264048  80.8118725  61.9974661  54.0147257 108.3386517  32.6027656
  53.5022354 108.1773758  31.8105674  53.5125351 107.9204750  33.3021712
  82.8426075 102.2223568  31.6100240  82.7744770 101.7686844  32.4501324
  83.7409782 102.5520134  31.5879965  62.1353292  95.1614285  43.0129004
  62.0398760  95.9871960  42.5383329  63.0796576  95.0627232  43.1343126
  99.2403603  70.6688452  28.1500745  99.9341869  70.7664537  27.4979234
  98.4286118  70.7721901  27.6534653  88.2137012  62.6656580  64.6903419
  88.2535172  63.5161591  65.1277065  89.0060520  62.2115612  64.9770498
  62.2284222  72.3976278   1.7403577  61.9209909  71.6303778   1.2576094
  61.4550209  72.9558849   1.8205447  68.8812065 106.5913486  63.4745312
  69.1200733 107.4369717  63.8541269  68.8951683 106.7406654  62.5291538
  85.5454922 107.8386116  52.8727341  86.1301804 107.6199818  52.1470833
  85.4978180 108.7945652  52.8622341 109.3923569  12.8314614  69.1977215
 109.1519356  12.3592496  69.9948692 108.6021328  13.3158898  68.9587450
  38.7561631  67.2287607  72.2343779  37.8722906  66.8716574  72.3208714
  38.8125277  67.5100708  71.3211870  78.8245344  83.8312340  13.7923789
  77.9968596  83.5690498  14.1954219  78.7878513  83.4638596  12.9092455
  53.9800406  84.3595028  72.2857475  54.5897532  83.6217403  72.2992802
  54.0676594  84.7265339  71.4060640  47.9536629  90.0573540  47.1982050
  47.2084284  89.5706081  47.5502539  47.6686621  90.3350544  46.3276339
  88.3274841  41.3350010  19.9163198  88.4283447  40.6103039  20.5334711
  87.4144936  41.6060400  20.0123096  82.8924370  78.8080740  56.6254139
  82.8469086  78.3521843  57.4658442  82.2740173  79.5334578  56.7126083
  36.9958949 107.5707722  30.9326601  36.3678193 107.4757481  31.6487074
  37.8274918 107.7604008  31.3670778  44.1408014  94.1932011  64.1915607
  43.6770821  93.3602619  64.1055012  43.5714674  94.7282791  64.7445345
  80.2010345  62.2658014  29.6657181  79.3385696  62.6224041  29.8783898
  80.6656551  62.9933071  29.2520857 104.9423218   2.8538170  64.1226006
 104.3100643   3.5509172  64.2973185 104.5211220   2.0601791  64.4526863
  29.0151048  20.0442386  72.3552704  29.1569710  19.1306710  72.6032591
  28.5865974  19.9966609  71.5006638 107.9471684  90.2762318  51.3339043
 107.3221111  89.8457241  50.7506371 107.4142361  90.8772278  51.8544912
 110.5304241  76.1866570  37.8641558 110.4075146  77.1095657  37.6419735
 109.6639061  75.8897352  38.1420255  95.9367085  84.1534138  59.5313549
  96.4702034  84.9322605  59.3732071  95.4724789  84.3426228  60.3467894
  78.8011122  86.1419773  47.1398067  79.3835735  85.4553127  47.4645615
  78.6660290  86.7173672  47.8927374  99.0975475  96.0632420  46.3251066
  98.4365082  96.6463470  45.9519529  98.8190842  95.1860428  46.0620356
  82.1609974  79.1847801  40.9115124  82.5040817  78.3404875  41.2042522
  81.2687302  78.9935446  40.6225395  64.9119091  90.9509468  68.5932398
  65.1506853  91.4733219  69.3589687  65.1224661  90.0509739  68.8421297
  54.9027920  84.1603661  79.1453886  55.3675747  83.3986473  79.4918013
  54.1734219  83.7901783  78.6481857  61.4550495  84.9832439  47.9429722
  61.2084579  84.2858601  47.3354530  60.6954527  85.0802708  48.5172796
  59.2098999  65.7446432  33.3414221  59.7887182  66.3995790  33.7316275
  58.7907219  65.3193426  34.0895128  86.6225433  66.4305878  34.9948215
  85.7534504  66.7034531  34.7008038  86.8900013  67.1096182  35.6141925
  59.4379091  90.5744648  39.4450951  59.5825434  90.3198433  38.5337853
  60.2999830  90.8504295  39.7563839  71.7762470  72.5573063  61.3153505
  71.2375164  72.9524469  60.6298876  71.4606285  71.6558266  61.3782024
 103.2955074  82.0830822  51.2975216 103.0096817  82.1092987  52.2106743
 103.8464355  81.3023472  51.2413168  76.4403152  85.9986973  66.7749310
  76.5073633  85.5365753  65.9393549  75.7264376  85.5579662  67.2357702
  82.9953957  39.9485660  34.8171902  82.8096962  39.0765905  34.4687581
  82.1347141  40.3560972  34.9140120  87.6947784  88.6456490  27.6026535
  87.3397446  88.9204884  26.7572808  87.7113628  87.6897240  27.5561047
   0.7003257  97.9316330  20.8888745   0.6386447  98.6604786  21.5063000
   0.5732791  97.1503639  21.4271235  54.5739698  82.9555035  19.9911511
  55.0517654  83.2743263  19.2254543  54.1473627  83.7342453  20.3486276
  67.1253586  54.5180988  23.8138247  66.3080215  54.2632484  23.3857560
  66.9607210  55.4042149  24.1361976  61.3003397  70.0968075  33.7361050
  61.8433428  69.5185995  33.2003331  60.6886864  69.5085716  34.1789317
 113.9324665  51.2731791  36.0155034 113.6250687  51.0921478  35.1272655
 113.4587479  52.0628929  36.2766027  72.4185324  45.0981617  39.0588093
  72.1597433  45.8907175  38.5885835  73.3537292  45.2139473  39.2268300
  66.1779499  99.0290260  57.6954126  65.5556440  98.3110523  57.5793076
  65.7574749  99.7804165  57.2772646  39.6587968  83.2017612  57.4833441
  39.6683288  84.1133404  57.7751780  40.5515003  83.0383587  57.1790266
  77.4665928  98.1413078  68.1341743  76.6963720  98.2943249  68.6815119
  77.1095181  97.8665829  67.2896290  46.4881468  85.9591579  22.3856235
  46.7644548  85.1242447  22.0077252  46.1118746  85.7251930  23.2340980
  90.2545261  83.4950638  36.8207145  89.3974113  83.2362843  36.4821553
  90.7090187  82.6677608  36.9796157  82.9911995  59.4997835  47.1837330
  83.0758762  60.2959871  47.7082586  83.4650612  58.8335228  47.6815081
  56.3393021  20.2533793   3.0971882  56.1655760  21.0975361   2.6807150
  56.3071251  20.4382515   4.0358141  70.6204939  71.5617371  29.1992068
  70.9989071  72.1293306  29.8706770  70.4958868  70.7207012  29.6389318
  97.2491452   0.2028073  47.3386383  97.6698205   0.1436795  46.4808655
  97.4180123   1.0998143  47.6268959  87.8138256 105.1290131  46.4863300
  87.4344063 104.4007015  46.9780874  87.8417873 104.8182392  45.5814171
  83.3876896  99.4186687  84.7737408  82.5055313  99.0948105  84.9558163
  83.5004139  99.2900372  83.8319397  98.8517094  77.2234249  52.6174164
  98.3193207  77.6023006  53.3168793  98.2440376  76.6698408  52.1269941
  79.1946650  70.4518890  57.0559788  79.0568018  70.7486153  57.9555225
  78.5869980  70.9766960  56.5348721  83.0404186  63.8795996  70.7202196
  82.6315308  64.7243834  70.9083414  82.4559689  63.4669399  70.0843239
  65.5586720  76.0077810  71.7787743  66.1134815  76.7708302  71.9405508
  65.8174038  75.7036400  70.9088421  81.3623142  75.7503605  50.2545071
  81.5873337  75.3987122  51.1158657  80.9161091  75.0292444  49.8105192
  82.1487808 101.1400414  49.6055746  81.8898678 102.0382881  49.3997812
  82.6842499 101.2200069  50.3949499  49.7575283  40.9319353  13.7252247
  50.2462626  40.9055805  14.5478272  49.5357752  41.8556690  13.6078691
 103.3287334  76.1718845  15.0819623 103.4554100  75.5346155  15.7848668
 103.3512402  77.0215893  15.5221045  11.0540617   0.6560432  76.8059826
  10.4849374   0.8637358  76.0649109  11.0416555  -0.2997150  76.8570137
  43.5605812  20.0438619   3.4196207  42.7290392  19.7370780   3.7810743
  43.3096647  20.6486320   2.7213913  69.5446920  43.3367395  32.3038030
  69.8205996  42.8888416  31.5041208  70.3562117  43.6787081  32.6789474
  59.2412949  74.8107338  63.0068445  59.9786186  74.6324921  63.5906410
  58.5921526  75.2391481  63.5647964  75.4851818  66.4284372  41.1431408
  75.7106638  66.9642305  41.9036150  76.2966633  66.3757038  40.6382179
  95.3309059  60.0339842  48.8241386  96.2659359  60.1552105  48.9892244
  95.2817249  59.7754335  47.9038286  60.8554506  31.1688399  33.9649129
  60.0911903  30.6530619  34.2220426  61.2745380  31.4049125  34.7924781
 108.9145184  18.8296986  14.5121801 108.4978962  18.8668823  15.3731501
 108.8877964  17.9032540  14.2729759  51.1215067  64.8568535  84.8710537
  51.3684559  63.9800549  84.5769787  50.1767159  64.8038626  85.0152493
  76.7853928  82.2782516  17.8517365  76.8434572  82.9975224  17.2228360
  76.0026360  82.4732304  18.3670080  65.6359768 104.3181038  68.3354235
  66.2881279 103.6467075  68.5358047  65.3162766 104.6043968  69.1910267
  72.0208216  84.5460606  41.7791986  71.9523907  85.0875664  40.9928656
  72.2038126  85.1681900  42.4832582 108.3026123  27.5405049  65.7742500
 109.1628075  27.2508860  66.0782433 107.8525734  27.8289175  66.5683031
  49.8411703  62.4189281  89.2933941  50.7642317  62.5579691  89.0816021
  49.3823147  63.1264639  88.8405514  64.4166088  60.6826496  55.4839897
  64.5577812  61.5372944  55.0766993  63.7860203  60.2457476  54.9115324
   0.8187909  97.9706955  31.2358809  -0.0643411  98.2284927  30.9715843
   1.1130995  97.3793507  30.5431151  59.0327168  87.0439720  28.7161040
  58.9811373  86.8037415  29.6412301  59.2422104  87.9779434  28.7224960
  93.2440567  63.8246250  46.3275671  93.7718773  64.2364264  47.0117140
  92.7775574  63.1197071  46.7766714  78.0054569  71.4161587  41.1268806
  78.7078142  70.9647226  40.6587696  78.4363890  72.1624517  41.5435076
 110.9412479 104.8149776  57.8005028 110.9362507 105.7713127  57.8408623
 111.5681648 104.5501232  58.4735966  95.1961803  98.4640598  33.0674505
  94.9648094  97.7538109  32.4689174  95.3438187  98.0304623  33.9079452
  67.7558088 102.4468422  42.8596592  67.8017139 102.1577549  41.9483089
  67.0667267 103.1111908  42.8657770  81.4160252  69.6526289  28.9184332
  81.3468266  68.7031412  29.0180278  81.0082817  70.0066996  29.7087574
  77.4580812  46.5767097  60.0484133  76.7734957  45.9386492  60.2495432
  77.8160715  46.8209553  60.9018850  63.3598900  72.3897076  61.4002848
  63.0226088  72.3829222  62.2960711  62.7463150  72.9435062  60.9175205
  73.2152367  92.0098019  85.8870125  73.1555271  92.5090599  86.7015171
  73.2511616  92.6754856  85.2001381  68.8535261  73.9344215  71.3374424
  69.0600681  74.3550682  72.1720839  69.4062948  74.3849421  70.6989193
  79.4383144  46.7674589  40.1897860  79.6561050  47.2327852  40.9974194
  79.6592712  47.3835754  39.4913530  63.3498859  76.4469385  54.9920511
  62.6016331  75.8801746  54.8046207  63.1716013  76.7983389  55.8643818
  79.1661310 101.8688488  59.2530394  78.5223484 101.6091537  59.9120808
  79.2694807 102.8122234  59.3778563 101.4124298  86.1527348  31.1679173
 101.7012501  85.3203106  31.5419126 102.0506954  86.7919064  31.4846492
  81.1654377 108.1599522  13.0561757  80.2507305 108.3609104  13.2540631
  81.3808823 107.4291515  13.6356187  98.7429047  66.2177706  41.1341333
  98.5454178  65.2954960  41.2973452  98.7045765  66.3060236  40.1817846
  79.2352104  48.3451414  42.1847391  78.8741779  48.2113886  43.0610943
  80.1755714  48.4533310  42.3270416  68.4589481  86.6144276  78.1665945
  68.0903578  86.3115597  78.9964390  67.8577042  87.2989845  77.8731155
  72.6997614  76.9395542  70.9920597  73.3189392  76.3399124  71.4083338
  73.1766510  77.7666521  70.9234047  80.0953770  65.5418396  25.0139642
  80.5998039  65.5607653  25.8272481  79.2821789  65.0938559  25.2468681
  77.7305031  74.7902012  67.0823336  77.2775650  74.8636055  67.9223919
  77.0502186  74.9514675  66.4285469 105.2748394  62.6793051  48.6533356
 105.5632782  62.9414177  49.5275974 105.4235554  63.4532022  48.1100178
 104.2798328   7.0366955  53.9721107 105.0044155   6.7448688  54.5253229
 104.0018368   6.2482774  53.5059023  80.6627750  89.9181461  13.6642063
  80.9323215  90.7628536  14.0248084  80.5925751  89.3436623  14.4266236
  95.2348709  84.2789078  18.4226930  95.9383869  83.6399364  18.5367501
  94.6236420  84.0919113  19.1351914  75.4780197  78.0194998  39.7681093
  75.8680725  78.0146694  38.8940001  74.5898676  77.6879406  39.6359038
  95.9324932  93.3886623  54.4618750  95.1531315  93.5955429  54.9776506
  95.7947350  92.4872684  54.1707611  -0.0625054  78.4336042  50.7409573
   0.4072832  78.5146379  51.5709972  -0.2060242  79.3366385  50.4578257
  89.7755241   7.8281295  21.0007977  90.3458214   7.8096282  21.7693400
  90.3388977   7.5522256  20.2778053 112.9587746   1.0567645  23.3967900
 112.5642395   0.3253953  23.8718462 112.2138119   1.5801902  23.1013441
  65.2133703  86.9146824  66.0614681  65.6275988  86.1739159  65.6188488
  65.4528618  86.8080235  66.9820642 108.9488983 107.4817085  23.6670017
 108.0196190 107.2590828  23.7227821 108.9603806 108.4285927  23.5272908
  52.9109669  30.0851107  80.5809784  52.5165272  30.7874513  80.0639057
  52.5853443  30.2298689  81.4693737  15.3118324  85.4716492  33.5854554
  14.7322512  86.2270832  33.6836648  16.1135411  85.8324718  33.2068992
  81.2120819  75.3278828  34.6602130  80.6587410  74.7264481  35.1585317
  81.9850445  74.8105574  34.4340825  79.9476099  98.0414295  16.1935306
  79.5122957  97.2543240  15.8661234  80.5235958  98.3116341  15.4783607
  94.5592403  99.6350098  69.2498159  95.5029964  99.4842052  69.1968346
  94.1684914  98.7976837  68.9999723   5.7240713  14.5309079  37.4758291
   6.2581217  15.0051332  36.8385434   6.3238150  14.3418694  38.1974959
 106.5711784  91.5143776  62.7729416 105.8982563  90.8595848  62.9590750
 107.2768116  91.0205936  62.3552227 107.7631855  97.4735928  29.5450354
 106.9099712  97.9057884  29.5067453 108.0447006  97.5794029  30.4537630
 115.1009274  65.8014774  33.0507016 115.7529163  66.3754511  32.6485872
 115.0729465  66.0759592  33.9672732  12.6041985   6.5062767  72.2267437
  11.6719913   6.6078895  72.0346594  12.6528764   6.5037572  73.1827021
  95.3698254  74.2070532  44.5865297  95.3896141  74.9916601  45.1344585
  96.2862587  73.9391232  44.5186806  96.5098858   5.7144320  64.5740366
  96.6299343   4.7715130  64.4612408  96.3527966   5.8253986  65.5117178
 103.6221886  92.4575710  25.6131887 104.1608620  92.3420906  24.8304200
 104.2356396  92.7574825  26.2839842  23.6392498   8.4663033  92.2815514
  22.8359079   8.6213738  91.7847347  23.5645461   9.0411770  93.0432415
  96.1323929   9.5821524  65.5040789  96.4036560   9.0410757  66.2456226
  96.3113308  10.4797280  65.7843828  23.5286880   3.0296773  78.8835001
  23.6601281   2.1431980  78.5471821  24.2143559   3.5492048  78.4637594
  88.0610180  84.3450642   4.8393849  87.4754429  83.6208630   5.0604379
  87.6589680  84.7525692   4.0722319  20.4981065  15.6994200  68.4928703
  20.0029778  16.4885676  68.2730389  21.4097667  15.9895134  68.5237980
  14.8929977  69.2293406  51.4700937  15.8334911  69.3620062  51.3513279
  14.5159364  70.1058149  51.3935757  84.1205311  70.5533695  18.2358718
  83.6368084  70.2195406  18.9913869  83.8828182  69.9642086  17.5199008
  98.3053303 102.3707962  73.0092716  98.0247784 102.3252010  72.0952463
  99.2479992 102.2074795  72.9789019 100.0411224  86.1790657  46.1944675
  99.2482567  85.6563473  46.0746527 100.5260754  85.7242393  46.8830776
  62.3704195  82.8882599  51.9277191  61.9577551  82.9251099  52.7906084
  62.9610538  83.6413574  51.9123316  96.1280060  97.5995731  58.7091064
  95.2110004  97.6065826  58.4347296  96.3577938  98.5243034  58.8002920
  35.3987908  45.1552296  50.7691193  34.9878359  44.5647573  51.4005375
  34.8578596  45.9445953  50.7921505  91.1303234 101.6759872  34.8688817
  91.0350513 101.5531540  35.8133745  91.9228172 101.1890984  34.6427703
 100.8908367  86.9171238  76.1901188 100.0845242  86.7931271  75.6894064
 100.6433487  86.7239571  77.0943689  82.2712803  27.0645404   9.1630119
  82.0215511  26.6927123  10.0089490  81.4420509  27.1858811   8.7005335
 114.0405083   1.2726420  39.3893075 113.7987900   2.1685244  39.1543627
 114.7629642   1.3741690  40.0089598  79.2051840   8.3224732  29.4634795
  79.0375805   7.3952359  29.6319199  78.3810377   8.6539102  29.1068745
  57.3327827  84.4872475  67.4528646  57.1226072  85.3208733  67.8737402
  58.2695866  84.3691254  67.6099300  47.5191927  97.5393200  61.0500669
  48.4228086  97.5051212  60.7361507  47.2212219  98.4210873  60.8265877
  87.8631878   8.6142939  65.5227709  87.1600628   7.9648972  65.5343771
  87.9919815   8.8112998  64.5949602  27.3978782  18.7383306  87.6232815
  28.2623124  18.6692286  88.0285072  27.3817205  19.6160185  87.2416592
  95.7737732  56.6524553  32.3165727  94.8174286  56.6925764  32.3124623
  95.9955597  56.3136244  33.1838894  84.2657948  57.1859789  30.9903884
  83.8942814  57.1042728  30.1120186  83.7460423  57.8731918  31.4073086
  59.8729277  99.8829460  40.4028463  60.3654957 100.5609703  40.8653307
  59.6466351 100.2821922  39.5628285  75.3198576  34.2293334  92.3252869
  74.6507740  33.5495758  92.4058342  75.2024460  34.5774269  91.4413834
  87.8662205  78.6511421  33.6237693  88.7287617  78.6214590  34.0377378
  87.5524235  77.7475262  33.6590028 104.3212986   0.1649476  67.2588301
 105.2326679   0.4542114  67.2145462 103.8158417   0.9180829  66.9530010
  99.6982861  66.1268139  25.7539034 100.0386524  65.2747011  25.4813290
  99.8021126  66.1329556  26.7054343 100.3579330  90.5099583  23.2296681
 100.0158215  91.0219097  22.4968004 101.2498856  90.2824497  22.9671907
  27.8076768  23.9748359  73.6224794  27.2064805  24.6217060  73.2532120
  28.6683750  24.3903685  73.5699654  68.1389618  93.5345840  51.5317535
  67.2002125  93.4059429  51.6674995  68.5522985  93.0648422  52.2561312
  64.2734671  85.2998543  59.9808550  63.4533978  85.0798512  59.5389080
  64.9545240  85.0806046  59.3449879  19.9326575   5.1974660   6.2348485
  20.5562949   4.5013064   6.4414126  19.6039820   5.4850829   7.0866007
  10.9599602  24.3742180  62.6740074  10.0513101  24.0733123  62.6805973
  11.1293030  24.6445131  63.5765028  78.9902496  76.5150452  38.2194638
  79.5239305  75.8431053  38.6436272  79.6200132  77.0548153  37.7416778
 105.3929520   8.7412864  56.4391661 104.5699310   8.8439715  55.9613276
 105.1882648   8.1200212  57.1379948  98.4371376  90.6880951  63.2596111
  98.0693245  89.8146057  63.3936214  98.7476730  90.6808949  62.3542118
  80.2165031  93.2729912  54.8584080  81.1584568  93.3799648  54.9907398
  79.9911165  93.9296246  54.1994238  11.0082483   5.4373807  39.1123509
  10.2657020   5.4424024  38.5083389  11.2402141   6.3604218  39.2144203
  54.7199297  30.3378797  25.1237988  54.4050741  30.4633904  26.0189748
  55.0117779  29.4266200  25.0981092  42.4673796   7.5476736  38.6731696
  41.6437912   8.0314279  38.6105990  43.1425476   8.1983495  38.4808230
   3.1090897  90.0401115  24.9659395   2.4164608  89.5186996  24.5602036
   3.1326047  89.7412109  25.8749700  75.4227638 106.7173481  81.3453102
  74.9041271 107.3289108  80.8225822  76.2994385 107.1012211  81.3631821
 106.6925621  13.7192166  68.6799002 106.5018272  14.5574212  68.2588720
 106.1613560  13.0837870  68.2000256  89.5215416 107.4804592  88.9044094
  90.2522945 107.0313072  88.4795666  89.0443134 106.7855644  89.3578434
  84.4049454  82.1183300  38.1699228  84.8087120  82.4249458  37.3580146
  83.8808632  82.8602314  38.4718394  88.2539463 100.4466343  20.2102542
  87.6377678  99.9392223  19.6819723  88.2745457 101.3078594  19.7929943
  35.3702807  20.7349658  89.7578239  35.2266479  20.8645296  88.8203716
  34.7661567  20.0323582  89.9978352  27.4579954  59.4878387  68.5118580
  27.9942727  60.2170753  68.2006454  26.8399501  59.8887777  69.1230059
  67.1394062  40.7728863  94.3812466  66.6665363  40.5635357  93.5757732
  67.0824337  41.7257929  94.4516563  56.2017870 106.6195393  10.2198577
  56.9974184 106.3040161   9.7913051  56.1074924 106.0606670  10.9912217
  86.6609955  80.4542637  38.2553196  86.5040016  79.6719313  37.7266026
  85.8076859  80.8851528  38.3047318   8.5911685   1.4885868   1.5730342
   9.0539646   2.3264349   1.5651357   8.6940187   1.1497623   0.6837358
  95.6435108  97.4680710  52.2514486  95.8483028  96.5331268  52.2646093
  96.3824272  97.8814220  52.6979685  82.7167797  79.4422865  43.9977455
  82.6344681  78.7007284  43.3981228  82.0482445  80.0619030  43.7055779
  86.6280937  58.3145094  33.3518791  86.4351273  57.9231453  34.2038345
  86.4104462  57.6300955  32.7190804  91.9636822 101.7530727  39.7428751
  92.4145412 101.3231945  40.4696226  91.1075497 101.3265419  39.7062302
  53.0995226  72.6994705  27.8689146  52.3165703  72.9113102  27.3606396
  53.3427715  73.5244083  28.2890844  92.1499062   6.3001800  33.2430792
  92.1612549   5.4577774  33.6974573  91.9710732   6.9410801  33.9311886
  48.2576752 108.2425308  48.8468885  48.9719534 107.8620529  49.3580389
  47.4897575 107.7229309  49.0846920   4.4434220  60.6687689  12.7320802
   5.0064081  60.3466654  13.4360170   4.6925107  61.5870380  12.6273608
  14.0324402  13.3557701  57.7464008  14.9370432  13.6288381  57.8992367
  13.5866451  13.5289240  58.5755682  83.9376736   3.2161134  12.2373879
  83.9928818   2.4610451  12.8230977  83.9275551   2.8371984  11.3584387
  68.6858559  69.7558451  39.5893383  69.5143747  69.5919800  40.0398207
  68.8819265  70.4658699  38.9780712 100.9087849  81.7714500  20.0878859
 100.0554180  81.4894962  19.7585034 101.0356617  82.6417828  19.7101867
  86.0754967  77.8061867  43.9721107  85.1419067  77.9005861  44.1611433
  86.3379955  77.0188236  44.4489574  79.0936899  44.7489643  16.1561310
  78.1629610  44.5266485  16.1326516  79.2329931  45.2798414  15.3719127
  99.2088318 101.5904236  58.7584019 100.0466061 101.1672878  58.9463663
  99.3625927 102.0769024  57.9485083  33.0190372   5.2237791  31.1726975
  32.5185990   4.4104829  31.2386084  32.3913550   5.9102076  31.3986707
  73.7624979 105.4515266  22.8758168  73.1598759 104.7216034  23.0182838
  73.1941652 106.2150192  22.7743220  60.6530094  63.4174681  24.3736410
  60.9352446  64.3321085  24.3710685  60.7179594  63.1493473  25.2902246
  55.8648586 102.0486259  54.3213749  56.0236549 101.2670135  54.8506117
  55.0133657 102.3698330  54.6180487  34.6073580   2.8365877  37.0913053
  34.2287350   3.1920892  37.8953552  35.0501800   2.0347720  37.3692107
 103.3241177  69.6418858  35.2581549 102.6954842  70.3496504  35.1162982
 103.3839321  69.5619011  36.2101316  89.7837830  91.1053276  62.3147583
  89.9842930  90.5165386  61.5871954  88.9819431  90.7489872  62.6972532
 110.9664154  77.9988098  62.9363728 111.4085102  77.4859762  63.6129665
 111.5989399  78.0452967  62.2194529   2.9330164  82.8652096  50.2460051
   2.5506356  82.0407486  50.5464554   3.1298143  82.7150536  49.3213701
  85.3551960  90.7931709  28.8244081  86.1975002  90.4003239  29.0533757
  85.2440166  91.5054226  29.4541526 104.1633892 105.1236343  11.8964255
 104.2435169 106.0648823  12.0509362 105.0547791 104.7883892  11.9926429
  11.2934613  14.3676126  41.6776657  11.0307789  13.5207939  42.0384026
  11.9953859  14.1581321  41.0615063  77.0251894  89.2859077  39.7665668
  76.7070055  88.3933067  39.6314692  76.4388752  89.6514988  40.4289961
  63.3556175  91.6773319  30.7323718  63.1771708  92.3436832  30.0687718
  63.3262777  90.8488560  30.2538347   4.6176076  83.5121822  65.0523233
   5.1285440  82.7031803  65.0258780   4.9325800  83.9690018  65.8322859
  57.5913191  95.4456902  53.5172796  57.8729916  96.3045120  53.2021189
  57.1893263  95.6226826  54.3677521  86.6952324  80.9243965   9.4046032
  86.6525936  81.3336182  10.2688670  85.9839916  80.2838039   9.4075650
 110.6153488   9.8543382  64.5081520 110.4045200   9.0475780  64.9781704
 111.0206413  10.4170132  65.1679754  86.4140129  74.2446041  55.2405214
  86.9439697  73.4705162  55.0503540  87.0421696  74.9666643  55.2574492
  67.3834848 100.7802868  75.3972292  67.2762012 101.2261200  76.2374401
  68.0594301 101.2837505  74.9435234  85.1015949  85.6613445  47.6658010
  85.3271580  86.5828991  47.5389338  85.6449890  85.3809452  48.4022284
  98.1330299  62.9535818  31.4336181  98.0855465  62.0920181  31.0192680
  97.7483082  63.5498381  30.7912016  89.7460461  64.8246384  32.9123425
  89.3545914  63.9539719  32.9826212  90.3037071  64.7745609  32.1359777
  74.6641636  89.8226643  77.0314503  75.5662251  89.9517059  76.7384243
  74.2381191  89.3705750  76.3032055 100.4380417  89.1178417  71.9232225
 101.2053776  88.5694981  72.0867586 100.5543518  89.8713112  72.5019979
  85.6688976  78.3268404  47.2721243  84.8073959  78.4317923  46.8683672
  86.0641575  79.1972256  47.2228098  20.9858465   8.2961035  45.1276731
  20.7133985   7.7404487  44.3974352  21.1433744   9.1528511  44.7309399
  80.2265739  89.4261646  35.1940536  80.0333786  88.6215591  34.7128916
  80.2465820  89.1570950  36.1124396  89.8983574  77.9340219  17.1478629
  90.2395630  78.7722826  16.8362021  90.2805519  77.8288937  18.0191302
   8.0533719 109.4666958  29.5857191   8.2990032 109.1451263  28.7182546
   7.3147368 108.9158726  29.8450398  80.7827187  87.1999741  44.9449921
  81.5986729  87.6886940  45.0526667  80.7205391  86.6609478  45.7335472
  66.4592981  77.2749376  57.8951168  66.4224434  76.9145250  58.7811041
  66.3423204  78.2173824  58.0148697  70.8832598  95.7347298  54.5560646
  70.6920958  96.1548710  53.7175131  70.4518938  96.2896538  55.2058411
  38.4368086  16.8248105  23.3420563  39.1036797  16.8226194  22.6553917
  38.5867953  16.0116184  23.8241911  31.6015124  33.4532642  89.3566608
  32.2981215  33.1383061  88.7806606  31.8023753  34.3794346  89.4911766
  86.1236191  60.9781170  27.0528722  86.1832333  61.4772224  26.2382746
  86.8635654  60.3719473  27.0170593  58.6453295  88.1820774  50.6214046
  58.6446190  87.9611397  51.5527582  58.9758730  89.0797901  50.5884552
  68.0887651  82.1637249  28.4507537  68.4265757  82.8648186  27.8934574
  67.8946590  82.5926971  29.2841387  79.4471216  89.9727154  44.5956135
  79.7911072  89.0794849  44.5892000  80.1599503  90.5064106  44.2445135
  88.5985470  64.5154190  48.2535315  89.1615295  64.3810749  47.4911451
  88.4030819  63.6318779  48.5655975  59.8551369 106.6680241  40.7761765
  59.8527813 107.0520687  41.6529512  59.9708891 105.7297325  40.9259892
  66.6922808  88.4396935  77.6579380  65.7426643  88.4323597  77.5378895
  66.8979692  89.3464756  77.8852415  23.5123730  45.0198078   8.8383710
  23.4639502  44.1405582   8.4631294  22.7578497  45.4793501   8.4699291
 108.8093472  10.5570233  42.3211718 109.4210434  10.2908385  43.0076122
 108.2848358   9.7745758  42.1511698 113.1320095 107.6988125  49.7043896
 112.3236370 108.1638908  49.9199629 113.8297558 108.2688332  50.0275993
  64.4075966  95.4559612  66.1070967  63.6674738  94.9360085  66.4203119
  64.9254799  94.8443794  65.5836439   5.0902510   6.0875869  65.8110857
   4.7702703   6.9593227  65.5788803   5.5625945   6.2170428  66.6335011
  78.9085150  84.0957165  65.5152416  78.9309740  85.0472164  65.4134178
  78.5186291  83.7768650  64.7012663  10.8214593   6.9490039  26.6922784
   9.9881947   7.2908127  27.0164204  10.7486176   7.0042819  25.7394552
  83.6859703  87.3530865  38.1879306  84.4855595  86.8468094  38.3313751
  83.1311321  87.1424198  38.9389348  29.2259693  45.6346273  84.8227501
  28.5054874  45.8507919  84.2307949  29.4777203  44.7440338  84.5784092
  94.0771484  99.5878887  58.6392450  93.8768768 100.4823685  58.3634901
  93.5839367  99.4715023  59.4512987  90.4162598  78.0600214  34.8222184
  91.1912918  78.3488941  34.3404460  90.7075310  77.2843981  35.3015924
  90.9133339  58.2808638  64.0271282  91.4834976  57.9110241  64.7011900
  90.8523178  57.5949478  63.3622789  25.5421543  33.0713797  87.5925541
  26.4721704  33.1348753  87.3751354  25.4388309  32.1883035  87.9471397
 113.0237007  86.9516277  55.1163435 113.3067703  87.5682831  54.4411802
 113.3033276  86.0957718  54.7914505  82.3642159  75.0279903  56.3419056
  82.9348850  74.3905878  55.9126186  82.8158283  75.2422190  57.1582270
  80.5258942  68.9955235  35.5912113  79.6163940  69.2066050  35.8021307
  80.7491779  68.2784700  36.1846828 108.3075809 103.8678837  58.2140350
 108.5866737 104.0466213  59.1120291 108.9129257 104.3719769  57.6702642
 110.0046158  10.3675830  33.8957191 109.4559479  10.5957043  34.6461606
 109.5837879  10.7982361  33.1516290  63.9754458  69.4209421  94.7171934
  64.7957011  69.9041891  94.8166285  63.9460750  68.8399661  95.4773480
  97.1520710  71.1528015  44.7465038  97.7244091  71.2546492  43.9860487
  97.6514530  71.5245008  45.4736090  84.4143200  59.6090174  54.1373682
  84.3068695  58.8460064  53.5694742  83.5287571  59.9574089  54.2405224
  97.1187401  80.4381084  30.3264952  96.5478897  79.8918438  29.7861624
  97.6876163  80.8840179  29.6989775  87.5402451  98.7543488  12.6613092
  87.0323944  99.2852592  13.2748723  87.8242970  99.3724823  11.9879091
   7.9364061   0.8223327  52.1903753   7.2873944   1.0282764  51.5176201
   7.6914543   1.3710703  52.9354382   7.6647890  68.0679893  46.6438198
   7.3781615  68.8586712  46.1867666   8.3541000  68.3698702  47.2353840
   7.0296848  10.8615041  49.0696526   6.3025296  10.2765059  49.2823887
   6.8368149  11.1713529  48.1847668  80.2525425  91.6668320  41.2964582
  80.5444431  90.7552910  41.3076782  80.1533413  91.8751431  40.3674841
  93.3996391  89.2606926  38.1171060  92.9828930  88.5138226  38.5469079
  92.7535725  89.9641895  38.1797099  79.9862862 104.8487091  56.7626476
  79.9028683 105.5383015  57.4212360  79.3565369 104.1808796  57.0340395
  92.8931046  84.8353195  48.4528112  93.3655834  85.2818966  47.7502632
  93.1655312  83.9205265  48.3808613  36.0071015  34.5063758  12.6529944
  36.6321349  35.1139235  12.2574532  35.7049894  34.9542618  13.4431577
  32.4463153   2.4205403  51.6225100  32.5060630   1.9744338  52.4672890
  32.3407602   3.3450815  51.8468142  73.2069397  87.5448990  56.5013838
  73.3957958  88.3479691  56.9868135  73.3898878  86.8405342  57.1231842
  38.4011102  30.8633137  31.9103789  38.5755825  31.7545390  31.6078711
  37.7726555  30.9714079  32.6242375  92.6239967  90.7937717  59.4687796
  93.3480930  90.1795769  59.5899725  91.9073391  90.4238796  59.9843502
 104.0487289  94.2731380  89.2041588 104.0207577  93.9216328  90.0940418
 103.5134220  93.6680984  88.6907196 111.8603230   5.0785410  65.9110260
 112.3214340   4.2908004  65.6228113 111.2993431   5.3118312  65.1713562
  79.7547531  91.9526005  59.4252110  79.3973923  92.2683907  58.5952711
  79.8845863  91.0141563  59.2884684  86.4771652  99.1376209  44.1612625
  87.1912003  99.7699356  44.0802145  86.7272377  98.5878277  44.9038458
  83.0565834  88.9499855  46.2245178  83.7253666  88.5726547  46.7959833
  83.5175419  89.1355133  45.4063892 106.6510105  20.0074553  72.4693394
 106.4648438  20.6658792  71.7999744 107.5957108  20.0697517  72.6103687
  63.4700823   7.7677917  20.2419877  63.2134914   7.7180815  19.3211603
  63.5851479   6.8555677  20.5081415  92.5683784  96.1843586  37.6782656
  92.9629230  95.4668617  38.1740141  91.7215347  95.8411884  37.3931026
  98.5145664 100.2292252  24.7306204  98.9496231 100.2605057  25.5826640
  97.8176975  99.5823860  24.8411226  84.3009663  92.3161983  52.7182770
  85.1204205  92.8061199  52.6496601  84.5612240  91.3998222  52.6247120
 108.7693977  99.3402767  58.3563185 109.4350433  98.7808895  57.9560328
 109.2548275 100.1032734  58.6700439  98.7994576  80.3688431   2.4669452
  99.2679501  79.5434856   2.3422882  98.7887859  80.4972935   3.4154263
  80.5741978  81.9258785  21.0284615  80.2045727  81.0837173  20.7631755
  80.5315113  82.4655151  20.2390289  93.9456654  77.4429131  77.1879578
  93.7831879  76.5212774  76.9869232  94.5912457  77.4237490  77.8944206
  83.2259274  82.0085526  19.5042443  83.5091782  81.7325497  20.3759217
  83.8296127  82.7128410  19.2680705  14.8863268   6.9344199  67.9454088
  15.5681622   6.2680763  68.0309582  14.5235431   6.7949569  67.0706701
  79.4668865 102.9043579  19.5722616  79.6650887 103.0321503  20.4999542
  80.0837231 102.2306442  19.2861557 105.6258488  86.5204144   8.4403247
 104.8774815  85.9263897   8.4979320 105.2894592  87.3604298   8.7524658
  77.2963953  91.4998722  50.9450340  78.0837107  90.9640884  51.0415077
  77.2611761  92.0205116  51.7474794  26.9838881   5.3135473  56.6218328
  26.4034510   4.6040973  56.8975210  27.5004578   5.5170655  57.4015570
 105.9640503 106.6082573   7.1517736 106.4714622 105.8234787   6.9446784
 105.7850456 106.5372276   8.0893999 115.5473137  10.6677103  36.1094236
 114.7359371  10.3957057  35.6805801 115.6202030  10.0924456  36.8709946
   5.3229862 102.6716328   6.9319052   5.8145821 102.1286774   7.5481510
   5.5692863 103.5694408   7.1544313 102.5104713  95.6898403  42.1305323
 101.8948269  96.1458492  42.7043486 103.3707809  96.0153961  42.3953009
  45.0811291  35.3966379  94.2541409  45.9549046  35.0653768  94.4615269
  44.5255232  34.6172500  94.2446709  57.1740007   6.1309713  21.2162662
  57.6141167   5.4298031  21.6967797  56.6187668   6.5569669  21.8693209
  86.8480682  89.7996616  25.3870344  87.5402927  90.4391479  25.2193666
  86.1021137  90.3246880  25.6770897  71.0891438  68.4835815  78.7234354
  70.5497217  69.1646051  79.1252565  70.8763647  68.5284138  77.7912617
   0.9285861  26.7588592  37.7540874   1.5221503  26.2952614  37.1633363
   0.0748754  26.3532972  37.6026678  90.6677246  95.6029224  76.8736029
  90.1150513  95.0052834  77.3772049  91.4481354  95.0893021  76.6652870
  57.7955723 102.8005505  52.7283716  56.9809532 102.5654602  53.1726313
  58.4845209 102.5563717  53.3464003   7.1707052  11.1212516  32.2660446
   7.8987163  10.7061946  31.8034863   7.5830686  11.7964578  32.8048253
  89.3339825 101.3788795  57.7224255  89.9625778 101.4995861  58.4341335
  88.6486340 102.0241165  57.8961802  78.2997131 107.1327305  72.9557514
  78.8032913 107.9322910  72.8029490  78.0602837 107.1737385  73.8816166
  43.1151676  46.9525003  89.8951244  43.3861971  47.3725033  90.7114410
  43.0063391  47.6761389  89.2780876  57.7366686 101.0036278  33.5133815
  57.1937132 101.6163063  33.0173397  58.2519913 101.5594292  34.0979862
  71.4042091 108.5753822  46.4082527  72.3175573 108.3386707  46.2470293
  70.9007788 107.9784966  45.8546209  60.1046419  94.5240498  29.4549489
  59.6826792  94.7226810  30.2908468  61.0416555  94.5404243  29.6497941
  74.8440504  91.9758701  67.2717381  74.3668127  92.8026104  67.3423338
  75.3992653  92.0849895  66.4996862  98.0822086 102.5472546  43.4945011
  97.6097870 103.2920456  43.1225681  98.8371563 102.4302864  42.9177713
  81.3507366  98.0498600  63.0410480  81.5257740  97.7748775  62.1410608
  80.9822464  98.9291286  62.9554653  72.8267288  55.8147860  55.7746649
  73.6761427  55.5611086  56.1357403  72.4999571  56.4825678  56.3775921
  83.9283943  88.7662601  58.8035536  83.8370323  88.5065937  59.7203207
  83.6010838  88.0154514  58.3081961 115.2293205  65.1310682  46.5890408
 115.0819874  64.7266436  45.7340765 115.3867626  66.0546875  46.3931608
  84.1475010  87.5031948  24.6382260  84.0236759  86.8384552  25.3157353
  83.8840961  87.0697689  23.8264418  34.8423910  79.3602991  26.1734223
  35.5096483  79.2766428  25.4922438  34.2904544  80.0853252  25.8802867
 105.6524849  40.5365181  66.6891289 105.1545715  41.3195848  66.9238949
 105.2958965  39.8485398  67.2510576 104.9499321  80.6193447  22.8674793
 104.2848110  79.9644804  22.6553726 104.4918442  81.2575817  23.4143162
  92.1242523  94.6707535  69.8836327  92.4102306  95.0595951  70.7102251
  91.5834332  95.3468132  69.4753551  77.1599007  84.7960949   3.8606134
  77.6055050  84.2759228   3.1919670  77.0433712  85.6560898   3.4568003
  66.6818237  29.7869277  10.1805627  67.2030258  29.0141463  10.3982592
  66.5607548  30.2374029  11.0164118  75.4744148  89.5272160  83.4377766
  75.4766130  88.9878082  84.2285156  75.8657646  88.9689255  82.7659225
  13.3211768  88.5478306  34.7976041  13.0418324  88.4060287  35.7020879
  13.6041152  89.4619751  34.7748399  35.7921529   5.5544227  52.1399975
  36.2074661   4.7280464  52.3866701  35.2303314   5.3282368  51.3987637
  35.3607774  23.1528401  48.6510468  35.9499979  23.8821912  48.8436604
  35.2869582  22.6793242  49.4796371  32.3025155   3.5982144  63.7775040
  32.8605056   3.1174543  63.1661558  32.7735543   4.4155580  63.9396906
  99.8312514 109.7157490  45.9117842  99.4120352 108.9985848  45.4362154
 100.5812042 109.9574470  45.3682899 105.4077721  12.7085662  35.1336193
 105.9042740  13.4320056  35.5161786 104.5738411  12.7155364  35.6034636
 104.4194508 102.5582886  55.8673906 105.2761173 102.9376507  55.6713438
 104.0664577 102.3096085  55.0131178  99.7366428 108.0634594  58.4570312
  98.9207458 108.5001278  58.7016916  99.8773003 107.4148178  59.1467524
  94.2196178  97.5052929   9.3017131  93.9494801  98.3067226   9.7499943
  94.7739601  97.8083038   8.5826069  88.6262028 109.3771970  54.0460682
  88.3083265 109.5742873  53.1649637  88.1221716 109.9563893  54.6176624
 105.9788227  83.0564594  49.6938038 105.1196003  83.2931232  49.3445826
 105.8266544  82.2416496  50.1725149  10.9576535  95.0474930  43.7817192
  10.8947551  94.3965816  43.0827236  11.1909091  94.5414066  44.5599890
  80.6667423  79.3088007  80.9033775  81.1466408  79.1182899  80.0973797
  80.5502892  78.4550667  81.3202858 111.3383293  99.1258144  48.3542109
 112.0134354  99.1504478  49.0323400 110.6779480  98.5227680  48.6954737
   7.5675392  11.4829040  15.2926528   8.0997384  10.8534861  15.7793045
   8.1429434  11.7930198  14.5933890 111.3138866  24.6248865  53.9214802
 110.9665966  23.7329245  53.9166832 112.1587181  24.5505857  54.3652964
 103.3715153 102.2493458  81.4514160 102.5307655 101.9398880  81.1143684
 103.9521694 102.2414398  80.6904888  25.7480478  10.6213415  30.6186604
  25.9072375  11.5031755  30.9552002  25.5172038  10.1076472  31.3926506
  84.5720196  89.2537212  21.2497401  84.6618176  89.9835873  20.6369829
  84.8577976  89.6105099  22.0907331  86.3616085 103.5025120  48.2994556
  85.9982014 102.9651070  49.0032721  85.7504272 103.3891296  47.5715637
  15.2470696  19.1271973  14.7724342  15.7917464  18.9853394  15.5466664
  15.7986200  18.8560259  14.0386164  14.2243958  10.4676116  11.2525797
  14.8863685   9.7902310  11.1140871  14.5208895  11.2049067  10.7189882
  27.6183605   7.5815821  38.2841802  27.7624917   7.2987795  39.1872191
  26.7442799   7.2567463  38.0680871 116.3344491   3.2009786  43.9879894
 115.3816882   3.1353059  44.0525293 116.6481893   3.0087152  44.8716354
  41.1086369   6.0926628  24.7687364  40.5216455   6.1059612  24.0127659
  41.5328026   5.2355629  24.7275710  94.1301250  76.1428261  62.6390839
  94.0297413  75.1909018  62.6392221  94.4331169  76.3518381  63.5226822
 104.6628284  91.9939804  33.7557268 103.7650299  91.7079163  33.9241290
 104.5723629  92.8924656  33.4382772  54.0278578  30.8320355   3.9931363
  53.9726925  30.3087616   3.1935281  54.9107933  30.6696177   4.3252245
   8.3900172   7.1085531  41.3153791   9.1002738   7.5479293  40.8477068
   8.6561763   6.1896276  41.3464880 111.3449764  81.9423294  76.7545938
 110.9214020  82.0864296  75.9083986 111.0304642  82.6594448  77.3050928
  13.6312163  99.6957970  15.2485812  13.6109507  98.8898373  14.7325945
  14.4072139 100.1608944  14.9359417  82.9696465 102.9777908  40.5474377
  83.4903812 102.7821827  39.7684646  83.1038570 102.2232533  41.1209345
  96.7934322  97.4827099  29.3222427  96.5652752  97.6334763  28.4049392
  95.9543896  97.3242474  29.7548223  19.4644344  24.3822980  18.5777903
  19.6070933  25.2628827  18.9248514  19.9137104  24.3822813  17.7325797
  49.6753216  75.3437042  92.6889420  50.2280903  76.0281134  93.0661201
  49.0765715  75.8126307  92.1077061  68.8767958 103.5714054  53.9567614
  69.4463968 102.9950237  53.4472895  68.0053902 103.4375191  53.5839891
 105.4860210  73.1151724  71.0191822 104.8624325  72.5552940  71.4816713
 106.3199711  72.6499081  71.0846758  62.6377296  21.5310836  46.9156647
  61.9728041  21.1113191  46.3698578  62.1450281  21.9137335  47.6416492
   5.5297178  22.5450230  16.9141078   4.6871483  22.9639506  17.0896292
   6.1691153  23.0931544  17.3690307  86.1376476  85.1463890  24.4576788
  85.2596378  84.8066902  24.2846656  86.6466045  84.8989868  23.6856794
  14.4945931   4.2503250  59.0021515  13.9755428   3.5624060  59.4187880
  14.6167421   4.9067956  59.6879768   2.2813839  74.2614079  67.0058584
   2.3984227  74.8153210  66.2340307   1.3595322  74.3687725  67.2401571
  75.1360846  72.4922991  21.6445541  76.0050201  72.1001625  21.5584493
  74.7353506  72.3781824  20.7827997 103.0032444  88.5107327  54.6289730
 103.1937599  89.1141415  53.9107609 103.7950230  87.9792404  54.7116852
 115.6037903  88.6924076   8.6321294 116.5462875  88.8594055   8.6252636
 115.2512836  89.2816353   7.9652089  31.0754299  11.7943740  35.4695535
  30.4753852  11.0633695  35.6172371  30.8894658  12.4047887  36.1830282
  38.5293579   1.9096030  56.8871164  37.6725030   1.5097977  57.0360756
  38.8831353   2.0519421  57.7650738  29.4131708  29.7004080  45.6538343
  29.6495032  28.8037801  45.4162693  29.5840716  29.7519851  46.5942430
   8.4487367  20.0963402   7.4592417   7.7261204  19.6075976   7.0653015
   8.0310243  20.6540132   8.1155568   3.9058912  68.2032108  32.9188871
   3.8218942  67.6442719  32.1463799   3.7631902  67.6125908  33.6585093
  19.3704247  14.9063063  50.3465509  20.1040339  14.3876684  50.6768036
  19.5429325  15.7933497  50.6621885   6.5470058  19.9489534  16.4741814
   5.7484502  19.5092392  16.7660594   6.4995635  20.8192086  16.8699551
   4.1888946  93.8738537  45.5619621   3.6152202  94.2655373  44.9033928
   3.9176807  94.2775249  46.3864136  14.0046549   8.3050978  41.2432432
  14.1013229   9.2535019  41.3293600  14.1301382   7.9699606  42.1310329
  15.9850228  61.5231752  36.3498354  15.3321218  61.6984653  35.6721735
  15.4764843  61.4393997  37.1564341  77.6329136 107.0157528  53.6122179
  77.3453999 106.6749573  54.4592285  78.1666136 106.3136101  53.2402039
  91.0570812  85.2023411  15.1783836  91.9447231  85.5353546  15.3104353
  90.6678867  85.2045155  16.0528851  26.5331984   5.2889585  11.4871228
  26.9181705   4.4664615  11.7896581  26.9865131   5.9650946  11.9906890
  87.8334618  74.4808626  17.4652648  88.7123966  74.3399334  17.8171718
  87.9567051  74.5069170  16.5163898  81.1532784 108.2390594  32.3049688
  80.2170467 108.4129429  32.4022627  81.5789604 109.0366364  32.6194549
  45.4489565  60.6089115  94.6613693  45.4453182  59.8453331  94.0841675
  45.9849310  61.2546444  94.2009449  41.7005444   9.0125734  80.3197479
  41.7322636   9.8708814  79.8972178  40.7671928   8.8426369  80.4470730
  52.0638466  37.2252011  40.7203722  52.3458767  36.9110608  39.8612976
  51.4247322  36.5762639  41.0147238   8.8020611  12.1875501  50.8048820
   8.3573830  11.9231534  49.9995327   9.2511928  11.3959897  51.1014366
  85.5732346  98.5666561  53.8918495  85.1670647  99.4304562  53.8203573
  86.4254856  98.6668873  53.4677696  70.4767895  91.8058777  61.5992355
  69.6908665  91.2973309  61.7990923  70.5064726  91.8350029  60.6429386
   4.9898157  14.1573739  45.1718426   5.3398263  14.6691930  45.9010649
   5.6365371  14.2615831  44.4739008   2.4359407 108.6070919  52.4290514
   3.1558767 108.7522602  53.0429316   2.2881971 109.4628620  52.0264816
  94.1774750   6.8285155  37.2258639  95.0051022   6.6946483  36.7639732
  94.4351482   7.1379018  38.0942631  82.6318645  83.2750607  49.8502398
  83.2845306  83.1083107  49.1702032  82.0234203  82.5391102  49.7838926
  57.8261757  63.5238075  30.8342481  57.1090174  63.0216217  31.2211967
  58.5137129  63.5115480  31.5001106  80.5816650  95.7836246  64.8016930
  81.0145569  96.0974503  65.5956411  80.9129333  96.3530350  64.1072416
  65.9180307  91.5536594  35.2035046  65.8817196  91.4776897  36.1569953
  65.4475546  90.7837963  34.8838091  74.1019583  10.5640054  37.5521874
  73.2981968  11.0452938  37.3558307  73.8033199   9.6868134  37.7921438
  10.7377326   6.0113478  67.2719049  10.4860234   5.1611161  67.6324320
   9.9545872   6.3194603  66.8158579  94.7707081  88.5652924  46.4919662
  93.9183331  88.9422035  46.7101955  95.1501274  88.3255768  47.3374319
  10.5706036  86.0979080  71.6987658   9.8779237  86.3434696  72.3120546
  11.0359788  86.9157124  71.5231085  94.5237637 106.6921616  76.1599779
  94.4799232 106.3716316  75.2591085  94.7375965 105.9173393  76.6797447
  22.2175002  20.3933024  35.6794667  22.7521276  19.6820140  35.3266573
  21.8526411  20.0391269  36.4904356  84.5278835  55.6082106  24.1533136
  84.8716164  55.3602028  23.2950783  84.5363235  56.5653563  24.1472340
  81.4795113  72.2063112  42.6173067  82.2970963  72.3757124  43.0853748
  80.9849262  71.6300154  43.1999731 115.7435675   0.5811219  71.9930458
 114.8802939   0.2003464  71.8317986 115.6013839   1.2035640  72.7061939
 102.7609539  88.8394737  23.1183815 103.1462574  89.5127869  23.6791158
 102.9373360  88.0172539  23.5756326  27.7281594   0.4280457  41.2280798
  27.0133138   1.0005772  41.5063524  27.6621366  -0.3343143  41.8031263
 116.1723013   7.0335275  45.6492805 115.9153390   7.1404839  46.5651226
 116.9765285   6.5156764  45.6850767  20.6514025   1.1497321  28.2636189
  21.5600324   0.8639406  28.1690335  20.5208802   1.2240785  29.2089605
  84.5275021  96.8447876  19.0505588  84.3610477  96.1914062  19.7299874
  85.0709057  96.3888836  18.4078324  43.0841255  18.5872483  45.7974863
  43.2309580  19.5229566  45.6592035  42.3203850  18.5471475  46.3730955
  38.9484215   8.8926017  80.3253269  38.3359218   8.1894112  80.5412006
  38.5372353   9.3520194  79.5931482 100.7058620  97.5030422  43.5593796
 101.4209461  97.3843193  44.1845131 100.0450802  97.9990292  44.0427017
 104.4491100  84.0851116  17.9107523 105.1505566  84.7358227  17.9389095
 104.6011639  83.5356140  18.6796224 100.6109810 107.9918194  35.9290123
 100.4362392 108.8731766  36.2590194  99.8232937 107.4937439  36.1474299
  86.3922405  83.4464836  62.8368235  85.8080482  83.9754105  62.2935200
  86.4910030  83.9512920  63.6440659  35.7499433  13.3291960  26.8066001
  36.1895370  13.2700026  27.6548266  36.3103008  13.9047742  26.2860799
 101.0806751 107.6165104  27.8209949 100.8350277 108.1219578  27.0461345
 101.6146183 108.2180119  28.3399677  45.4864883  76.6173220  89.8821640
  44.8921728  75.9057570  89.6440601  45.7709312  76.9823217  89.0442467
  91.9520378 109.1079617  35.2708268  91.5913391 108.3596134  35.7463217
  91.2061214 109.4699001  34.7924638  89.3946266 100.6026554  60.8582211
  89.0526867 101.2768936  61.4453411  88.6439419 100.3498745  60.3208256
  62.9153109  92.6161671  61.3220549  62.3178577  92.4325085  60.5971050
  63.5443449  91.8949413  61.3026094  24.8007202  32.7401400  63.2430267
  24.0461349  33.2948089  63.0450916  24.7893977  32.0681810  62.5614309
  30.1049614   9.8407781  31.5504551  30.0010324  10.6070113  30.9862590
  30.8848572   9.3995231  31.2138772 106.5125847  89.2150307  56.1235952
 106.0783577  89.0881634  56.9671488 106.1192894  88.5570049  55.5503988
  12.7906632   1.3488591  24.9802423  12.9225075   0.6112707  24.3845797
  12.4813163   0.9482738  25.7926869  85.9924316   0.8717624  57.6072168
  86.2447071   1.7766142  57.7911520  85.6674480   0.8919688  56.7071009
   8.7024873  15.3632712  41.2889433   8.0728489  15.5214930  41.9923306
   9.4942993  15.0677037  41.7382812  83.3899689  82.4213982  64.3827486
  83.7581062  81.6926956  63.8830519  83.1667423  83.0766106  63.7216139
  77.8410673  91.3383293  33.7925315  78.1071568  92.1712685  34.1819334
  78.3099127  90.6759834  34.3001842  78.6302710  76.3273954  34.4700742
  79.5763922  76.1930847  34.4148827  78.3359718  75.6927395  35.1234031
 105.8419132 108.0607891  42.7525282 106.4937019 107.3928165  42.9651546
 105.0485706 107.5652313  42.5494242  74.8429775  82.7452374  64.8315716
  74.2924023  82.7380371  65.6145430  75.5375576  82.1145535  65.0213861
  79.8430252  85.9469700  22.6406026  80.3364944  86.5972424  23.1404638
  80.3069687  85.8841038  21.8057179 102.9954147  78.4225559  55.4491711
 103.8919640  78.5241365  55.7687140 102.5307655  79.1856146  55.7927942
 114.7564888  68.5377932  55.0563765 113.9429760  69.0300274  55.1666021
 114.8205090  68.3891010  54.1129684  46.3477850  12.7477932  73.5242653
  45.7670689  11.9899070  73.5921574  47.1381855  12.4071395  73.1054020
  88.1331539 102.6740265   2.0968580  87.8423214 102.2080898   2.8807911
  87.3499680 103.1255054   1.7821890 104.9305058 103.6164093   8.1721967
 105.6100750 103.6703873   7.5002509 104.2412567 104.2045498   7.8635710
  98.3363247 105.9939957  17.0759988  97.8495312 105.1699352  17.0901382
  97.9806995 106.4693928  16.3251591  37.7963376   6.8877894  39.6163559
  37.7599072   7.0652848  38.6764622  38.6806870   6.5519708  39.7625828
  15.7440639  13.4223676  40.8463192  15.6346536  12.4852479  41.0077763
  14.9644601  13.8241017  41.2298059  47.1165657  23.0726910  48.8606691
  48.0704546  23.0569577  48.7826729  46.9061852  23.9886332  49.0423822
  86.0466099 102.8264046  34.3001723  86.6354275 102.4988270  34.9800420
  85.2065754 102.9393768  34.7449279  14.0410447   5.0396502  16.9144845
  13.6199427   5.8991134  16.9295466  13.9893258   4.7635981  15.9994149
  45.1467657   9.1897136  40.4071188  46.0333395   9.5213532  40.5493402
  44.9778080   9.3483698  39.4783998  30.6840110 102.1994877  56.6086006
  30.6066060 102.0360756  57.5485659  29.7826338 102.3263454  56.3125229
  13.8570702  96.0748577  58.8364458  13.6835086  96.9840908  59.0801477
  13.8260770  96.0732174  57.8797483  95.7277584  98.7268543  38.7147570
  94.9902248  98.3371735  39.1842413  96.0481548  99.4134903  39.2996693
  91.0702991  93.7457752  53.3188343  90.5064201  94.4243526  52.9476070
  91.6159344  94.2090130  53.9543867  28.7340331   6.9550526  46.3610983
  28.0780506   7.1501023  47.0303345  28.3060384   7.1772516  45.5342484
  49.3509626   2.1110624  46.6903305  49.1722870   1.3429861  47.2328854
  48.6190605   2.7028498  46.8645191  16.9190884  11.9787025  31.1463642
  16.1641121  11.5630257  31.5628433  16.6876721  12.0209146  30.2185178
 105.0599003  82.0290661  40.6779814 105.2111530  82.9696369  40.7711029
 105.2483749  81.6691971  41.5446997 107.2265720  80.4731274  64.6219587
 106.9737720  79.6265221  64.9901724 108.1736851  80.5181503  64.7530937
  87.9635429  66.7135525  32.8051662  88.5724068  65.9806824  32.8969288
  87.3641396  66.6211176  33.5457087  36.4087844   7.0860994  20.3827310
  36.5270925   6.5818250  19.5777833  36.6728497   6.4874518  21.0813904
  70.6619835 107.1522713  42.1450090  71.1470509 106.3670063  42.3985910
  70.4572058 107.0188713  41.2195349  87.7412224  97.0577145  17.5726879
  87.2418690  96.2444973  17.4981844  88.0502033  97.2313690  16.6835248
 109.7979736  69.7022009  29.9970698 110.6465912  69.8792124  29.5911670
 109.2572021  69.3634653  29.2835903  64.6619415   0.6601931  60.6623554
  64.0309334   0.9959303  60.0256872  65.2483463   0.1049612  60.1484632
  55.0491285   2.2676328  22.2823024  55.9852934   2.0711023  22.2477174
  54.6304083   1.5122226  21.8696761  23.9280939 103.3711910  53.6126852
  23.7879920 102.4243164  53.6184692  24.4304180 103.5438538  54.4089794
  32.6368713  14.3665183  37.3782516  33.3177495  14.5886528  38.0133033
  33.1058383  14.2647219  36.5500379  50.6954193  23.1716156  22.4061036
  49.9612427  22.6440883  22.7206278  51.4162540  22.5485015  22.3146963
  94.8007107  88.4777451  85.7313061  95.0901890  88.5080528  86.6431808
  93.9394283  88.8952923  85.7394314  69.0832996   5.0360221  75.0388575
  70.0339317   5.0614053  74.9298477  68.7370729   5.2520114  74.1730022
  18.3837569   6.0217851  53.6399412  17.4348783   6.1412030  53.5999298
  18.6107409   6.2106061  54.5504665  27.9981351  23.0490518  48.1711912
  27.2176147  23.5676622  48.3662891  28.6972308  23.6956429  48.0741549
  13.7145162  41.9948530  51.0219526  13.2182598  41.1968374  50.8399343
  14.6240044  41.7026854  51.0828018   7.1425295 100.6924057  36.1253047
   7.7973258 100.1805305  35.6504822   6.5889359 100.0375557  36.5506697
 109.9327374 103.9586830  34.4790244 110.2153873 104.6347809  35.0948358
 109.0692616 104.2485905  34.1847706  18.9689875   9.9457771  33.0866790
  18.9685380  10.1857686  34.0133047  18.0546951   9.7396749  32.8922009
   9.8848754  49.4796181   9.4989949   9.6342134  50.0333166   8.7595224
  10.1642334  48.6565542   9.0980458  41.4453506   4.7429246  64.8893642
  41.3748312   5.6860071  65.0371933  42.3364305   4.5237634  65.1617241
  50.2806139   4.8243973  30.9495020  49.4632053   4.3331379  30.8674169
  50.6321239   4.8548785  30.0597024 105.4716396  75.0576067   6.2525719
 104.9589348  75.8658457   6.2632751 105.0872612  74.5209408   6.9457310
  43.2219028  11.9144917  50.7525492  42.9830456  12.8071249  51.0023165
  43.6463833  12.0098138  49.8999310 107.1179104  98.1331444   9.6393389
 106.2268162  98.3628654   9.9027920 107.0133400  97.3512650   9.0971577
  45.7100868  95.0898838  20.2494788  44.7952414  95.3439140  20.1280046
  46.2103558  95.8601761  19.9799979  27.2866583   9.1299766  15.3934956
  27.6023865   9.9816340  15.0914538  27.7759457   8.9652562  16.1995327
  28.5099626  91.6114616  24.1704178  29.3434238  91.9226742  23.8172579
  28.3105421  90.8277416  23.6583281 111.7909336   2.6022613  19.9330235
 111.5528393   2.5003389  20.8545208 112.6098251   3.0975834  19.9505937
 100.8035278  86.5917015  17.0596254 101.4759350  87.1665382  17.4252236
 100.1780319  87.1871281  16.6467643   2.0229593  21.7506361  20.3889894
   2.6896685  21.7769170  21.0753131   1.2482169  22.1419597  20.7925653
 104.4812584  99.9056339  35.7324076 104.7794437  99.8696899  36.6412663
 104.2461777 100.8230686  35.5935717  96.0595226  85.2756214  50.1594210
  96.0293102  84.7994614  49.3296099  96.8219090  84.9170017  50.6137276
  46.5930462  26.4460421  59.3214369  46.4030790  26.5563035  58.3897829
  46.6038132  27.3371506  59.6707869  13.6786258  98.8039780  69.2975044
  13.2253563  99.1673756  70.0582409  12.9845750  98.4035397  68.7738895
  58.7883615  13.7437606  29.5886374  58.3310890  13.2123208  28.9369440
  59.3929720  14.2817295  29.0774941  95.2360058 101.7935371  18.1401527
  94.3716431 102.1926117  18.2393622  95.0541782 100.8791924  17.9230094
  32.8788137   2.8323770  48.8301325  33.1674004   1.9559932  48.5753775
  32.7642131   2.7804044  49.7790241   9.7425258  69.2952585  33.4605050
   9.5334518  70.2157021  33.3014369  10.5667603  69.3174267  33.9466906
  12.1978426  94.8330879  46.3349676  13.1193340  94.8137188  46.5932560
  11.9403279  95.7495785  46.4348125  19.1279137   5.5224067  56.3754511
  18.2816803   5.9110022  56.5970659  19.6182942   5.5315340  57.1974421
   7.4998540  93.0784988  34.0709138   6.7477602  93.6082363  33.8064027
   8.2581294  93.5502338  33.7263608   9.4998407  89.6797752  21.1307049
  10.4052830  89.9823666  21.0610843   9.0648454  90.0466633  20.3610277
  96.4159870 109.4649506   3.9516476  96.3484097 108.8691711   3.2055172
  96.2736034 108.9076996   4.7167769  93.2764912 105.2480316  30.8047867
  93.4906006 104.7233677  30.0333500  93.0698299 104.6043205  31.4824080
 110.0177670 101.4397621  48.5996580 110.3496170 100.6740665  48.1308126
 110.5554771 101.4882469  49.3900681  36.4724326  12.1013594  41.9230700
  35.5226398  12.1030247  42.0419073  36.6751409  11.2141502  41.6264200
  22.3240662  90.2189636   8.1756705  22.6737404  89.9867821   7.3154074
  23.0775476  90.1635456   8.7633991  32.1444798  10.9334373  27.6918077
  32.2780776  11.8809605  27.7160072  32.9496050  10.5685806  28.0590773
   7.2622359  35.3305483  14.5970714   6.6856146  36.0209918  14.2699254
   8.0604804  35.4183388  14.0761769  59.8342276  84.9806213  85.0191593
  60.4520559  84.8851871  85.7440090  58.9916754  85.1449203  85.4426479
  24.6262145   2.9635379  55.2573633  24.7559619   2.0183858  55.3353691
  23.6843657   3.0865785  55.3757524 111.2280846  94.6688080  70.6560087
 111.7063522  95.4725838  70.8595800 110.5672264  94.9383545  70.0181675
   0.7635728  94.5850277  76.9975853   1.6976789  94.7882080  77.0465279
   0.7312862  93.6792564  76.6897392  38.8834476  33.8488674  24.4162893
  38.0023098  33.4774923  24.4599724  39.1150641  34.0239406  25.3283954
 103.9109135 108.3811665  59.5318747 103.7872601 108.7286663  60.4151583
 103.2530499 107.6904678  59.4519567  22.7590251  18.4645295   7.1328795
  22.2903681  19.2991495   7.1312934  22.0690227  17.8024709   7.1753615
  16.2399864  21.4037943  28.7245679  16.1027145  20.5405855  28.3343625
  15.8707428  22.0158696  28.0879712  54.7197723  12.0070457  38.8477111
  54.3677807  11.1176229  38.8121772  54.0357971  12.5510883  38.4572840
  13.2893610 108.8372517  47.5639439  12.5472176 108.6931515  46.9768429
  13.9832211 108.2780075  47.2146130  20.1940203  95.3444290  28.9661741
  19.6618736  95.2514553  28.1759787  20.8469081  94.6477127  28.8985991
  29.4986653   1.0648265  57.6290464  28.8696933   1.6118714  58.0995464
  28.9931345   0.6804866  56.9128418  96.1286545  95.1759052  22.8308964
  95.5854893  95.8439541  22.4126697  96.7881680  95.6723309  23.3154869
  30.8212161   6.4198554  23.4297371  31.1440110   5.5494606  23.6630797
  31.0771680   6.5327674  22.5143290  30.0823975  10.7238948  44.5276117
  29.4322610  10.0246167  44.4600677  30.3826571  10.6848812  45.4356575
  15.3412402   3.9079466  36.1522555  15.0016093   3.6380255  35.2990127
  15.4462898   3.0898350  36.6379404  54.9785423  10.4289186  60.1761961
  55.2201605  10.0090396  61.0017586  55.4126596  11.2815249  60.2050734
  43.7672520   9.1412139  19.4556594  43.2817364   9.9626583  19.3799293
  44.4490719   9.2034382  18.7867165  10.5872476  14.7084856  13.3407700
  10.2212203  15.3416514  13.9583111  10.6561267  15.1901722  12.5164735
 115.4625797 109.8790646  92.3957920 115.0579262 109.1699696  91.8961143
 115.3209114 109.6380997  93.3112717  19.8581934   0.3572616  36.0166979
  20.0862336   0.7447828  35.1716805  20.1906753   0.9798742  36.6632605
  16.4253926   0.5276949  41.9489145  15.9252846   0.3074697  42.7348042
  16.1883140   1.4357902  41.7607975  99.9389267 106.1031055  49.9105263
 100.0918961 107.0323658  49.7393179 100.7901287 105.7682323  50.1925516
  99.5918846  89.8936844  12.8783274 100.2429104  90.4384518  12.4360251
  98.9570522  90.5175018  13.2305861  13.1649995  98.6011505   4.2123356
  13.9713049  98.2906532   3.8003951  12.6313686  98.9196587   3.4843081
  97.7871513  94.5191669   2.0460984  97.8917122  94.3853283   1.1040860
  96.9101906  94.1876888   2.2392261  32.8669095  82.3373032   5.7142520
  33.2529831  81.4622593   5.7527632  33.6183238  82.9298401   5.6917518
  14.9644017   2.6334459  70.6525946  15.7635057   3.1397894  70.7984781
  15.2746236   1.7639512  70.3996658 100.1497364  84.4102955  28.9023471
  99.2837334  84.5266819  29.2931509 100.7569695  84.7478580  29.5607853
  20.0924540   0.1859924  25.6578231  19.9424446   0.4745784  26.5580702
  19.5847583  -0.6214781  25.5774045  21.2417817  67.6278448  46.9954491
  21.3025117  67.4543428  47.9348326  20.4728174  67.1344566  46.7099762
 104.2123032  96.9246578   5.2328265 103.7434959  96.3361359   4.6411425
 104.8909473  97.3221493   4.6872243 114.2467880  96.3011742  55.1794863
 113.8407707  95.8832455  54.4200706 113.7702370  95.9477806  55.9306479
  12.8809607  43.1989384  12.3023868  12.1170092  43.6486530  12.6634550
  13.5210752  43.2051706  13.0140364  87.0659542 105.9838390  11.4697587
  86.6019630 105.1533699  11.5758979  87.9667759 105.7896996  11.7287266
  48.8252878   8.7908834  28.3965182  48.6514711   8.0292046  28.9495683
  48.4820271   9.5323074  28.8952088  30.2382469  15.2655745  18.5220540
  30.5925250  16.1431980  18.6652160  30.3503442  14.8219454  19.3628037
  83.6342907   7.2092408  41.0104132  84.5157051   6.8555796  41.1298609
  83.7442875   8.1571037  41.0858345  43.8693047   2.6702175  49.8184395
  43.7316561   1.9359455  50.4168797  43.2594395   2.5098616  49.0983152
  82.4157333  25.0253558  56.4289713  81.9053936  25.1407337  57.2305107
  82.4807072  24.0764976  56.3208961   0.3440651 106.8572903   4.7928917
   0.8401498 106.2580872   4.2351449   1.0010771 107.4605846   5.1401788
  92.6616859  89.9602604  24.6073055  93.0718517  90.2169609  23.7814164
  92.9244232  90.6408882  25.2269363  95.7647324 104.4557667  50.7016993
  95.2196121 103.7285519  50.4012966  96.5724659 104.3750763  50.1944685
   4.2496237 107.3983765  16.5212226   5.0274581 107.7367115  16.9647717
   4.5165962 106.5407848  16.1903238  44.6478081   4.6771428  37.2184825
  43.7503529   4.3611309  37.3230982  45.1220226   4.3014398  37.9602385
  10.3296363  27.9438567  38.7873769   9.8691213  27.9290152  37.9483676
  10.3010988  27.0369816  39.0923333  16.0181105  16.3063347  36.1739516
  16.8517530  16.7256963  36.3870430  16.2474084  15.6249368  35.5420089
  34.9812555  56.4276838  35.2956867  35.5492711  56.5237856  36.0601187
  35.5823064  56.2562275  34.5707226  56.2170315  32.4784684  20.6283927
  56.5356922  33.1135988  21.2697172  55.2645588  32.5025654  20.7203126
  43.8985491   4.2959774  66.7691755  44.4990301   4.9071142  67.1959877
  43.2139778   4.1392413  67.4195814  39.2005253  58.7366438  29.5122957
  39.0830946  57.8140068  29.7385216  39.5557928  58.7220097  28.6235881
  18.9232218  81.4716053  35.0048780  18.1961894  81.7912006  34.4705415
  19.6252704  81.3013554  34.3768835  47.8673840  46.5945244  35.3277612
  47.9733849  47.5077581  35.5942249  47.7404356  46.1187220  36.1485696
  34.9327826  28.9584327  29.7799683  35.2574968  29.0514255  30.6755948
  34.1778541  29.5453286  29.7367549  73.6432219  33.2224870  45.2984858
  74.5416451  33.2829618  44.9738264  73.1105566  33.1146669  44.5105267
  54.1406202  33.7276745  36.2597513  54.6388388  34.0204215  37.0228457
  53.3119440  33.4130526  36.6210532  18.5686207  40.1385403  23.5154653
  18.3118057  39.6836329  24.3175483  19.5031857  39.9530816  23.4236813
  31.3375330 106.1964417  22.3616695  30.6841993 106.8357468  22.6457143
  30.8451700 105.5707169  21.8303680   2.4957748  95.2959824  43.7654495
   2.3885676  94.7434521  42.9912090   3.1475598  95.9473896  43.5064411
  61.8674326  27.0779371  38.9516234  61.5038061  27.5267410  39.7148943
  62.4209023  26.3892484  39.3198776  36.3397098  44.3542957  46.0633039
  35.7264996  44.0628719  45.3885603  36.0581207  43.8978291  46.8561363
  47.4440575   9.2682791  33.4887981  47.6634455  10.1978552  33.4256482
  46.5452719   9.2561257  33.8178372  37.2523284   1.6048472  19.4691253
  36.9847584   0.6860585  19.4475579  37.9238915   1.6428128  20.1501489
  19.2906415  21.8869257  37.4041867  19.4914651  22.2435856  36.5389156
  19.7724175  21.0606003  37.4403548  30.9909511  53.5594940  43.1779289
  31.2449312  53.7918854  44.0710783  30.5004621  54.3188143  42.8631496
  16.6094995   6.2276781  57.3070908  16.2909365   5.5422848  57.8944445
  16.0105741   6.2010831  56.5608883 115.9275627 106.6400814  28.5139728
 115.5128384 105.9641743  29.0500546 115.6995201 107.4626827  28.9470577
  14.3532944  36.1745477  24.6985841  14.9991775  35.5058622  24.4707036
  13.7597108  36.1998177  23.9480805  13.6528969 108.3702469  35.4416919
  12.7554905 108.4414768  35.1163912  14.1944528 108.7002754  34.7247314
  82.3473644   4.5202294  49.6957731  82.4691582   4.6518275  48.7555170
  81.8082905   5.2608585  49.9734306  72.3707867   8.5222584  44.6005344
  71.7144775   9.2114866  44.7028065  72.1365404   8.0883056  43.7801409
   4.3924472  13.3443284  33.4255600   4.3039310  12.8631914  32.6028180
   3.5201332  13.3099937  33.8181448  36.4620402   1.7932476  94.6250733
  36.0441831   2.3830570  95.2525703  37.3789218   1.7634071  94.8983265
  14.3042719 107.8119469  54.5314121  13.6593330 107.2855091  55.0038004
  14.3481433 108.6331844  55.0211811 112.0449924  95.5002499  53.0954075
 111.6967106  96.2499714  53.5779428 111.2728882  95.0784683  52.7183342
  20.8178210  27.7602768  75.5476856  21.1412621  27.8249454  74.6491146
  20.8282900  26.8224692  75.7391024  99.0677452  61.7243624  85.8115292
  98.9844799  62.5848770  86.2223911  99.6720409  61.2455606  86.3788033
  41.0138655  17.4956822  47.5313616  40.7093620  17.6723158  48.4214783
  40.2431059  17.6379669  46.9818926  24.2493200  40.4101658  34.4736481
  23.9202189  39.5985746  34.0873289  23.5793185  40.6617737  35.1092768
  71.2694836  55.1641226  33.3080077  71.5206718  55.1863289  34.2313957
  72.1005297  55.1796722  32.8332877  29.2914891  95.6308842  28.9752412
  29.5631075  96.4685822  29.3503547  30.1112413  95.1989174  28.7351418
  33.7744164  27.1410942  32.7825451  34.0615010  26.2451744  32.6060724
  34.5704556  27.6671267  32.7060890 109.7378635  38.6411667  56.4513636
 109.9901104  37.8309774  56.8943071 108.7814522  38.6121726  56.4253950
  89.2724705   7.9293567  42.9891825  88.9533710   7.9603964  42.0872688
  89.5357800   8.8293743  43.1811857  57.8674650  34.9866509  34.0070677
  56.9660139  35.2408648  34.2045212  57.9840612  35.2146411  33.0847549
  34.0750480  21.2773371  42.6897240  34.5460224  22.1016240  42.5673819
  34.6426368  20.7596493  43.2607555  44.8206186  24.9937296  25.5513334
  44.3374348  24.5611167  24.8473358  44.2988682  25.7689810  25.7586837
  33.7191129   7.2275352  56.5983629  33.1705689   7.1003419  57.3724127
  33.4968734   6.4945769  56.0242414  79.3960142  77.7950048  88.6122704
  79.1628981  77.4114752  87.7668190  80.3530121  77.8145123  88.6107159
  41.3453245  19.1510117  74.4084692  42.1207333  19.5838118  74.0511799
  41.6194868  18.8433158  75.2724075   1.5898667  95.5499268  46.4911222
   0.9989680  96.3021183  46.4552689   1.6265410  95.2309704  45.5893755
  20.9153938  49.6698761  30.9460068  20.1143909  49.2646265  30.6137371
  21.6200566  49.1099882  30.6201148  27.0556569  32.1787715  28.5893011
  27.8582191  32.6143336  28.3022237  26.7161965  32.7382970  29.2878199
  70.1061678  34.3976784  47.4543905  69.6820307  34.1374350  46.6367006
  69.3958950  34.7489238  47.9913950  67.7752972  38.1946802   3.4660470
  68.3311892  37.5773978   3.9416307  67.8529024  37.9298186   2.5495005
  44.5994043  89.1282749  50.6414604  43.9371061  88.4770203  50.4102373
  45.1438189  89.2048550  49.8578930 108.9560413 101.4660072  33.7528348
 108.1944084 101.2514973  34.2914677 109.3183613 102.2559166  34.1540909
   7.3751158  16.4913619  13.0665219   7.0230883  15.6476390  12.7828991
   7.9108125  16.7870224  12.3304200  19.9973559  35.7242203  21.0571527
  20.1744509  35.9867978  21.9604373  20.2201080  36.4952755  20.5355334
  13.1812513   2.6330516   3.9925772  12.7185786   2.2555999   4.7407055
  13.5143363   1.8762779   3.5103115 112.8480625  94.2833233  46.9207096
 112.3895168  94.3610382  46.0840940 113.6387444  93.7845802  46.7150402
  16.2699294  85.0384998  18.2900596  17.1650171  85.1073360  17.9579294
  16.1009753  85.8864498  18.7007439  37.2306967   9.7984189  13.2838106
  38.1265688  10.1212156  13.1866157  37.0235157   9.4075924  12.4349511
   4.6582749 108.6543592  53.9830446   5.1318982 108.6858558  54.8142576
   5.2376321 108.1692213  53.3954954  84.6669102  95.4706573  91.2239265
  85.0982952  96.3178921  91.3350201  84.5889759  95.3640556  90.2758789
  18.0424488  91.2089252  17.2976959  17.6375175  91.8371105  17.8957319
  17.3356354  90.9521294  16.7054939 106.2303543   1.9939768  28.4844995
 106.3988209   2.3796748  29.3442011 106.3523960   2.7171963  27.8694439
  25.5272675  47.7596903  72.5496340  25.3296399  48.4324789  73.2011938
  26.2075496  47.2238255  72.9574299  93.8610363 101.1007786  44.6348190
  94.6911049 100.7020187  44.8959589  93.2838631 100.9665585  45.3865480
  11.4805067 108.7235546  26.1188030  12.2462654 108.2069397  25.8679128
  11.6969228 109.0671539  26.9856000  45.8346081  48.1754017  38.0314231
  45.6558037  48.8082838  38.7269258  46.0496092  47.3654795  38.4940600
  17.3034596  92.5936127  33.8394189  17.6895225  93.4052563  34.1687036
  17.9794037  92.2186852  33.2748318  90.5132008 105.2649784   3.4070471
  91.4626980 105.1438713   3.4108049  90.3800774 106.1266518   3.8020495
  64.5301819  11.1453497   8.6010116  64.6274376  10.8856380   9.5171577
  64.6583509  10.3352487   8.1075120  15.3489077  32.8017235  46.7485619
  16.0283852  32.5992894  47.3916483  15.6994009  32.4764585  45.9193516
 112.5293159  97.1801186  70.8095312 111.6322327  97.3495483  71.0972309
 112.7638054  97.9495621  70.2906942  71.3107824  33.7683582  16.1664629
  70.5993843  34.1387415  16.6889179  71.1710882  32.8223228  16.2081099
  47.0753166  -0.2302467   9.4675410  47.6424965  -0.0643264   8.7145400
  46.6294059   0.6029690   9.6197188  21.6773868  12.6607215  30.3983355
  21.0530043  12.2325110  29.8126602  22.4435353  12.8291905  29.8498249
  34.0102100   7.1165520  26.6423154  33.7935615   6.1842597  26.6310763
  33.1963134   7.5545985  26.3934779  71.1667156   3.3462188  26.1179829
  72.1194792   3.2756612  26.1770630  70.8794928   3.4740746  27.0220804
  23.8159633   3.2376876  33.9301944  24.0896297   2.9331580  33.0649781
  23.1132841   3.8629991  33.7528229  24.5600057  76.7643785  22.5250602
  24.1508675  77.6292753  22.5531507  25.1940203  76.7759371  23.2420850
 103.5933304  92.5194359  56.3687325 103.5378265  91.5639210  56.3569355
 102.9475784  92.8048611  55.7223797  93.9667511  93.1953907  94.0254498
  93.8311768  92.6622581  94.8087883  94.5448399  93.9017963  94.3136120
 112.7463722  80.5030155  24.9090981 112.1054077  80.7146168  24.2304039
 113.1930923  79.7223520  24.5816183  30.0899935 104.9359226   6.6337693
  30.8383703 105.5005360   6.8271041  29.3252611 105.4900169   6.7899466
 106.5783024  88.3810711  43.8418007 107.2626400  88.5859680  43.2046795
 106.5484142  89.1465473  44.4157171  20.8794978 109.6822593  52.5489140
  20.4892352 108.8398181  52.3160696  20.2667096 110.0646814  53.1769896
  47.9699516  21.7457676  33.2900167  47.6111221  22.5272298  32.8695536
  47.4044704  21.0328865  32.9929185 110.0990868 107.5163174  17.9135323
 110.2827835 108.2375050  18.5155070 109.2651749 107.1575260  18.2169926
   6.2407887  94.4981670  58.6518955   5.4240310  94.7608566  58.2274723
   6.4027536  95.1809120  59.3029451  43.0942345   0.7707658  62.6196337
  42.7918386   0.6919417  61.7148829  42.8100681   1.6432920  62.8919935
  27.1876597  19.9361980  25.3192687  27.7595210  20.6726956  25.1029921
  26.5448856  19.9158061  24.6102834  -0.0356231 104.7758007  23.5438514
  -0.2417275 105.0675392  24.4319081   0.9190437 104.8222256  23.4920049
   8.6908126  40.8953047  49.0279818   8.6119056  40.5277061  49.9082518
   9.3433505  40.3441954  48.5958910  19.4584775  19.7319114  34.9108171
  19.1775119  20.0139928  34.0403461  20.3593636  20.0466704  34.9854088
  62.7890301  21.9244838  26.2608314  62.8101158  22.8224540  26.5916395
  62.1216869  21.4893651  26.7914557   2.1815158  89.9177837  21.6154289
   3.0413848  90.3379822  21.6322613   2.2070418  89.2909908  22.3384237
  55.6777859   9.2700368  27.9106474  55.9192085   8.5322350  27.3506522
  54.8161459   9.5399719  27.5929332  98.4238911  96.2853622  31.4903879
  99.2970753  96.3232613  31.1000800  97.8300381  96.4952183  30.7696009
  63.0660486  35.5021834  45.1855373  62.9560614  35.4669785  44.2353296
  62.6979971  34.6764231  45.5000067   4.4327372  16.4411438  34.0975308
   4.2127046  15.5794799  33.7434793   3.6027032  16.7823696  34.4304585
  13.3523190  91.3295364  38.6581492  14.0457392  91.9196415  38.3629012
  13.7121153  90.9089851  39.4391203  25.1605392  28.7904501  42.2096109
  24.9528646  27.9356742  42.5870562  25.6355953  28.5874200  41.4037991
  66.9690704   7.3954523  64.0624666  67.6209164   7.7121460  63.4371424
  66.7163706   8.1733829  64.5596600   2.2248697  79.3419933  24.1835451
   1.9527598  80.1617718  24.5960331   3.1681281  79.2967510  24.3399072
  21.4203501  94.6899033  43.3026695  21.1483836  94.9848747  42.4336147
  22.2330236  94.2081738  43.1486511  12.9756272  10.4119420  55.3598261
  13.0932224   9.5449650  54.9715567  12.8877842  11.0003018  54.6099281
  29.7728992  32.9979467  11.8008792  29.0548134  32.9375792  11.1708450
  29.4560862  32.5260615  12.5710654  40.7345772  10.4137313  38.7316585
  40.0481272   9.8014057  38.4669375  40.2703857  11.2318289  38.9090681
  29.7158003  83.3545303  28.1093669  29.3409443  83.2550430  28.9844751
  28.9739442  83.2362461  27.5161624  51.7398310  17.2263873  52.4548960
  52.4264240  16.7549419  51.9831324  51.5112305  17.9560125  51.8790293
 113.8025951 102.1289635  46.2364244 113.2343864 101.3626003  46.3142729
 113.2003593 102.8612804  46.1050701  52.7675676  14.0337265  24.5301270
  52.7261066  14.1371191  23.5794306  52.0705271  14.5989406  24.8631454
  26.0006618  22.1611476  85.7514000  25.9904623  21.5381789  85.0247383
  26.7916965  21.9418907  86.2437630  93.5681629  97.5164986  44.8770189
  92.6478100  97.6881123  45.0763226  93.5919762  97.4131012  43.9257145
  46.5718555  12.1738553  19.1735518  46.7111635  11.2601888  18.9244747
  46.9348240  12.6785433  18.4456944  68.9980268  11.4481759  26.3324928
  69.1046429  11.8743443  27.1829319  68.6965132  12.1461296  25.7509565
  37.0498371  13.3184731  22.9645872  36.3023114  13.8735104  22.7423906
  37.0242763  12.6124465  22.3187518  48.9033413  19.0535259  28.9209223
  48.5965109  19.7891676  28.3909035  49.6034145  19.4220674  29.4597197
   0.5688784  95.2242756  10.7091129   0.1477580  95.7411098  11.3959670
  -0.0036487  94.4656944  10.5951154   2.1470022 105.0121117  36.7199039
   2.2089173 105.9643555  36.7948842   1.2084974 104.8380089  36.6482711
  53.3635283  17.6118135  19.5948315  52.5797892  18.1590092  19.5441723
  53.1431818  16.8303132  19.0879416  42.1381092  26.0285544  26.8761921
  42.6742411  26.4469981  27.5497627  41.7243338  25.2904725  27.3236918
  82.2912979 105.0993729  32.7712536  83.0084896 104.6945763  32.2833848
  82.1438026 105.9359932  32.3301935  47.7227259  29.8555732  11.0604215
  47.8429365  30.7761908  11.2933302  48.5192442  29.6232915  10.5831063
  55.0484180  21.4757919  54.8668909  55.5777597  20.7235575  54.6019840
  54.7367048  21.2523627  55.7438993  65.9207106  21.9475245  62.7341604
  65.3609610  22.1055675  61.9739389  66.6918468  21.5074849  62.3764658
  41.5768242  37.0190644  48.7484884  41.7665863  37.0857120  49.6843195
  40.9851456  37.7503562  48.5714054  13.0668950  14.1237700  55.4067135
  13.6969674  13.7367880  54.7988605  13.3598793  13.8354206  56.2711477
  51.3267183  46.4941359  13.8583815  51.7253113  45.7846594  14.3623662
  51.3631868  46.1928844  12.9505551   7.7368289  24.3352628  52.7112865
   7.1302366  24.9754596  52.3392344   8.4709519  24.8591280  53.0320072
  44.8312855  24.6679997  55.8634472  44.3877602  25.0273108  55.0950670
  45.3566456  23.9450717  55.5205059  24.1510749 106.3211346  30.2669621
  24.0556574 106.8488312  29.4740772  24.5625257 105.5105591  29.9671245
  98.4287071  95.0794792  41.3179779  98.6032104  94.1400337  41.2612200
  98.5751534  95.4043961  40.4296017   1.6284858  22.3453498  59.4593000
   1.9955593  21.8375182  58.7356997   0.9546299  21.7773914  59.8328924
   2.4403885  94.7548962  56.6075802   3.0530286  94.0194321  56.6089439
   2.0151770  94.7140026  57.4641752  51.5050459  28.5143828  69.3018961
  51.4939499  29.4106627  68.9660549  51.6295767  28.6137938  70.2457380
 105.3996468 107.4791813  45.8080006 104.6712303 107.9269981  46.2382317
 105.0830269 106.5867996  45.6679106  16.8894899  16.5255690  57.7978516
  16.5614247  17.1868837  58.4071684  17.4986267  17.0013332  57.2332001
  10.3598392  79.3444586  42.1695328  10.1448250  78.7997103  41.4123964
  10.9232283  78.7910986  42.7104712   9.3915296  22.9058552  34.3239617
   8.5618508  22.9810691  34.7953486   9.6841955  23.8098693  34.2084765
  41.8703604  47.4428463  16.1209607  41.1039877  47.9750395  15.9072638
  41.7156887  47.1499300  17.0190191  40.1205301  13.4126461  46.2578297
  39.7965574  14.0649557  46.8789291  39.3367553  12.9421175  45.9740496
  25.6748867  28.2017088  56.6825199  26.5513182  28.4603477  56.9674826
  25.3615451  28.9449596  56.1671257  42.2664404  37.3610449  36.4323044
  41.4275980  37.7254486  36.1498404  42.8223324  37.4086452  35.6545162
 102.1227360  43.5440111  83.1628799 101.2981033  44.0294790  83.1395149
 101.9036865  42.7206898  83.5992241 107.9558754  85.2715874  39.7945428
 107.1626282  85.7063675  40.1075125 108.6392117  85.5531311  40.4028368
   2.8520796  82.0250893  22.4572396   2.0385171  81.5608597  22.2601509
   3.0892435  81.7300606  23.3364105  55.0054121   7.8547770  46.4720058
  54.0820217   7.6332885  46.3514757  55.0968838   7.9956996  47.4143505
  46.1317110  26.4489341  17.1237981  46.1245680  27.0005560  17.9060364
  45.7612038  27.0028782  16.4366996  97.1507359   9.5990062  12.6331937
  97.5130081   9.1210037  11.8872023  97.8675747  10.1600862  12.9291129
  52.5582314  25.2214170  52.5824022  52.7545595  25.3415751  53.5115147
  53.0515385  24.4401312  52.3324537  44.8387623  11.1891735  31.8260622
  44.5505095  11.6859329  31.0603118  44.6383667  11.7576241  32.5696588
  59.9948502  14.7818983  32.2423792  59.3923569  14.6223140  31.5159059
  59.4914007  15.3138840  32.8586292  36.1879444   8.8540137  27.5890160
  35.5133724   8.1817043  27.4931884  37.0129156   8.3686721  27.5791669
  33.5962272  23.2309079  20.0027704  33.9745760  24.0400624  20.3467917
  33.3605313  22.7266884  20.7815146  20.8520865   3.7286440  35.7055783
  21.1491179   4.1095334  34.8791838  20.0073314   4.1468376  35.8721185
  25.6952310   2.3860681  63.6859131  25.0703788   3.1064489  63.6031914
  26.5534377   2.8091556  63.6592388  49.1196489 109.4096375  27.6926351
  48.9871073 109.8358345  28.5394073  48.5958147 109.9259281  27.0800376
   1.6329634  20.1089692  35.2551460   0.9071667  20.6796241  35.5077386
   1.6681540  20.1743913  34.3008327  18.7112343   3.8709542  43.1212282
  18.8944495   4.4068876  43.8928747  18.4954536   3.0079845  43.4747171
  44.3044472  27.7778316  34.7656083  43.4165859  27.6299334  34.4399357
  44.2774105  27.4846721  35.6764102  29.8556876  95.3451633  19.9956119
  30.0322604  94.5965481  20.5653715  29.5436859  94.9560261  19.1786289
  27.8948307 107.2341537  46.1174345  27.4002218 106.5495300  46.5678596
  28.8068008 107.0664406  46.3549566   5.2791589  81.3396835  37.7148914
   5.6898534  82.1349335  38.0542159   4.9505424  80.8891487  38.4928775
  40.0510454  40.9044981  49.8192596  40.2545404  40.2565193  49.1447639
  39.4716978  41.5297174  49.3837309  17.0656466  90.5356312  59.0984535
  17.1618295  91.4696503  59.2844343  16.5307474  90.5031776  58.3053207
  42.2140741   4.9079353  60.1537943  42.0637894   5.4438686  60.9325218
  41.5490627   5.1997435  59.5302200  88.8438702  90.3944492  18.0809760
  89.6982479  90.3464508  17.6520705  89.0021324  90.0691509  18.9671826
  29.2586303 101.2599087  49.2728949  28.5554314 101.0394669  48.6620378
  29.8604655 100.5172253  49.2234087   4.7271585  85.3742981  31.5790701
   4.0254870  84.9978352  32.1102643   5.4509443  84.7536469  31.6636896
  43.9557266  20.6220007  15.8765578  43.0993700  20.3706503  15.5305624
  43.9494801  21.5790272  15.8593953  37.6174235  24.2691970  64.1554070
  38.0921197  23.4486318  64.2879486  37.8516054  24.5407081  63.2678986
  60.5707026  38.5123062  30.0339079  60.7900333  37.6244736  30.3165364
  61.3717365  39.0152407  30.1809835  69.0376902   6.3578367   3.6435127
  69.3813515   5.8835256   2.8864408  69.5284843   7.1795630   3.6543107
  87.3510265  70.3953886  38.3393168  87.8427505  70.0185728  39.0690112
  87.5640011  71.3282871  38.3633590  16.1273301 106.0332203  26.5626192
  15.7091558 105.5836773  27.2969699  16.5916598 106.7675495  26.9643641
  40.8855677   1.8914467  36.9041705  40.8385229   1.7461376  35.9592366
  40.3434181   2.6658159  37.0547032  13.5145104 105.8953285  15.5598283
  13.4949827 106.5742302  16.2343180  12.6231611 105.8782101  15.2113509
  47.0334339  30.3333139  44.5741177  46.1471176  30.3888655  44.2169189
  47.5351095  29.8750901  43.8998938   8.1447154 105.4427910  35.4016972
   8.3750528 104.5355225  35.6017804   8.1477380 105.4853630  34.4454479
  55.0026894  26.4092755  37.4998522  55.4530478  27.1424985  37.9191303
  55.5954885  25.6666136  37.6150584  64.6220589  76.4435625  80.5615139
  64.3895483  76.8653536  81.3887119  63.7874317  76.3331175  80.1060772
  67.1524382  71.3135529  82.0159626  67.2811127  70.4564667  82.4222469
  66.6654015  71.1274052  81.2132263  95.9122562  30.5249000  92.7560902
  96.7742157  30.2058148  92.4887943  95.4783249  29.7579885  93.1299686
   1.5456329  12.5669980  48.8513184   1.8476807  13.1251287  49.5678997
   2.2796386  11.9764102  48.6819839  12.7739251 105.3197289  68.5006809
  11.8237698 105.3936195  68.5899973  13.1009722 105.3352737  69.4001436
  47.7550125  46.3871813  12.9853034  46.9174671  46.5441561  13.4213197
  47.5622511  46.4875221  12.0530975  84.4479561 103.8244915  14.3175697
  85.1108932 103.8179684  15.0080085  84.0618992 102.9491234  14.3479228
 111.3207531 107.5040817  56.8791151 111.6268253 107.8216076  56.0295677
 110.6814098 108.1575108  57.1628618  99.9809265  80.4367638  55.4777813
 100.3151798  79.6089125  55.1325750  99.8437595  80.2694893  56.4102173
  56.4559031  33.2980895  48.8744974  56.5656900  33.4725690  47.9397583
  56.2281418  34.1478682  49.2516327   0.5493411  49.9469900  51.5273619
   0.8047002  50.6318188  50.9092760   1.3758874  49.5442247  51.7935085
 102.1493530  29.2943883  32.7583766 101.7164516  29.9085975  33.3513141
 102.3525047  29.8147130  31.9810581  98.7309837 105.7765961  55.8802795
  99.4855690 106.0829926  56.3832188  98.2667637 106.5765190  55.6336117
  24.0245605 104.7451973  62.5398159  24.5746946 105.5285168  62.5386572
  24.6424222 104.0187073  62.6215744   5.6610209  94.9857235  33.0127978
   5.1285410  95.6593609  33.4357882   5.0355536  94.3025017  32.7714872
   9.4358879  49.8075151  24.9047041   9.7216642  50.5255413  24.3399000
   8.6311185  50.1285458  25.3115439  42.0623541  15.7525170   8.7273508
  41.1796856  16.1205339   8.6862260  41.9736624  14.9790657   9.2842525
  31.4775205  83.6706734  33.7820864  30.8511710  83.2006836  33.2316041
  32.2744942  83.7151241  33.2537961  22.9602957 100.2175617  48.1418037
  22.5037575 100.5524731  47.3700285  23.7688065  99.8391247  47.7963686
  30.7619786  27.6531625   7.7557963  31.2048197  27.2181511   7.0271754
  31.4465404  27.7752948   8.4135908  18.0205131  61.0426140  25.8039880
  18.6104178  60.4516411  26.2719560  18.1974185  60.8742523  24.8784661
  65.7897377  41.3385534  10.8880663  66.5201044  41.9568205  10.8645976
  65.6720734  41.1420202  11.8174529  48.8277245  42.6456881  37.4098182
  49.5189047  42.5940132  38.0699968  48.3918524  43.4798622  37.5841808
  36.9995070  11.3188839  84.9976635  37.2969651  10.9296966  84.1753006
  36.3854122  10.6787288  85.3572750  39.1710711  51.7731285  45.8834457
  39.6875668  52.2846460  45.2606964  38.2854772  51.7769241  45.5202150
  45.1111031  59.2596674  35.5658174  44.1927195  59.4117022  35.7887292
  45.3745651  58.5269451  36.1225414  78.3020926  24.8980498   7.9075372
  77.5640392  24.7211242   8.4908092  78.2895756  24.1757607   7.2795451
  36.2845588   1.2593277  14.7623336  36.0984993   0.4746152  15.2779305
  37.1707654   1.5116760  15.0215447   2.8286007  12.4101901  17.9054606
   3.3873031  11.9496131  17.2793996   2.8454736  11.8620324  18.6899793
  90.9178925  88.0037975  94.0497494  90.5483437  87.7863121  94.9055290
  91.5693855  88.6801529  94.2350674  35.5406857  89.9922371  31.7240453
  34.7623277  90.5472279  31.7727566  36.0516787  90.3591156  31.0025787
  79.5754576  72.1686411  59.4450903  79.5607328  72.8758192  58.8001776
  79.2930555  72.5824070  60.2607346  59.5265388  16.8944168  54.6331501
  58.9233541  16.9823396  55.3711653  59.5365238  15.9564674  54.4424057
  38.7553573  43.8822126  15.3542662  39.0439463  43.7727737  16.2603414
  38.0558801  43.2377911  15.2461886  81.6246223  25.8278918   5.8475208
  81.3872051  26.4701414   6.5163857  80.9499931  25.9219217   5.1750106
  19.0077424   1.1118799  41.1690807  19.0611029   1.4422099  42.0658922
  18.2415390   0.5381533  41.1703539  42.0444059  19.4000220  10.8504462
  41.4159346  19.3163991  10.1333249  42.7328682  19.9657214  10.5008221
  70.4469109  37.2137260  17.0353377  69.9732113  36.5443063  17.5290167
  69.8860741  37.9879713  17.0826674  82.7485561  23.2634211  18.0920565
  83.0867386  22.7921009  18.8534510  81.8181801  23.3865380  18.2804000
  13.8405657  17.9435575  64.1859388  14.6719563  18.2624352  63.8347387
  13.9056456  16.9903719  64.1273308  55.3464603  36.4711499   6.3721675
  55.5743408  35.7649565   5.7675266  54.5509434  36.1657596   6.8081999
  72.1327400  37.0986676  50.4289961  72.3038197  36.3785315  51.0359287
  72.7893925  36.9928694  49.7406292  39.8329091  28.8131189  36.7851734
  39.8005104  29.6339154  36.2937713  40.0870323  29.0738320  37.6704335
  29.3731689  39.5359778  33.0604792  29.5148492  39.4652820  34.0044928
  29.0931034  40.4415751  32.9274726 115.4439735  84.8189449  57.4115133
 116.0708714  84.1138458  57.5729752 115.0865078  85.0241089  58.2754374
   3.7914762 107.7494144   3.1682423   3.6336410 107.4158955   4.0514687
   4.0613383 106.9802475   2.6664528  52.6914597  40.7340384  39.5194149
  53.1751442  41.4563608  39.1187501  52.7413750  40.0266171  38.8765311
  43.0756187  52.8240013  47.7680969  43.4604359  53.6826277  47.5922918
  43.8088989  52.2914219  48.0761290  38.8574505  18.6478162  45.6422758
  38.5320926  18.6532521  46.5424633  38.5621929  19.4813538  45.2758455
   6.6872495  89.3025398  35.7740450   5.8264202  89.7118568  35.6864738
   6.6229701  88.4973621  35.2604461  67.6715422  13.7333941  25.5926085
  67.4292660  13.3912516  26.4531159  66.8407154  13.8132429  25.1240134
  90.2917671  26.8506885  31.1033201  89.7681904  26.0795522  30.8854938
  90.8107185  26.5815401  31.8612623  65.6111002  15.5146086  54.5065880
  65.6640434  14.5608211  54.4456148  66.4575005  15.7789123  54.8671198
  59.4673681  36.2152648  70.6459904  60.2842855  35.8731866  71.0091162
  59.6036053  36.2051225  69.6985912  88.0465698  39.3906784  50.3589106
  87.9821205  40.3450632  50.3938770  88.8804436  39.1911793  50.7844400
  48.0815554  51.7750168  39.0480018  48.0226612  52.2919559  39.8514557
  48.3259773  52.4082899  38.3731294  72.6333189  33.9601111  42.6290464
  72.6857138  33.1545472  42.1147013  71.9044924  34.4447374  42.2415161
  75.8757067   0.8219408  14.4856238  76.3411474   1.4596653  13.9444196
  75.0655174   0.6473407  14.0067232  47.7401924  11.0256338  13.0739689
  48.0270052  11.4629900  13.8756478  47.0729208  10.4044127  13.3656287
  66.1617994  41.1013985  46.6794968  66.3050318  40.3841019  46.0620832
  66.9546032  41.6339970  46.6159773  57.8930426   6.0273111  73.6166477
  57.5846243   6.1651558  74.5122528  58.8335133   5.8743680  73.7080717
  25.8069253   5.6363219  51.6104460  25.8642197   4.8937249  52.2116947
  26.1624122   6.3739103  52.1062517  32.7990723  34.4913220  28.2951522
  33.6648178  34.8718452  28.4431982  32.6432776  33.9438748  29.0647364
  21.5817738  33.4068084  49.9501610  21.2817407  33.2336903  49.0578365
  21.4200878  32.5887680  50.4201603  42.5050735  54.5941925  32.1356320
  41.6511059  54.1623640  32.1132874  43.1373739  53.8771868  32.0873260
   4.5633087 108.0639553  36.1703563   5.0694859 108.8163280  36.4768648
   4.8895201 107.9002666  35.2854705  57.0404339  37.4835944  48.9532328
  57.7857876  37.2708035  49.5148420  56.3890743  36.8118286  49.1549492
  34.9763918  35.7534242  29.4859052  35.7388020  35.3517580  29.0692210
  35.3210568  36.1467147  30.2876306  46.1893177  17.1408987  17.5740921
  45.7281590  17.7969074  18.0967963  47.0158577  17.0036674  18.0369365
  56.2193251  31.4139605  43.5591412  57.1194410  31.2673712  43.8498926
  55.7278156  30.6762695  43.9203405 104.8775101 109.1782284  38.7984443
 105.4390240 108.4033966  38.8223767 104.7358894 109.3999100  39.7187877
   8.8665324  28.7109375  36.5001035   9.4289821  28.5488915  35.7427239
   8.7787795  29.6635103  36.5338302  80.7955360  17.1584904  23.4715390
  81.5314579  17.3728323  24.0448737  80.5192757  16.2861276  23.7524128
  57.8765631  38.2572460  29.2363572  58.8047457  38.4423137  29.3794060
  57.6372290  38.7996674  28.4848714  45.9134436 106.3704777  46.8464756
  45.1848555 106.5921783  46.2666130  45.5546045 106.4649105  47.7288294
  20.2409792  36.0644031  59.3434620  19.9174392  35.1677871  59.2561007
  19.6805191  36.4571285  60.0127029  44.5292234  31.3593888  20.4990554
  45.2848577  31.1117196  21.0318828  44.1230774  32.0805073  20.9799576
  19.1070616 104.7593117   1.9342133  19.4834709 103.9117241   2.1711817
  19.7084522 105.1137733   1.2792960  48.9400864  59.9875069  12.2526884
  49.5122528  60.2724934  12.9651761  49.1064072  59.0482378  12.1730399
  32.0050120  45.9492731  59.5632744  31.8015814  46.1279154  58.6451578
  31.7057228  45.0511074  59.7045326  24.9429515  14.3272985  94.5794549
  24.6725371  14.6383633  95.4433685  24.1406825  13.9830507  94.1869115
  75.1341152  18.5634971  54.5764256  75.1265192  18.2623625  53.6678600
  76.0537338  18.5142088  54.8374033  34.5357847  40.8845186  43.0617094
  33.6664486  40.9227705  43.4604836  34.8102093  41.7992735  42.9972982
  19.0889347  20.3939581  40.2517033  18.3124089  20.1653290  39.7408533
  18.7416136  20.7838178  41.0539579 115.4632568 100.5038929  29.1362238
 114.6714878 101.0399342  29.1807818 116.0902500 100.9553337  29.7013044
  11.8308914   8.5312390  35.8513880  12.3999918   8.2411003  35.1385260
  12.4189806   8.6379635  36.5990472  49.8928595  22.3856139  48.4372663
  50.7340050  22.4205494  47.9817629  50.1145458  22.1192050  49.3295193
  59.7169447  27.1964383  69.0607548  60.4750252  27.0389962  68.4979439
  59.9503613  26.7911005  69.8958921 112.7755737  60.5461454  93.5660076
 112.0906162  59.9697495  93.9048767 113.2158279  60.0256681  92.8940582
  45.8615923  51.8818092  47.3888206  45.9019470  51.3787365  46.5754843
  45.7492208  51.2220812  48.0731869   8.4623909   2.0522083  82.2029686
   8.6407769   2.1506558  83.1382370   8.6550832   1.1330631  82.0178413
  81.2760544  33.8698363  45.2108955  81.3278103  34.3056822  46.0615349
  82.1541595  33.5161948  45.0691462  68.3181858  60.8767748  26.2299514
  68.7798119  60.1869631  26.7066979  67.3976135  60.6167698  26.2642336
  25.6779337  22.3189044  17.7603745  25.6120658  22.5934005  16.8457460
  25.4144502  21.3987064  17.7538419  26.3158965  18.8744926  38.9944983
  26.5409350  18.3502436  38.2258940  25.8831739  19.6499288  38.6371756
  73.5655546  23.4329629  27.2718978  73.8594341  22.5761843  26.9623876
  73.7545824  24.0276074  26.5460205  11.6342568 107.8533363  16.0055113
  11.0457802 107.4696445  16.6556704  11.7269790 108.7668514  16.2759268
  77.8324175  35.5671620  49.8708630  77.7625275  35.0948858  49.0412235
  77.4895573  34.9567175  50.5235815  77.4897623  29.0695977  30.7754779
  78.0759907  29.4149137  30.1021838  76.9259024  29.8085523  31.0040307
  55.8763599  42.5600481  60.8090210  55.2397633  43.2713795  60.8796453
  56.6942692  42.9376030  61.1326075  15.8177316  48.7288094  11.5401602
  15.1226723  49.2164135  11.0981584  16.6125464  49.2324781  11.3646185
  71.7830420   4.1042843  35.1364446  71.8824625   3.6202830  35.9562564
  72.6017523   4.5917720  35.0453162  69.4575214  38.1635737  39.8647451
  69.1553259  38.3424187  38.9742827  69.8682499  38.9808202  40.1469564
  26.9170666  17.7758241   3.3314705  26.1161137  17.9591191   2.8404409
  26.7443371  18.1189525   4.2082030  55.9002686  14.4204569  43.0478430
  55.5484676  14.4607425  42.1585464  56.7593575  14.8378479  42.9847002
  65.9021807  54.3342400   1.8342687  65.8889771  53.6418676   2.4950835
  65.6786346  53.8893652   1.0167447  64.3824863  26.6073871  15.6351674
  64.5987844  27.1132874  16.4184368  63.5290241  26.2195706  15.8286357
  56.0659122  37.9494572  37.8419900  56.5325308  38.1127739  38.6616397
  56.6466045  38.2933307  37.1631837  93.5741234  80.8196640   3.3229041
  94.1006947  81.2080956   4.0215272  93.3479118  79.9487925   3.6494541
  13.0092466   9.8462760  47.8367567  13.9398515   9.6234494  47.8603029
  12.7016771   9.6848851  48.7287140  39.1426730  53.1136990   5.3365016
  38.6671734  52.9105473   4.5309821  38.5546947  52.8349352   6.0385025
  53.4802485  11.1286843   7.6334107  53.9608145  11.9092071   7.3575991
  53.9746428  10.3987873   7.2605032  63.3306122  61.6983986  29.3476987
  64.2124510  62.0621395  29.2684197  63.4204483  60.7885408  29.0642858
  55.9987640  41.2015200  43.7523746  55.6948233  40.3094292  43.5849619
  56.0469532  41.2630606  44.7063780  51.6415262  19.2130136  50.6341600
  52.2459316  19.6979105  50.0721979  51.1052465  19.8889506  51.0485840
  73.7680244  70.2671480  10.7171011  73.5391855  70.8843660  10.0221860
  74.6866417  70.0529814  10.5542886  52.3975325  10.3196919  12.0097506
  52.7549553  10.4324019  12.8905344  52.7914906  11.0269761  11.4990842
  99.9014568  68.5054779  91.6415691  99.2439270  67.8104210  91.6136551
 100.3850555  68.3452940  92.4519444  51.5444851   3.4223756  46.9945288
  52.0790434   2.6305515  47.0536470  50.6707954   3.1050292  46.7660809
  36.5668440  46.4747763  71.6077995  35.9796023  45.8388615  72.0164442
  36.8708205  46.0419273  70.8100080  -0.0329190  87.4812794  44.3443775
  -0.6742653  88.1412125  44.0809345   0.7760815  87.9744530  44.4805241
  67.4744940  33.8940573  55.0657034  67.4586105  33.4405661  54.2228937
  66.9545794  33.3384943  55.6464529  60.3647900  46.3478327  32.8901553
  59.7148466  46.9587994  33.2373285  61.2077761  46.7437410  33.1112194
  66.5760231  26.0139513  24.9540138  66.7243528  25.2224422  24.4365740
  65.9459305  25.7477784  25.6236148   6.0020435  10.2640474  44.4099522
   6.0431457   9.4957793  44.9794292   6.7961121  10.2107239  43.8781214
  66.4607430  14.2040539  61.7212725  66.0173941  14.3207145  62.5615501
  66.1049986  13.3859468  61.3743162  81.3292408   4.4877017  25.0795364
  81.7408371   3.9959261  25.7901525  82.0293903   5.0420719  24.7350216
  32.4427557  23.9683342  52.7793264  32.5393891  23.5565209  51.9206619
  32.5032210  24.9071813  52.6028585  80.5073833  24.4242501  14.7200024
  81.4143848  24.2016220  14.5102131  80.3738976  25.2847505  14.3225670
   5.6212837 103.0489826  40.3583622   5.6757307 102.1352386  40.0784588
   4.9397987 103.4290886  39.8039961  52.2505474  31.5141582  46.1059427
  52.2707081  31.7126441  45.1697636  52.4503756  32.3477554  46.5318727
  21.9046712 106.0243988  63.4544659  22.6282501 105.5267620  63.0736399
  21.2467813 106.0598850  62.7600956  45.6523371  30.4933619  32.3089218
  45.8053589  30.1750588  33.1985855  46.1894274  29.9260116  31.7558599
  40.0644732 102.7135181  27.0562196  40.5179548 101.9820404  26.6372561
  39.7473216 103.2474995  26.3278580  19.1399395  37.2092509  57.3197222
  19.8219979  36.8752003  57.9023361  19.6157801  37.5336075  56.5551329
   4.9550730  32.9040360  51.1742640   4.7329146  33.7929821  50.8974075
   4.2769474  32.6745486  51.8096495  92.6191711  89.2945099  66.1967659
  93.4540462  89.7350883  66.3552570  92.4027252  89.5105934  65.2897406
  86.4088154  18.0800045  51.7592764  87.0130634  18.5995424  52.2895622
  86.7328644  17.1826708  51.8368483  42.8917217  28.0380607  14.6088719
  43.0113220  27.8368783  15.5370164  42.1368885  27.5118804  14.3450761
  57.0042276  32.3530436   7.1985793  56.6300917  31.5804553   6.7750704
  57.8863478  32.0827889   7.4536508  60.4308605  26.8235278  17.8430068
  61.2177420  26.5492439  17.3720276  59.7711611  26.9406295  17.1594024
  25.3855395  47.0907307   6.5093493  25.3426671  46.1414337   6.3942993
  24.9865007  47.2465134   7.3653466  73.9801598  57.8200483  44.9098396
  73.5443735  57.6284218  45.7402611  73.3627510  57.5232983  44.2412806
  85.8930111 100.8480930  94.3535328  85.9275532  99.9406624  94.0508556
  86.7971516 101.1560535  94.2909050  47.3989773  20.9317470  53.5945368
  47.8911543  20.9501934  52.7737761  46.8044615  21.6795039  53.5341644
  70.0034237  28.0009007  35.5015874  69.0626192  28.0950713  35.3524256
  70.1590586  27.0572996  35.4612446  51.6971111  55.1160288  26.1336136
  50.9116507  54.5704365  26.1737394  52.4173069  54.5129395  26.3175535
  52.0327663  42.3101854  17.4972928  51.8265057  41.5997171  16.8899012
  52.9093885  42.1020794  17.8204823  83.5762215   3.2665315  75.9955263
  84.0643597   4.0418395  76.2727404  84.0216923   2.5365821  76.4255953
  34.7040081  43.8944530  16.7205298  35.3738475  43.3395338  16.3210130
  35.0976086  44.7666979  16.7427623  49.9664974 105.7976341  20.3763485
  49.6997547 106.1559582  19.5297766  49.1511393 105.7219219  20.8720207
  78.2757425  39.4975805  35.4881001  78.3530569  39.0401840  36.3253808
  77.5321436  39.0790892  35.0543308  47.4870110  52.5242376  50.9338522
  47.9103422  52.6235962  50.0811195  47.5219345  53.3985472  51.3219213
  31.6350222  18.8792300  14.9175572  32.5346136  18.5600829  14.9890578
  31.3768578  19.0718281  15.8189380  47.8468513  15.0102341  37.5475621
  47.3710728  14.2860126  37.1409035  47.2101688  15.7240009  37.5850701
  46.4966345  52.4428034  18.8276994  46.3996220  52.2165155  19.7526944
  47.3195744  52.0303440  18.5652554  21.5984774  32.9724193  21.1050200
  22.0692587  32.8713799  21.9322968  20.9003520  33.5971260  21.3014746
  69.7375965  25.1952767  24.1337347  70.1671553  24.3745160  23.8927770
  69.2223215  24.9769449  24.9103022  56.6618395  37.8707647  59.3623734
  57.0527840  37.1370816  59.8368263  55.8543539  38.0616093  59.8396301
   1.0132387  72.6983213  28.0547333   1.8610692  72.7323341  27.6117229
   0.4200824  72.3164845  27.4077439  47.4199724  25.6547022  34.5435262
  47.4426746  25.6005979  33.5881257  47.0280981  24.8266697  34.8210692
  28.8955259  28.0579162  39.8589182  29.1959953  27.6880693  39.0287614
  27.9531574  28.1772065  39.7408557  46.8957615  37.7375698  36.3847470
  47.6472235  38.1710386  35.9802222  46.7780018  38.1915379  37.2191811
  82.2197819  52.4927282  42.3503542  81.4072514  52.1523380  41.9759798
  82.3918438  51.9273615  43.1033373  25.9577560 107.9106617  53.4978628
  25.9451175 106.9824791  53.7314224  26.0584974 108.3665562  54.3334723
  38.9723969  48.1421089  49.0606070  38.9057374  49.0025806  48.6466312
  38.2167435  47.6573849  48.7285519  68.0818653 105.1027584  93.7016010
  67.6617527 105.6915665  94.3285275  67.5248432 105.1436520  92.9242420
  48.5766363  52.0343399  26.7598915  48.1243992  51.5514946  27.4516845
  48.1727266  52.9020882  26.7701006  28.4423947   1.9509445  51.9130850
  28.2404780   1.9376786  50.9775162  27.9048705   2.6609486  52.2640753
  72.6851320  24.8785043  51.1707067  71.7476606  25.0629067  51.2288284
  72.8311491  24.1773868  51.8058014  61.3527298  26.4477038   9.8521227
  61.9434404  25.9734702   9.2669743  61.9310236  26.9915605  10.3869402
  53.5249758  17.6326585  11.8472803  52.6826715  17.1783710  11.8666160
  54.0879011  17.0709097  11.3145649  68.9836550   6.9315886  25.0306439
  69.9284935   6.8630582  25.1678181  68.7269068   6.0715175  24.6980929
  41.2251425  15.0609148  65.3723192  41.9013023  15.3736019  64.7712612
  40.5424213  15.7307410  65.3341818  62.1709490  12.2630191  54.3387604
  61.9937134  12.7793145  55.1250553  62.5177383  11.4343977  54.6694469
  49.2939520  38.9267564  27.0561290  49.8137474  39.2261267  27.8020644
  49.9111271  38.9120317  26.3246202  52.5547886  55.8282900  45.8857536
  51.9669962  55.2376270  46.3567686  52.0167017  56.1906338  45.1819086
  49.3800259  51.2792921   8.6872619  49.8052120  51.5364265   7.8691369
  48.5036802  50.9985018   8.4237945  46.1800861  85.6994343  27.6463842
  46.8500853  86.3164425  27.3520637  45.3507042  86.1223125  27.4238396
  11.9899333  89.2942142  28.9278555  12.0093620  88.3856106  29.2283249
  11.1269867  89.3952560  28.5261750  66.0041380  70.0089741   7.5360143
  65.5557394  70.1475620   8.3702618  66.8744755  70.3854418   7.6664567
  50.5688429   9.1566330  50.7228708  50.1019526   9.9425328  50.4389620
  51.2545013   9.0350038  50.0661278  77.4091625  16.4910543  22.8752613
  77.9573870  16.1120534  22.1882105  77.9968834  17.0732915  23.3567333
  68.8737249  22.3425245  41.4517879  69.5941639  21.9884610  41.9731665
  69.2597198  22.5091743  40.5918646  65.7450628  21.6584754  82.6260948
  65.8280849  22.6119971  82.6377583  65.1957083  21.4751935  81.8639565
  24.0974808  30.3780365  26.1549664  24.4525933  29.7559977  26.7899418
  23.2434249  30.0167847  25.9176517  32.1894717  38.3989406  35.2551579
  32.7423978  38.6407280  34.5121598  32.7192163  38.6055255  36.0251737
  41.3018560  28.9674449  10.5214596  42.1705246  28.5941362  10.6707227
  41.4383078  29.9141240  10.5590439  44.9407816  37.5587034  29.4572330
  45.7328033  37.3978662  28.9443302  44.5552731  38.3413768  29.0634847
  76.5042114  16.5736711  44.4712591  76.3459110  17.4270165  44.0675592
  77.2380686  16.2076139  43.9776087 109.6651459  76.7900133  81.7712021
 110.1385403  76.3233900  82.4599743 108.7453175  76.5736961  81.9240093
  48.7843418  52.2507906  31.9019341  49.5811319  51.7313910  32.0095301
  49.0713835  53.1565475  32.0178819  24.1049719  94.9024200  12.9103899
  23.7797570  94.2588234  13.5398781  23.3276963  95.3965855  12.6498640
  18.8452852  43.2303810  80.5839252  19.1704452  43.0946589  81.4739132
  19.5490003  42.9090500  80.0202179  94.5220280  66.5220690  47.7741432
  93.9533520  65.8797407  48.1987047  94.0069771  66.8467999  47.0355606
  67.7215672  35.0096464  48.9713860  67.4254560  35.1022124  49.8769140
  67.0374537  35.4313421  48.4513950  25.3293467  16.6621673  25.3542256
  25.0112247  15.8713853  25.7897663  26.2803221  16.5559852  25.3296566
  93.0217266  98.8381100  36.6304278  92.1871185  99.3066597  36.6189599
  92.8408241  98.0386734  37.1248078  34.1893244  28.5111070  55.7972860
  34.3588066  28.7855530  56.6985035  34.9037743  28.8975334  55.2908611
  54.0536547  40.0536585  41.8393993  53.4589958  39.4602060  42.2981215
  53.6486244  40.1829338  40.9818077  51.7919254  19.6050870   8.0747968
  52.1162128  20.4688716   7.8199512  52.5782061  19.1160476   8.3173585
  93.4198475  29.5833540  59.7755194  93.6147499  29.7386193  58.8513231
  93.1820107  28.6571383  59.8178196  60.2343225  29.9803519  10.9763253
  61.1745977  29.8127389  11.0397398  59.8698950  29.1695118  10.6214142
  38.4824157  17.1314621   8.7780291  38.6815500  16.1952364   8.7856895
  38.5196877  17.3917973   9.6983922  49.4188499  25.8837199  31.1764669
  50.3432560  25.8494329  31.4224839  49.0876245  26.6758823  31.5995502
  81.9201660   1.3873295  52.2786665  82.4656105   0.7546213  52.7459955
  81.2055779   1.5816174  52.8851700  48.9772367 106.2521362  35.2620387
  49.2516279 105.3416920  35.1523161  49.1622353 106.6615677  34.4168329
   0.9031181  95.6724358  33.5360527   1.6605474  95.0872517  33.5265303
   1.0732409  96.2959003  32.8299475  48.5235691  42.7577734  34.7727942
  49.1967297  43.4203005  34.6174121  48.5131884  42.6452017  35.7232952
  34.4122219 108.1022549  75.9958458  33.9846063 108.5796356  75.2848721
  34.4305038 107.1931267  75.6968784  82.8375053  36.9771457  41.9550228
  82.7321434  37.4093652  41.1074877  82.5240040  37.6192355  42.5919437
  96.1826801  59.8042297  29.9329925  96.8071747  59.4417667  30.5613732
  95.7866764  60.5463552  30.3897810   8.0245119  24.1912866  19.9743724
   7.7953857  23.4552956  20.5418682   7.8957313  24.9654388  20.5223989
  69.8481035  16.6754282  11.5933263  69.0214777  16.2617028  11.3448358
  70.3938341  16.6098714  10.8096707  43.8874006  40.3707170  42.3661423
  42.9501867  40.5648756  42.3789644  44.2013168  40.6484032  43.2267141
  85.6647301  52.8655672   5.6013942  86.0864639  53.6918688   5.8371890
  85.7430267  52.8200722   4.6484873  75.6057453  89.2999458  92.9867554
  75.4424238  89.6120453  92.0967293  75.0242233  89.8261356  93.5355663
  97.1164989   1.2615333  38.7605214  97.7794361   1.5960243  38.1564784
  97.3184299   0.3297623  38.8457131  41.1131239  60.3572512  66.2557411
  41.4752150  60.2391481  65.3775740  40.2226019  60.6751156  66.1068726
  28.8469625  55.0832605  41.9190979  28.0256534  54.6053839  42.0344830
  28.8319397  55.3682137  41.0054159  50.5857563  39.0832567  48.7833357
  51.1681175  38.5445118  49.3189096  50.4134798  38.5506773  48.0068636
  53.4782171  36.6028142  11.9299853  52.7062321  36.2987328  11.4527011
  53.1562471  36.7902064  12.8117168  54.2294264  20.0572848  10.7694280
  55.0050116  20.3740597  11.2324095  54.0710592  19.1869462  11.1350250
  46.7694187  25.3180695  21.4935970  46.9038534  26.1750746  21.0889912
  47.4376822  24.7587633  21.0975790  47.9609585  18.8426101  68.1448793
  48.2276344  19.6252799  67.6626539  47.9627752  19.1145301  69.0626431
  40.0171041  20.5692482  42.5279713  39.6717930  20.5337977  43.4200096
  39.5251060  21.2751293  42.1085644  45.3528547  51.2033892  60.1323080
  45.8698225  51.3341427  59.3373966  44.4546986  51.0965681  59.8190355
  61.0679293  13.0074072  23.8178062  60.9771442  12.3880017  23.0937004
  61.8016863  13.5670924  23.5636616  61.1326027   0.8484569  21.4783454
  60.8968115   1.4691690  20.7888865  60.3854179   0.2523832  21.5297604
  97.2437000  64.8257446  94.1274834  96.6277790  64.1827202  94.4787502
  96.9880676  65.6516027  94.5383835  57.4530888  42.8850412  25.9542179
  57.7123404  41.9660139  25.8878326  57.6425648  43.1223869  26.8619609
  69.2117023  37.0984483   9.5646149  69.7278023  36.8535161  10.3326511
  68.9416313  36.2638950   9.1814500  68.0481434  25.9224582  21.9234729
  68.8270473  25.7544899  22.4538708  67.3611736  25.3970695  22.3336840
  55.6422472   0.5338887  26.3044143  56.4549208   0.6353185  25.8089352
  54.9586821   0.4857396  25.6360912  18.4091818  28.7118816  34.6825814
  17.6753867  28.0982113  34.7169828  17.9998183  29.5678997  34.5565295
  55.6903982  58.3637476  24.4692874  55.8472824  58.5729551  25.3900766
  56.0445404  59.1126919  23.9898062  61.6017342  35.9118009  26.7855883
  60.6497717  35.9152579  26.6856480  61.7878103  35.1132512  27.2794771
 114.4885349  23.2040930  28.7029719 115.0613403  22.9184842  27.9912448
 114.2361259  24.0959644  28.4640503  74.3091202  38.2850504  55.7080889
  73.6094761  38.9266014  55.5850410  73.9323235  37.4587607  55.4055977
  41.9363689   2.5925329  39.9499035  41.2768364   2.5197798  40.6397963
  41.5452862   3.1830019  39.3059826  56.1805010  41.2136698  46.4323902
  55.3097105  41.0041475  46.7701149  56.7825794  40.7781410  47.0357466
  89.2766285  24.2073321  30.8367634  90.0476074  23.7836671  30.4594970
  89.2173862  23.8512230  31.7232800  53.3929396  40.2151728  47.3045969
  53.6986303  40.6187105  48.1169653  52.5919628  39.7537065  47.5530100
  22.9531336  83.7131405   2.6019427  23.2455754  82.8621769   2.9283962
  23.7532663  84.2353153   2.5440422  73.7698126   9.3634391  31.1728907
  73.7305593   8.4137923  31.0594821  72.8691721   9.6581966  31.0379744
  74.8449421  54.6571684   9.5017970  74.7089052  54.2696571  10.3664124
  75.3110027  53.9827204   9.0076864  74.8786306  64.9631071  32.9745579
  75.5659580  64.3220186  32.7934003  74.9093390  65.0855160  33.9233994
  52.6537991  35.5740047   6.8106240  52.2215891  36.2340379   6.2686086
  52.2054482  34.7561908   6.5952396  46.5181541  55.3111649   9.7139394
  47.1294975  54.8927593  10.3200960  46.1905956  54.5940542   9.1710860
  64.2094755  59.1737890  27.7487683  64.3996382  58.2551575  27.9389882
  63.4701633  59.1445684  27.1414804  43.0686569  56.7896080  23.3514690
  42.6492548  57.5849962  23.0233073  43.8296080  56.6683245  22.7835989
  36.9157529  36.3239765  23.4056520  37.8422236  36.4733577  23.5942578
  36.6545963  37.0774293  22.8761840  63.4192228  24.6929836  20.2394772
  63.9589357  25.4106641  20.5709529  64.0384769  24.1117835  19.7979295
  64.8160267  36.0909414  24.8795772  64.4364882  35.2135420  24.9280715
  64.8604822  36.3833261  25.7899427  73.6246777  45.9838724  45.4929161
  74.2464399  45.4656935  46.0039282  73.7111187  45.6496048  44.6001530
  83.2624531  33.9728332   8.2031488  83.5828400  33.1219411   7.9038757
  84.0535641  34.4567966   8.4401268  93.8293743 103.2470703  94.4729328
  92.9147148 102.9881287  94.5851135  93.7859631 104.0911579  94.0236473
  79.2671585   3.3505940  31.0384059  79.9850035   2.7627233  30.8031631
  78.6296272   2.7867925  31.4764857  70.3358746  34.9223590  38.0862880
  70.4524469  34.5769668  38.9713573  71.2174320  34.9280882  37.7133846
  79.2480564  21.4983106  37.3486304  79.4002056  20.5555964  37.2824836
  80.0781345  21.8531370  37.6669216  71.0181856  43.1732845  36.6508007
  71.7928314  42.8870440  36.1668348  71.3519859  43.8113546  37.2814178
  59.0885687  17.6967156   9.5309258  59.2189693  16.7704213   9.7339231
  59.4833374  17.8103209   8.6663556  41.3605213  49.6380711  36.1323023
  41.7441893  50.2903986  35.5462146  41.6352558  49.9114037  37.0075417
  45.4410839  53.1793022  28.7659264  45.8291101  53.7791204  28.1288338
  46.0944176  52.4879551  28.8728046  73.6864233  46.4959288  21.7723393
  73.5495710  46.2717485  22.6927996  73.3166218  45.7574749  21.2884331
  65.4410410  12.6772928  30.8820367  65.2445984  11.7978799  30.5591154
  64.6982670  13.2089615  30.5959487  75.0306368  37.7065563   6.4963132
  74.6934319  38.6017632   6.4626747  74.4493246  37.2544718   7.1078116
  93.1145191  31.0424042  36.1718559  93.6590195  31.6598797  36.6602039
  92.2178268  31.2614369  36.4252353  70.4327059  12.8421140  43.6350393
  69.5761347  12.4442852  43.4793234  70.2948856  13.4219575  44.3840551
  56.8511677  30.4106712  15.7261562  57.1980667  30.4164314  14.8340464
  57.6245594  30.3230834  16.2833142  89.9960899  22.5165081  62.2877502
  90.0532913  22.6510835  63.2337141  90.7930660  22.0351100  62.0656824
  70.9523487  45.8517170  46.1419964  70.4866219  46.5299797  45.6528234
  71.8663263  45.9484053  45.8745575  76.2845755  23.0020571  14.0990901
  75.5915022  22.9771614  13.4393466  75.8189535  23.0547571  14.9337459
  44.9787474  41.0213995  34.5275497  45.2512980  41.9282818  34.6672368
  44.6779013  40.7266188  35.3871012  44.9592876  51.0917139  25.1483846
  45.5652380  51.0712671  25.8890867  45.0785542  51.9607639  24.7652888
  49.8764515  21.7774487  85.5605984  50.0392771  20.9661865  85.0793743
  50.4716539  22.4141884  85.1649570  82.6520157  91.8897247  93.7375736
  82.0387268  92.5959110  93.9410686  83.4077358  92.3326111  93.3516026
 102.0928383  32.0548058  38.2097220 102.1825123  32.6149797  37.4387503
 101.2342644  32.2779059  38.5693288  91.6102314  62.6016188  79.8917913
  92.2031593  63.2747650  79.5578051  91.9694233  62.3695517  80.7481575
  65.2729130  33.5317731  20.8878350  64.3398571  33.4207129  20.7053256
  65.3209400  33.6298466  21.8387842  21.0395861  56.3633680   9.4293576
  20.6770778  56.3828135  10.3150451  20.4377055  55.8057213   8.9364052
  45.7056284  50.2133131  45.0820494  45.2031088  50.4898024  44.3157196
  46.4302397  49.7021675  44.7216320  79.7750568  34.0277338  20.6075025
  79.1437244  33.4987044  21.0951281  79.3521118  34.1882992  19.7639573
  64.2100620  32.3646998  33.5309672  64.5936203  32.3617101  34.4079542
  63.3178759  32.6862049  33.6608505 105.6110954  42.6292896  26.3750052
 104.9869061  42.4976635  25.6613564 105.3259087  43.4401846  26.7961311
  62.7672720  37.2864962  22.1110415  62.0162725  37.7755904  22.4472260
  63.4078217  37.3127317  22.8218412  25.0452566   2.7621734  90.1719761
  24.2505407   3.2491896  90.3898525  24.7871065   1.8425171  90.2337933
  46.4359379   7.2643030  25.2706480  47.3844433   7.3498780  25.3668022
  46.2563467   7.5734997  24.3827415 106.6000748  62.7340555  45.2296686
 105.6591320  62.9043293  45.1866627 106.7833519  62.2044516  44.4536781
  89.2768097  44.3876791  27.4782300  89.4057846  44.4763136  26.5339112
  88.3322239  44.4822741  27.6008701  54.0784502  60.5779457  26.0392356
  54.9833822  60.3059578  26.1920667  53.6138773  60.3230953  26.8363881
  79.6490383  44.2943954  41.7107868  79.7071266  44.3507814  40.7570171
  78.7933016  43.8984442  41.8756294  68.4131050  48.1093550  27.7537060
  67.5166512  48.3976269  27.5819397  68.9623070  48.7824249  27.3517299
  59.1645527  46.5571165  14.3154466  58.8200188  46.9985676  15.0917518
  59.8759794  46.0094213  14.6473122 105.6052113  12.6111937  92.7177048
 104.8813438  13.0796361  92.3020077 106.2021160  13.3011651  93.0073261
  90.1928806  58.6591625  27.7384305  90.9086227  58.2641459  28.2363296
  89.6561527  57.9168749  27.4606276  39.5839238  20.7217979  15.0496197
  40.3567457  21.2862897  15.0677574  38.8948321  21.2459517  15.4578400
  89.2409229  17.5081325  25.8182287  88.5754681  17.6307070  26.4952636
  89.1424084  18.2684422  25.2451181  52.7270126  28.4862375  33.8132191
  51.8405771  28.7959647  33.6273885  52.9542923  28.8969994  34.6473956
  84.5469284 109.4914246  80.1637268  85.0613499 110.2248669  79.8265934
  84.7830200 109.4389534  81.0898685  99.7662926  45.1933146  41.4830112
  99.4177151  45.9263420  41.9903564  99.6433353  45.4538631  40.5701971
  94.7007942  19.2882824  41.9176674  93.7783813  19.0818548  42.0686102
  94.9587631  19.8045671  42.6812983 109.4586658  77.7235889  92.6362705
 108.5865021  77.6910830  93.0293560 110.0499249  77.4661160  93.3436203
  12.5703120  86.8510723  83.3092499  12.4578047  86.8595791  82.3587227
  12.1094072  87.6334667  83.6120033  66.7008018  26.2698007   6.6188174
  67.1036053  26.7959762   7.3095590  67.1507025  26.5403891   5.8184379
  68.9613724  21.5277147  17.8290963  68.2938433  21.1355066  17.2662354
  69.4234753  22.1429205  17.2596955  64.9540091  57.4884701  10.8062410
  64.4849253  57.2178364  10.0169694  64.5266628  57.0081425  11.5153921
  68.3812666  98.4154224  92.3046875  68.0217075  97.6645470  92.7770615
  68.9049673  98.8804436  92.9571533  37.9765558  60.2705574  10.3411388
  37.0207071  60.3099251  10.3089881  38.2047272  59.5290709   9.7804552
  88.7349606  14.8480511  25.8435178  88.8015175  15.7942593  25.7150984
  89.5914841  14.5100343  25.5820942  67.6691294   5.1728272  39.0267277
  67.7840614   5.0363094  39.9671459  67.7767086   6.1163670  38.9067650
  61.1243105  27.8365421  33.4996867  60.2107620  28.0267215  33.2863855
  61.5886688  27.9285216  32.6677370  80.9302330  39.0174913  21.8629932
  80.2774620  39.7174048  21.8476081  80.4232311  38.2144499  21.7433953
  53.8407803  34.6418095  25.4511404  53.2900238  35.1640058  24.8678684
  54.4154787  34.1519237  24.8629498  32.0645857  45.9060144  43.7976074
  32.7983260  45.9929895  43.1890917  31.2874746  46.0523987  43.2582521
  73.8752937  36.0379720  44.1977596  73.3458233  35.4781413  43.6298847
  73.6749363  36.9286942  43.9101791  73.1881046  39.7991395  51.6499853
  73.1184721  38.8451910  51.6868877  73.9959717  39.9987960  52.1229839
  94.8945618   8.5553432  63.4368134  93.9703083   8.7460124  63.5969019
  95.3518009   8.9426845  64.1832256  55.0221825  29.2297864  35.3612852
  55.0469685  29.8372746  34.6219802  55.6442356  28.5412121  35.1264429
  39.6605849 109.3938637  15.1318276  39.6417618 109.3156719  16.0856438
  39.1673064 110.1931381  14.9472547  72.8466988  56.1829901  13.5322750
  72.3340893  56.9912863  13.5212970  73.4290648  56.2789249  14.2858517
  64.2006922  21.4886475  51.0734510  65.1366425  21.5415716  50.8799839
  63.9164782  20.6732488  50.6604433  55.0736237  56.1073923  13.1596375
  54.7567797  55.9684420  12.2671485  55.7691288  55.4591608  13.2705295
  50.5962801  34.7525644   2.9569376  51.1566973  35.5232692   3.0473688
  50.6675100  34.3044114   3.7997404  20.6421757   1.5907170  57.2117615
  19.9861860   2.0617233  56.6978931  20.9947348   0.9366480  56.6083336
  73.8109493  32.1772909  49.9241018  74.2181396  33.0098176  50.1635456
  73.3800077  32.3532414  49.0877056  60.9279966  19.7721338  38.9866543
  61.2076569  19.9801302  39.8781490  60.2743816  19.0813875  39.0956855
  34.6927810   3.6259699  20.4488444  35.1326180   2.8282470  20.1548839
  34.4740939   4.0904844  19.6409869  62.9121494  72.5287390  19.5228708
  63.8619041  72.5419426  19.4044530  62.7459002  73.1857729  20.1988101
  51.0677719  20.5735350  45.4691219  50.3649139  21.0792708  45.0611401
  51.2161779  19.8425364  44.8692513  80.8574009  59.8190260  26.1699033
  80.8163071  59.5712423  27.0935631  81.7806053  59.7215843  25.9366274
  66.3305902  37.4132967  47.7117920  66.0231209  37.9808283  48.4186172
  65.5405664  37.1995497  47.2154045  46.6687012  23.1900215  13.2207203
  46.8964243  23.6482835  12.4117887  47.1885538  23.6247349  13.8967431
  36.5010405  52.9448700  47.3386955  36.2869716  52.4596977  46.5418148
  36.2088728  53.8388252  47.1606016  30.4596663  39.7270632  25.9021854
  29.7041774  39.2487383  26.2437606  30.4841304  40.5344582  26.4157462
  41.6374254  48.2113266  74.5504189  42.3466539  47.6659822  74.2100811
  40.9467888  47.5898409  74.7806644 104.5369911  31.5262270  22.0820546
 105.4738998  31.7222238  22.0855618 104.2474937  31.7561889  21.1991405
  31.1248851  57.1619844  25.2953625  30.5374217  56.8100977  25.9641623
  30.6227779  57.1064711  24.4823194  52.8038883  60.0897837  28.3398032
  52.9159307  61.0052299  28.5960054  53.0304337  59.5918036  29.1252470
  21.1062121  28.1196475  35.0596619  20.1883078  27.9859757  34.8234129
  21.5986991  27.7179241  34.3439031  43.9646482  44.8789024  53.6941957
  44.4418192  44.0496683  53.7243462  43.0474186  44.6318483  53.8120127
  46.2752962  20.7700157  36.3349581  45.7897663  21.2736940  35.6816578
  46.4412212  19.9271441  35.9127402  56.7881680  50.1091957  31.5569282
  56.8277597  49.7377491  30.6756282  57.5395393  50.7005310  31.6015863
  85.9286976  81.4484119  34.2043543  86.8433475  81.3122272  33.9571834
  85.4421616  80.8094978  33.6834812  53.8585138  49.5932961  14.5314229
  53.8724566  48.8064194  15.0762713  53.3340597  49.3476486  13.7692952
  79.8602819  38.8646770  52.9893255  79.5598412  37.9805827  52.7787352
  79.9733829  39.2882442  52.1384287  71.2038136  63.7205887  49.1581774
  71.2472248  63.4441996  50.0735760  71.4077711  62.9295921  48.6592245
  51.8488836  42.0694733  36.4828563  52.5179577  41.4644670  36.1626387
  51.8237209  42.7671766  35.8280206 113.0305099  17.1964371  48.8609982
 112.9510975  16.4648318  49.4731092 113.5180473  16.8368328  48.1199026
  71.0308647  31.1862922  18.9190269  71.0420799  31.2194967  17.9624689
  71.9465351  31.3006186  19.1734040  51.8152285  39.8894334  22.4877906
  52.0404530  39.0638375  22.0589614  51.0087013  40.1712942  22.0561671
  74.4393253  26.6213822  53.8773632  74.0391874  25.7762790  54.0821075
  74.2388391  27.1711159  54.6348763 105.6712437  38.1953788  10.6655955
 105.5539513  37.8799677   9.7694993 105.1102161  38.9688230  10.7226384
  90.6185341  42.3678923  13.5311818  90.3926563  41.6506910  14.1234982
  90.1472759  42.1679878  12.7223623  63.9333153  30.8573580   9.4765013
  63.5558224  30.1624513  10.0157917  64.8224640  30.5575275   9.2874253
  41.4925289  44.1165829  49.8479271  42.1997356  43.5396099  50.1363707
  41.2260199  44.5832539  50.6400299  43.6545992  37.1400905  16.8692648
  43.6079645  36.1871982  16.9470632  42.9638386  37.3635602  16.2454498
  37.8581285  45.1446724   2.1066253  37.3473096  45.7101917   1.5274189
  37.3064637  44.3731546   2.2356834  63.8597727  53.6961603   8.1984693
  63.2556486  52.9620934   8.3098656  64.5543718  53.5336876   8.8367212
  39.1432619  40.1461458  30.2520418  39.8533678  39.7068334  30.7200027
  38.8253951  40.8081722  30.8659720  59.9280214  33.6429644  28.7285471
  59.6731997  33.1291151  29.4948721  59.1339779  33.6886549  28.1959724
  39.4903326  52.2055340  14.4238448  39.6017694  51.2771273  14.6284831
  40.3758287  52.5177240  14.2376757  66.1496735  56.0892153  57.3811483
  65.5854893  55.7897854  58.0940819  65.5604649  56.5581608  56.7902565
  97.0161057  45.8736753  37.3158526  97.2907448  46.3344574  36.5230823
  96.2954140  46.4003420  37.6614904  76.4424753  50.4881239   5.5518651
  76.5141678  49.8124123   6.2260342  77.2512770  50.9936666   5.6324917
  71.9253302  26.3812494  45.5705070  72.3214006  26.2089896  44.7162914
  72.6172686  26.1795330  46.2004042  72.2130871  10.8693647  15.6813240
  71.8451548  11.6625416  15.2918017  71.5519428  10.5831373  16.3115573
  89.8474789  15.8596766  72.8788471  88.9421082  16.1413622  73.0099344
  89.9306679  15.0666928  73.4084558  61.3167048  40.7692337  18.6115515
  61.4231205  39.8549938  18.8743711  61.1099434  40.7275248  17.6778805
  78.2690239  39.0362144  30.9461999  77.5074434  38.5118914  30.6985855
  78.8224792  38.4344721  31.4440203  43.6769724  28.5575223  12.0775080
  43.4293509  29.4816303  12.0468318  43.7228727  28.3527327  13.0114174
  85.8606815  38.9717937  45.7540703  86.4853096  39.6917987  45.8415794
  86.2685585  38.3758855  45.1257706 113.2820034  85.5778790  85.2684593
 113.2501125  84.6294022  85.3933811 112.6135159  85.7549095  84.6066284
  66.6361570  12.4777913  17.0596242  67.3230314  13.0702937  16.7540503
  65.8269596  12.8459609  16.7048264  55.8290243  34.6697354  31.4638424
  55.6296444  34.8685384  32.3786974  55.8611631  35.5246282  31.0344744
  78.0015421  47.9717588  22.3153639  77.7695990  47.7330923  21.4178824
  77.3974895  48.6799431  22.5385904  53.4733820  43.8656187  28.1295848
  53.2048512  44.5398045  27.5054073  54.3177080  44.1699457  28.4623528
 103.7256718  68.5658312  38.3008456 103.1852627  68.3125734  39.0492153
 104.3823814  67.8726435  38.2341313   3.7574300  12.1892059   7.7099025
   3.9518321  11.3274133   8.0783474   4.5647871  12.6890135   7.8307289
  92.4709606  51.3987732  18.3485806  92.9586411  50.5941248  18.1726789
  91.7764282  51.1311817  18.9504504  58.9127970  27.2048354  15.4175985
  58.2064247  27.6732969  14.9728405  59.7144985  27.5586843  15.0325000
  26.9425440  33.9132714  39.4635081  26.3441300  33.9117265  40.2105856
  26.7000747  33.1356287  38.9608026  52.5577927  26.2321973  13.2896507
  53.5084629  26.3294053  13.2348228  52.4116135  25.7682943  14.1140652
  -0.1283969  77.3634911  80.7014561  -0.3243484  76.5922832  80.1694202
   0.6275712  77.1049881  81.2286377  65.1968431  25.7854962  44.4483089
  64.6452570  25.0084496  44.3578434  64.8983479  26.1980605  45.2588177
  49.5241594  42.1808338  18.2560718  50.4445887  42.2870398  18.0157304
  49.5130348  41.4136219  18.8283396  27.8639460  50.3813601  35.9003973
  27.0500731  49.9025488  35.7436085  28.4324598  49.7496176  36.3407731
  91.8044376  72.3025417  35.4667497  91.7500210  71.6781807  36.1902452
  92.3253727  71.8531561  34.8012400  48.4487820  29.4650817  56.3339853
  49.0184546  29.0941358  57.0078611  48.3634138  30.3877950  56.5738678
  50.1443672  35.3201914  59.9330187  49.3126726  35.1995659  59.4747972
  50.1094294  36.2190843  60.2601290  44.7620821  47.9714155  19.4897091
  45.0314093  47.2152138  20.0111055  45.3986359  48.0090904  18.7758398
  45.4088449  39.5735574  25.0832105  45.3201962  39.8633814  24.1752577
  46.3126850  39.7865605  25.3154564  76.7691803  50.1188087  23.6381984
  75.9031725  50.4755592  23.8356543  77.3153734  50.8890152  23.4810805
  13.8687789 109.3416214  32.0770550  13.8816035 110.2870274  31.9278026
  14.0310872 108.9606762  31.2140536 100.6004238  33.1026721  32.2463202
 100.5326939  32.4011850  31.5985823  99.7290897  33.1503892  32.6396894
  22.4212074   2.8881279  93.7274742  23.1318283   3.5129747  93.5832024
  22.8552008   2.1067318  94.0699673  66.8564749 103.1962585  63.0036068
  67.6714039 103.5704041  63.3384800  67.1291256 102.6484489  62.2675371
  68.9950323  28.2809281  45.2756548  69.0193510  28.9070153  45.9992933
  69.8984718  28.2424855  44.9617338  71.8402004  39.2344403  26.5249705
  71.3634062  38.9017892  27.2853947  72.3240232  39.9904370  26.8575573
  71.0155296  30.7469821  16.1953330  71.7257977  30.1209879  16.0543203
  70.3842402  30.5530214  15.5024529  74.4172621  32.9275250  32.3608375
  74.1295099  32.2941518  33.0183077  73.9289474  32.6923561  31.5718675
  68.1442213   3.3445460  44.2067242  68.3449793   2.4091615  44.1753292
  68.3852673   3.6116049  45.0937462  58.9680672  33.8720036  24.7162485
  58.5268068  33.0233431  24.6802020  59.7810602  33.7401509  24.2285156
  69.9876595  31.8030739  51.7862940  70.4708338  31.0970140  52.2155476
  70.1296663  31.6564059  50.8511162  93.8847065  21.2149882  56.0994482
  94.1176891  22.1157861  55.8746910  93.2172871  20.9729099  55.4574299
  49.9979353  70.7687712  26.5493202  49.8588228  70.3816986  25.6849980
  50.3190041  71.6519690  26.3673639  52.3150015  72.9343271  10.3257024
  53.1329489  73.0095053   9.8342335  52.2897959  73.7209129  10.8705652
  94.5022202  76.8415976  51.7861319  93.6538792  76.9929075  51.3694143
  94.6781921  77.6480198  52.2708511  71.9320965  51.4059448  44.9870300
  71.9344997  51.0897207  45.8904839  71.1370039  51.0340738  44.6052265
  93.0984306  56.1710501  32.1716952  92.6792240  55.6042099  31.5242410
  92.7483082  57.0430040  31.9890976  63.4739161  68.4589291   4.7347900
  63.9834404  67.6687622   4.5552117  62.9838991  68.2522249   5.5306476
  75.7837963  37.9916430  30.2927303  74.9331427  38.2478309  30.6490898
  75.7232523  38.1942844  29.3591857  99.5134735  38.5698462  42.5509310
 100.3281498  39.0702772  42.5051641  99.7085571  37.8488731  43.1495714
  74.7482109  85.4913616  32.9384589  75.0801849  86.2988281  32.5460076
  75.5318642  85.0318241  33.2400250  91.4742184  16.3555396  54.4108915
  91.8574715  16.0210061  53.6000729  91.6197395  15.6581306  55.0501680
  84.1031742  34.9132347  53.0633879  83.3871555  34.4235492  53.4680605
  83.8776779  35.8319378  53.2095575  80.4601479  60.7204056  14.0242994
  80.1415253  60.7212353  13.1216896  80.1176929  61.5314865  14.3999338
  67.7928829  56.9524765   6.7649132  67.8233957  57.7220869   6.1965764
  68.6430693  56.5301847   6.6421008  72.7459002  55.7040834   3.4629011
  72.4680996  54.9432707   3.9730239  72.7395487  55.3993464   2.5555277
  63.1282234  29.0261745  34.9719000  62.5178909  28.4925604  34.4629979
  63.8315964  29.2369413  34.3578339  93.3218002  13.9944005  26.1443782
  94.0412140  13.3829010  26.3016582  93.3239746  14.5688105  26.9100666
  69.4076109  79.9827433  31.5216851  69.8135710  80.0940514  30.6620121
  70.0922346  80.2292538  32.1435833  74.2939568  65.9919405  63.4804916
  73.6660433  66.2532377  64.1540480  74.3607807  65.0413895  63.5711718
  85.3250027  63.7311220  25.3444886  84.8209953  64.1279745  24.6340609
  85.6205845  64.4731426  25.8720016  79.8710489  42.0518875  16.0397434
  79.7393894  42.9962921  16.1234117  80.7753563  41.9618368  15.7391679
  50.8143187  56.0156012  34.7840047  50.7178402  55.5451393  33.9560032
  51.5860653  56.5675068  34.6573806  80.6682777  19.9983704   4.7909382
  80.0190353  19.3093956   4.9324694  81.1736107  20.0218606   5.6035364
  75.0799561  18.7241495  63.5066223  74.6959972  18.5894442  62.6402140
  74.6101046  18.1133437  64.0744162  18.6101830  42.3378801  14.3839002
  17.7546859  42.0739317  14.0452397  19.0512538  42.7382374  13.6346352
  93.9932537  50.2322435  52.7160740  93.4362507  49.7838306  52.0797539
  93.5333443  50.1320601  53.5495472  89.5339489  30.7875538  39.8416448
  88.7191200  31.0316825  39.4026852  89.2539978  30.2635741  40.5921841
  75.9664488  64.8268890  45.2274609  76.7628193  65.2351046  45.5671501
  75.7728863  64.1254234  45.8493233  91.6736984  81.5497971  44.4856262
  92.0558357  80.8427715  45.0055456  90.7958412  81.2379265  44.2657948
  82.4506569  62.8466558  15.7403851  82.3522758  62.6971102  16.6806972
  81.5673542  63.0572319  15.4376400  81.7536736  58.3817816  43.2495308
  81.5716076  58.5718250  42.3292255  82.2148609  57.5431490  43.2342339
  68.0371618  62.3449516  50.9971809  68.0877399  61.3956451  50.8854103
  68.9399576  62.6147032  51.1657858  54.8375034  69.7793245  19.2485535
  54.5791912  69.2419815  18.4997106  55.5812788  70.2912474  18.9308012
  80.5715466 100.3934193  18.3840561  79.9436235 100.0959015  19.0424132
  80.9555817  99.5878029  18.0380476  72.6955175  78.5717678  39.8195314
  72.3836279  78.6589861  38.9187837  71.8987465  78.5722446  40.3499889
  65.0930786  40.2130175  21.7671990  65.3441525  39.4711590  22.3175049
  64.8480320  39.8183203  20.9303021 109.0465260  55.7115173  44.0696335
 108.9502048  56.4845133  44.6258974 108.3107567  55.7623434  43.4594679
  41.8124962  41.1577559  20.7613850  42.7037239  40.9411097  20.4874969
  41.2672377  40.9216690  20.0109267  80.4778957  80.0718021  36.9237947
  80.6789780  79.1374731  36.8706393  80.8425999  80.4414082  36.1196685
  75.7034922  18.6328351  18.7798512  75.7980680  17.6807415  18.8082135
  74.7593260  18.7813962  18.8319409  63.4292746  32.5245619   4.0476978
  64.2196941  32.9074073   3.6670378  63.4503174  32.7950025   4.9656576
  88.4533501  43.0147505  35.7886672  88.8544559  42.5082493  36.4949274
  88.0612659  42.3566294  35.2147508  56.8650341  69.2224932  15.6173420
  56.9707203  69.9724436  16.2026906  57.7048635  69.1527414  15.1634073
  54.9948406  75.4363728  65.7419014  54.8952484  75.0165796  66.5963554
  54.6230459  76.3105154  65.8597231  83.2256603  71.2800360  55.2726412
  83.5720825  70.9190464  56.0886717  83.2497883  70.5472422  54.6572828
  69.3116951  54.9828005  58.8274384  69.7658253  54.6160603  58.0688238
  69.9637127  54.9661303  59.5280313  73.0441999  87.9226494  45.9330463
  73.1110716  87.6314354  46.8424177  73.9338732  88.1885815  45.7006741
  73.5301495  54.9300098  31.3126063  73.3926344  55.0857592  30.3782296
  74.3075943  55.4446363  31.5293312  35.9569287  51.0757828  23.9910650
  36.6887951  50.5747366  24.3510008  35.1922393  50.7641649  24.4751859
  79.4393826  39.7557139  11.5795147  79.7417831  39.0849900  12.1918201
  80.0100136  40.5061340  11.7452872  69.6489096  85.9029293  34.7971678
  69.6460772  86.7785072  34.4104075  68.7836647  85.5481052  34.5930028
  99.3294430  54.5758486  27.0372176  98.8498306  54.9530220  26.2996912
 100.2474499  54.6092319  26.7681623  79.2720985  28.2854223  60.3340626
  78.4243059  27.9203773  60.0806332  79.4771338  28.9163280  59.6440220
  34.9949074  60.6053066  83.0630112  34.0502954  60.7591200  83.0462646
  35.1598215  60.2213764  83.9241982  86.9807625  65.8673334  81.2512016
  86.9320393  66.6474962  81.8036461  87.3660183  66.1777687  80.4317856
 101.5491295  59.0270758  31.5053892 101.6599560  58.1143379  31.7715716
 101.8547535  59.5346165  32.2572064  99.6176243  41.4863825  43.3265305
 100.5428982  41.5314627  43.0855703  99.5342445  40.6605625  43.8032961
  85.4457378  16.2009907  54.7770023  86.3417053  16.3290620  55.0885725
  85.1670456  17.0691657  54.4857454  96.5985584  53.4546661  30.8823872
  97.0842457  53.8446236  31.6092086  96.9255543  52.5565577  30.8303094
  72.1131182  70.4198790  14.9490952  72.1697807  70.9360027  15.7532334
  72.5769138  69.6076584  15.1526213  83.3345413  84.8216438  31.4763498
  84.2800331  84.7271633  31.3607669  83.0919552  84.1043091  32.0618558
  91.4677715  39.3296647  26.5658069  92.2646523  38.9898467  26.1586881
  91.6278839  39.2529058  27.5063944 103.9471531  82.0727825  33.9774919
 104.3903542  82.5960255  34.6453452 104.6550941  81.6202068  33.5189867
  36.1296201   5.2362263  87.9784966  36.1896706   5.4884726  87.0570850
  35.8748055   6.0403872  88.4308529  81.4586926  46.3459206  50.4613209
  81.5499020  46.8234634  49.6367788  81.4410210  47.0281267  51.1325216
  66.6931534  44.1622829  29.3478680  66.9667959  44.3438196  30.2469778
  67.4817991  44.3040180  28.8242435  72.1836519 102.2924900  46.2276506
  71.6470957 101.6068459  45.8298731  72.9775810 101.8401432  46.5127850
  54.7974253  39.2075586  32.3439050  55.4402065  39.8914456  32.1558619
  53.9581966  39.6673584  32.3666167  75.3179741  43.3802938  13.0278516
  75.1455116  43.7493658  12.1616685  74.4667721  43.0587578  13.3250082
  65.6088591  72.7946186  28.9627528  66.0230494  72.4869823  28.1565046
  64.7634649  73.1431675  28.6798143  64.9458790  65.2265310  10.8521950
  64.9939632  64.3575001  11.2505698  64.4273138  65.7440472  11.4682305
  86.2857914  63.6928225  59.8985767  86.2667084  63.7737274  60.8521605
  85.8506966  62.8590965  59.7201872  79.0815020  31.5819740  35.4753733
  79.0116501  32.1346974  34.6970081  79.8513651  31.0366583  35.3135920
  52.8370667  81.2044811  16.7415476  52.3821306  80.4848862  17.1791017
  52.2193336  81.9348335  16.7764449  82.5912380  64.1361427  42.3334837
  82.4839401  63.4720850  43.0144691  83.0536556  63.6833954  41.6281939
  69.5097113  82.7575111  20.6711817  69.1138124  82.1862602  20.0130248
  69.1447449  82.4540710  21.5024209  54.6062899  35.6297207  22.0835423
  54.4096708  35.3762460  21.1816978  55.5428410  35.4581070  22.1818066
  31.7811918  25.9166074  77.4953270  31.0722494  25.2773166  77.4250126
  31.4808989  26.6649628  76.9795561  82.3235989  42.1422672  14.9744689
  83.0035591  42.8159428  14.9814713  82.7290535  41.3973379  14.5307088
  90.9809017  30.8297682  48.0191565  90.7441235  30.3839374  48.8324213
  90.2499676  30.6522799  47.4271488  81.6054058  54.3218327  44.5797729
  82.1639347  53.6308146  44.2237186  81.1740017  54.6997786  43.8134336
  11.8829918  89.7428036  37.1811247  11.5054131  90.5062485  36.7443037
  12.5304711  90.1078224  37.7842546  65.8934259  60.3771734  29.4065690
  66.6765451  60.2980614  28.8618731  65.2733898  59.7548628  29.0264153
  41.6203403  46.5239763  18.5759842  42.5745678  46.5863991  18.6182082
  41.3102770  47.1454525  19.2346656   1.0205871 106.1023331  93.5511017
   0.9519780 105.2366352  93.9536953   1.8155643 106.0571098  93.0198860
  64.0428495  49.9742889  21.4796853  64.7675705  50.5844879  21.6163135
  63.9206839  49.5531559  22.3305392  70.6689692  64.4362211  38.8626099
  71.1922264  65.1243019  39.2736769  70.5892467  63.7610912  39.5364618
  25.3062010  13.4190273  78.1014633  24.5731282  14.0277600  78.0104733
  25.5788159  13.2362998  77.2022867  80.6359291  74.4743347  39.4340754
  81.0560703  73.7755775  38.9326239  79.7503185  74.1510773  39.5997047
  78.0862856  53.5384130  46.6410923  77.9017496  53.5999107  45.7038641
  78.1407452  52.5984097  46.8133020  76.1923265  44.1913462  45.6678343
  77.0434284  43.8474369  45.9390974  75.7762766  44.4714165  46.4831209
  91.6840076  70.1933622  23.9053273  90.9747219  69.6347618  23.5873365
  92.0187092  69.7387552  24.6783328  61.0872316  35.9673786  30.5358315
  60.8173990  35.4645872  29.7673130  61.8875122  35.5360246  30.8353686
  91.9197273  23.4335494  30.5731940  92.4600220  23.8297415  31.2568164
  92.4646950  23.4681869  29.7870421  36.3428211  64.1481447   6.5382606
  35.5485940  64.2916298   7.0528936  36.0670471  63.5673952   5.8290976
  98.3467197  64.2842913  76.1770105  98.4889221  65.0344324  76.7543364
  99.1873932  64.1578817  75.7370949  87.7747536  23.9713407  61.5905285
  88.6687660  23.6376286  61.6654396  87.2393227  23.3282375  62.0552397
  76.0191965  69.4067240  28.3597302  75.4199839  69.6093035  29.0781546
  76.6705465  70.1076317  28.3862424 115.3505707  35.3670955   3.6227497
 115.7882595  36.1882925   3.8470131 115.7813549  34.7092557   4.1685566
  72.0985842  53.9018059   5.3150457  72.7812147  53.2343340   5.3837818
  71.2916565  53.4443665   5.5513752  80.3153038  21.5889263  25.6209636
  79.7185898  21.0245943  26.1125946  79.8100710  22.3848081  25.4549932
 107.4164295  77.8891134  22.2893524 106.7376995  77.3283863  22.6650405
 107.5593472  77.5364923  21.4110208  68.8156700  62.5190735  29.4628644
  68.0873442  63.0803823  29.1969585  69.5263863  62.7493477  28.8644624
  68.1335926  87.4866390  27.1540332  67.1941233  87.3407078  27.0429683
  68.1980228  88.0637550  27.9149652  83.1470299  54.2180300   7.8429288
  82.8711224  53.5220098   7.2465527  84.0682030  54.0290737   8.0217141
  71.1307955  54.2863512  64.7886992  70.3184080  54.0147972  65.2159214
  71.7233515  53.5439777  64.9069786  63.4656143  72.1584845  15.1244032
  62.8249979  71.7829227  15.7283843  64.2733431  72.2125673  15.6351721
  74.6181011  71.0689878  35.2217031  74.9503183  70.7855701  36.0734892
  73.7446117  71.4133835  35.4078245  64.4915009  58.5464859  38.8427663
  65.2791071  58.6484671  38.3084345  63.8165808  58.2678747  38.2238197
  87.3081112  41.1950874  45.7522440  88.1227970  41.2289762  45.2508783
  86.9326591  42.0705843  45.6586075  28.9346004   5.4507744  88.3290195
  28.2583284   5.1423091  88.9321232  29.1089201   4.7005716  87.7606487
  40.6648684  72.5640488   4.1065156  40.3735209  71.7340755   3.7290367
  40.0181913  73.2032824   3.8074785  56.3841248  43.1687355  34.0835977
  56.0555553  42.2876596  34.2624354  56.0581684  43.6982155  34.8113585
  60.3747892  88.6935902  64.4849968  60.8349895  88.1082058  65.0864792
  59.4495583  88.5827160  64.7038317  86.8934727  22.1689010  25.0134325
  87.2806072  22.6806974  24.3032050  86.4614391  21.4369082  24.5732522
  91.2296677  55.7360268  36.7487741  92.0734978  56.1301184  36.9698524
  91.3284874  55.4525757  35.8398604  84.8423672  16.4186370  25.2101827
  85.4240036  15.9192801  24.6369696  83.9778996  16.0325193  25.0693369
  57.0151567  56.5646362  17.7020335  57.6386595  56.3240337  17.0167708
  56.6222906  57.3807955  17.3925662  88.4196663  23.0223036  22.5972342
  87.8202820  23.4342194  21.9749069  89.2876530  23.1508589  22.2147274
  57.6280689  64.4627380  37.7979159  56.8212175  64.6011114  38.2939744
  58.0522776  63.7226677  38.2321692  43.7114382  61.0245466  30.2277541
  43.2545662  60.2436733  30.5403852  44.5714569  60.9823561  30.6458712
  43.8406134  55.0818682  16.9576573  44.6144915  54.5680666  16.7266858
  43.2795334  54.4692326  17.4331617  17.3473978  10.1369560  82.9115772
  16.5928745   9.9426943  82.3555374  17.9771149   9.4444305  82.7113342
 114.2997456  95.3093433  20.6223679 114.2919350  96.2664318  20.6345654
 113.5036564  95.0693512  20.1481652  63.8318014  32.6688099  43.1083679
  63.4120750  33.4403706  42.7279043  64.3241358  32.2823763  42.3841333
  79.3590736  60.5248499  64.9162292  78.9328098  61.3262701  65.2199793
  80.2889538  60.6659555  65.0941181  72.4581766  69.1342115  33.4354591
  71.5444899  68.8561010  33.4991789  72.9044056  68.3970594  33.0186653
  11.7674613 101.9682407  94.0236378  12.5641024 101.8907356  94.5486069
  11.5736008 102.9055882  94.0194893  43.8786507  37.7321243  23.4800720
  44.2737770  37.9737353  24.3177652  43.1934166  37.1047735  23.7105513
  64.7681379  67.6079655  22.8763151  64.8345232  67.7461624  21.9314718
  65.1089764  66.7241096  23.0136299  87.1812534  67.0575571  60.0830889
  88.1172848  67.2496986  60.1392794  86.9503593  66.7344809  60.9540319
  69.6904802  34.1701245  53.2074594  69.1625452  33.9080119  53.9616537
  69.7650909  33.3752251  52.6794434  88.0558014  67.4066114  53.9631557
  88.7664986  67.7890301  54.4778299  87.9499435  66.5244770  54.3193340
  80.6789017  67.9243374  47.2388649  81.4315701  68.2466745  47.7346659
  80.5121899  68.6051130  46.5869570  67.3710442  76.7671442  67.7764845
  68.1156301  76.3128233  67.3822498  66.8935251  77.1345711  67.0327091
  62.5504541 103.2715893   5.2007115  63.3253479 103.5234642   4.6983844
  62.4800968 103.9390182   5.8832270  64.3431234  73.0174112  50.1045465
  63.3864975  73.0472183  50.1190948  64.5732355  72.3807335  50.7812500
  94.6375275  68.5443830  32.1285248  95.5446434  68.6984825  31.8646574
  94.6666813  67.7218819  32.6172757 115.1161766  17.8969336  29.3938828
 115.0312996  17.4115884  30.2145362 114.9805260  18.8115692  29.6414208
  52.9185152  72.0072412  17.1589947  52.4622679  71.9690847  17.9995966
  52.6370144  71.2172365  16.6976082 106.2504101  65.9139919  27.6260328
 106.0417080  66.5234137  26.9180226 105.4046917  65.5465317  27.8828478
  61.4469051  67.6445246  18.4093142  60.6140661  68.0079937  18.1084752
  61.5352726  66.8202209  17.9308283  69.7340441  61.0708666  43.7367582
  69.1710711  61.7064857  44.1786718  69.9983835  61.5073442  42.9269218
 111.4471722  67.8818607  40.7677794 112.0718956  68.5695457  40.9980822
 111.2454605  67.4531746  41.5995073  96.9295311  68.6042452  10.6272030
  96.2117004  67.9853344  10.7609987  96.7292500  69.0263557   9.7917736
  18.3274942 108.4754443  94.7844387  18.6119276 107.6942659  94.3100020
  19.1410833 108.8981653  95.0594066  76.6521263  79.6223068  43.4957838
  77.3150110  78.9583588  43.6854887  75.8259153  79.2186975  43.7616920
  68.5794210  39.4815731  30.7764721  68.8798714  39.1998792  31.6405368
  67.7428627  39.9157166  30.9435678  69.9078846  66.4148664  14.7465765
  70.1992130  66.8132305  13.9264131  70.1375198  65.4898167  14.6583652
  94.2412090  30.7496428  85.3430843  94.2718983  31.6961145  85.2035141
  93.6095905  30.4326820  84.6974659  72.8184128  75.8328915  40.9497118
  73.2384729  75.3594494  40.2316332  72.7677822  76.7380619  40.6425714
  60.6419230  67.4734020  26.4528394  60.0601292  68.1587696  26.7814994
  61.4509010  67.9332209  26.2284446  71.6352892  55.8567381  43.2551479
  71.0806227  56.6085672  43.4632969  71.9111538  55.5193758  44.1073895
  76.2540722  32.4614263  26.8873787  76.0477257  33.3952188  26.8463278
  75.5793762  32.0433044  26.3524079  63.1683493  60.1646328  35.8704281
  62.6421213  59.3663263  35.9154630  64.0489149  59.8590755  35.6525612
  74.9851274  63.6300611  25.1538968  74.1408062  63.7818146  25.5785465
  74.8358488  63.8571167  24.2360759  69.7982931  30.5418491   8.9960939
  70.5665112  30.9487748   8.5954946  69.2532110  31.2788343   9.2717224
  60.7441902  20.1747656   8.3631712  60.0281620  20.2195120   8.9968419
  61.5349436  20.3099036   8.8853550  89.7572136  45.4042816  20.7876706
  90.6213570  45.0267363  20.9518528  89.2531490  44.6890497  20.3996062
  96.6183758  29.9925447  13.5777593  97.3983002  30.5437183  13.6421478
  95.8904934  30.5843401  13.7680352  29.9056506  18.0589628  88.5140896
  30.4381919  18.8500905  88.5962391  30.2676368  17.6044953  87.7534008
 106.8284512  12.2039115  31.0696888 106.6212559  12.7460992  30.3085494
 106.0605621  11.6432965  31.1805749  88.9570999  38.1848454  18.8643694
  88.9108372  38.2527828  17.9107034  89.3106747  37.3100233  19.0252995
  72.3123026  54.2306328  45.2562952  72.6213837  54.3863487  46.1487389
  72.0267773  53.3170080  45.2577019  91.0269165  59.3608475  11.4595306
  91.0608006  60.2722883  11.7499793  91.7563248  58.9378214  11.9125795
  61.1933041  79.0337181  35.2133226  62.1303844  79.2287588  35.2217722
  61.1151409  78.2578278  34.6582413  76.0265493  32.8454614   8.2177436
  75.2490234  33.1065416   7.7242678  75.6870508  32.3059154   8.9317912
  73.0718184  39.9227285  13.3794260  72.4491453  39.8123646  12.6608646
  73.0123758  39.1062069  13.8753998 113.3916283  62.0870733  28.2525396
 113.9965725  62.1978331  27.5190473 113.0017567  62.9527569  28.3742833
  96.5146065  64.4321442  37.0445728  96.2886238  64.0091228  36.2161899
  95.6730461  64.6979427  37.4151778  96.7929363  79.5918512  33.1244397
  97.1679401  79.8890543  32.2954202  96.6541195  78.6527824  33.0015278
  77.4127054  59.2736769  12.5335610  77.2620916  58.9315081  11.6523862
  77.7678537  60.1512480  12.3922622 103.1889915  61.5034723  61.5882969
 102.3754311  61.1972141  61.9889879 103.8799286  61.0573626  62.0780230
  87.0291710  17.0602310  46.6434240  87.3243713  17.3993373  47.4884653
  86.7362118  17.8349316  46.1635876  55.8616686  49.4286728   4.6856925
  55.7504845  49.6652460   5.6065089  56.2147236  48.5392380   4.7078583
  74.4415998  89.2727566  15.5917227  73.9198303  88.5429478  15.9254265
  75.2078056  89.3011189  16.1647475  96.0050201  17.1822286  48.8605165
  96.3581085  16.4072442  49.2975044  96.5599823  17.2958267  48.0889273
 107.5310326  66.5110922  60.3085089 107.2407722  67.0874119  61.0155010
 108.4444714  66.7556095  60.1599312 102.0260715  93.0362225  51.7150307
 102.6354885  93.7738419  51.7424393 102.5865173  92.2610569  51.7503452
  86.3726616  65.6062317  19.2155695  86.5658379  65.2949619  18.3312464
  86.2386608  66.5485334  19.1138697  70.2329206  65.5088186  29.0647769
  70.7677555  66.3006306  29.1215563  70.7879734  64.8183680  29.4273067
  75.3626394  72.3504972  18.9451778  75.3635120  71.4335299  18.6705852
  75.3095722  72.8453207  18.1275189  80.3539085  82.6825809  23.6793160
  79.7631073  83.4260654  23.5592151  80.5305386  82.3711777  22.7915883
   7.7644950  19.0127134  85.3024292   7.5698209  18.2222474  84.7989464
   7.7749932  18.7197673  86.2136459  12.9116654   2.8769246  47.9737759
  12.8323412   3.6410353  48.5448074  13.5946107   3.1160554  47.3471737
  89.1894913  89.3616390  20.4896092  88.6329365  89.8495960  21.0965538
  89.1336632  88.4545040  20.7899833   9.1957098  70.3255129  16.1563492
   8.8957769  69.4245148  16.0360360   9.4628239  70.6078529  15.2816105
 114.8025417  80.6125641  34.2045760 114.4036865  79.7659826  34.4056654
 114.2375469  80.9893322  33.5299945  24.2844748  49.1932154  27.3727822
  23.7566876  49.7378778  27.9567456  24.9687147  49.7802210  27.0511055
 112.9927254  84.5772934  53.5890055 113.8576603  84.4748116  53.9860010
 112.4696541  83.8713837  53.9689112  93.8268852  77.8174925  17.7386010
  94.4502449  78.5108995  17.9550540  94.3735409  77.0804882  17.4661493
  92.0651054  83.7195873  62.3593473  91.1251163  83.8239288  62.5068760
  92.3249722  84.5166111  61.8973303  84.1209984  61.2075424  28.7547660
  84.9919510  61.0095835  28.4105468  83.7090015  61.7383862  28.0730748
  84.4681644  70.8642769  14.7249746  85.3890324  70.6431770  14.8640573
  84.4896793  71.6283798  14.1488540  76.6761446  75.8612394  37.4156833
  76.8388748  75.4349327  36.5742493  77.5486851  76.0387659  37.7669525
  48.3879805  11.5771854  93.4123516  48.5235310  12.5148726  93.5487270
  48.8641882  11.3812041  92.6054764  99.8530960  45.0366449  27.8335476
  99.0119839  45.4870081  27.9106331  99.7422791  44.2335320  28.3424306
  89.9524307  61.7752600  42.4443245  90.7299423  62.1419382  42.8653383
  89.2209339  62.2551250  42.8327560 104.4829273  82.7762699  30.5766678
 104.5428276  83.6150646  30.1194263 105.3184605  82.3452473  30.3968334
  55.9864664 103.3447647  16.7843366  55.6583643 102.6437855  16.2211239
  55.1992941 103.7995434  17.0839393  88.8319397  77.3406839  31.1392951
  88.6356258  78.1702328  31.5746617  89.4925785  76.9284964  31.6959715
  75.1515102  73.2740307  30.2227235  74.4444561  73.2847404  29.5775962
  74.8366451  72.6910162  30.9135103  66.1897469  69.9499607  29.7277880
  65.3997326  69.4325209  29.5717025  65.9576178  70.8335781  29.4421935
  96.4395523 106.1806297  53.7496424  97.0680332 106.1575985  53.0280399
  96.3286209 105.2634335  54.0000057  80.4294014  94.0437031  28.0357647
  80.6382179  93.1279373  28.2201409  79.7746086  94.2772198  28.6937499
  76.9427633  65.6555319  51.5987539  76.0230064  65.7908058  51.8267584
  76.9450951  65.5856514  50.6441116  78.6761475  26.8775702  51.1825991
  78.6081076  27.8179932  51.3475466  79.3527937  26.8007278  50.5099297
  88.4363747  90.6420898  32.0981455  89.3040371  90.6348801  31.6940069
  87.9129505  90.0554752  31.5521240  84.0555954  64.3715620  55.9186506
  84.9415112  64.6404886  55.6756258  83.6304379  65.1795053  56.2062263
  68.6376333  76.0618114  43.9980888  68.1093836  76.6077948  43.4157753
  68.5735416  76.4902496  44.8516464  75.1270676  82.6720333  61.3074255
  75.0855350  81.7182636  61.3768196  74.2855835  82.9739380  61.6494751
  86.3879967  68.3691740  41.5231705  86.0492134  68.1489325  42.3908949
  86.0918713  67.6528597  40.9615326  87.2312641 101.4488316  29.7273993
  87.4973202 101.1618996  28.8538384  87.2601700 102.4046421  29.6846962
 100.4384232  82.4072647  50.5917931 101.1367416  82.6890945  51.1826944
 100.8920765  81.9385910  49.8912382  89.8660088  86.1876106  35.9034133
  89.4244003  86.8851757  36.3877797  89.9745464  85.4836464  36.5428615
 108.1596184  66.3348866  53.6977386 107.2451878  66.5717983  53.8524055
 108.1413746  65.3881598  53.5577154  94.3441963  90.3514290  30.5300689
  93.7472153  90.4169750  29.7847199  93.7886047  90.0732327  31.2581873
  93.9071176  60.2578788   0.6119121  93.9242408  61.1028968   0.1625980
  93.9864013  59.6117996  -0.0898873  82.9682446 108.4742928  40.3667736
  82.3707771 108.1864643  41.0570097  83.3840466 107.6690292  40.0587463
  62.7387524  78.1288099  43.8696241  62.8035879  78.5116768  42.9947281
  62.8135347  77.1856403  43.7244701 108.1525517  83.7392139  17.6440692
 108.7855148  83.7057209  18.3613324 108.5698128  84.2903137  16.9819450
  72.3213053  76.1628246  33.2173967  73.0140305  76.4453363  33.8145137
  72.2492743  76.8738365  32.5806069  86.8230343  37.7368951  43.4202480
  87.7246380  37.5786352  43.1404400  86.5012646  38.4108829  42.8215599
  71.8731213  83.5531712  83.3982372  71.6632700  84.2045307  82.7289581
  71.0226679  83.2835102  83.7450027  63.7017298  72.3130178  36.8550038
  63.7703037  73.0434752  36.2402153  64.5565796  72.2803164  37.2844076
 115.5527798  52.4080038  43.4081316 114.7399175  52.8673363  43.1971836
 116.0638711  52.4419880  42.5995111  94.4766617  89.0048313  91.2693501
  94.2116165  89.6200848  91.9530487  93.6561298  88.7423897  90.8521080
 103.9228821  74.5898867  16.9601238 103.9815521  74.9162817  17.8580415
 104.0539455  73.6450481  17.0396829  77.7246475  87.7335167  16.7048275
  78.5518312  87.4675751  17.1064162  77.9324961  87.8404045  15.7766008
  78.3820009  73.1945467  45.8632660  77.6070547  73.3792305  46.3939095
  78.1567478  72.4004221  45.3786516  77.1397305  82.7030277  63.4699440
  76.5072107  82.5224018  62.7745819  77.3208332  81.8466663  63.8573503
  65.6862688  86.4690113  62.1466398  65.0853777  85.9968090  61.5702868
  66.1177874  87.1036530  61.5745735  70.5785131  88.1720448  53.7452841
  70.2138376  89.0483761  53.8688755  69.8900795  87.6883125  53.2888842
 116.2290478   1.6775711  41.2157202 116.8775082   1.0869616  40.8324242
 116.0607243   1.3161790  42.0859480  72.9793406  79.9619818  29.1756463
  72.9868698  80.9089851  29.0364766  73.7600231  79.6467590  28.7202358
  84.6682262  78.6365175  54.4259214  84.2140198  78.7587309  55.2595806
  84.1159821  78.0241966  53.9397907  96.0606098  14.2368031  29.8121786
  96.3366604  15.0647330  29.4190335  95.1200008  14.3415236  29.9554133
  80.0221825  76.6206980  42.1397495  79.1883612  76.8670893  41.7394114
  80.0009537  77.0265341  43.0064011 114.5323372  82.5320148  28.0558205
 114.3927193  82.5048351  27.1092463 115.3476429  82.0492458  28.1916285
 102.6112080  53.3772039  38.9540291 103.1276417  54.1821527  38.9938259
 101.7063713  53.6771965  38.8674021 115.0691554   0.9648980  21.5197062
 115.2963206   0.0351513  21.5336990 114.4079253   1.0602463  22.2052097
  88.7431240  46.7438126  58.7717485  89.4521713  46.3694620  59.2945719
  89.1734219  47.3912191  58.2132339  37.4284816  21.8290424  60.1395226
  37.5186396  21.0751200  60.7223606  36.5232682  22.1166611  60.2582407
 102.6801682  88.3637810  17.7404237 102.5015640  89.2965984  17.8594804
 103.6208153  88.2782936  17.8956783  82.7867603  78.9912891  28.0811739
  83.1857967  78.7654305  28.9214087  82.2936535  79.7924566  28.2578611
  78.8053322  54.7764635  22.1753097  79.4136143  54.9423552  22.8955221
  77.9376745  54.8516083  22.5724912  72.7556801  82.8877258  17.0371330
  71.9984961  83.4278870  16.8110287  72.7513790  82.8577328  17.9938531
  69.6577072  96.1623192  32.3372102  69.4202614  96.9939613  31.9270635
  70.4341745  96.3655567  32.8587723  80.0133896  76.2774754   6.8140668
  80.2208424  77.0965099   6.3642013  79.4603825  75.7985687   6.1967689
  70.2563524  59.4352198  20.1422334  70.0416899  60.3416061  20.3627205
  69.8958778  59.3104649  19.2643249  84.1975689  63.7156725  21.0754871
  84.1168404  62.7862883  21.2898588  85.1208687  63.8302565  20.8505058
 109.4247818  82.2546101  54.4115114 108.8312340  81.7006302  53.9045095
 108.9303684  82.4759197  55.2006912  96.3015461  78.8205433  27.2749996
  96.8897820  79.3367529  26.7238665  95.6671524  79.4551420  27.6082611
 103.6637211  52.4556971  29.4110298 103.2011032  52.1387625  28.6352921
 104.4280338  51.8841267  29.4842887  96.7206478  70.6629848  27.1732354
  95.7773304  70.7869720  27.2781515  96.9267941  71.0871410  26.3402724
 114.1612339  60.9604168  23.3579016 114.3864536  60.0687742  23.0924320
 113.9266205  61.4013863  22.5413656  95.6050301  63.9469337   2.1371977
  94.6491909  63.9955664   2.1528156  95.8097267  63.1174326   2.5687784
  84.5972538  48.9862299   7.3808420  85.0915337  48.6087132   8.1084347
  85.2190495  49.5698929   6.9461697  76.4610720  56.3561726  13.5921180
  76.8091583  55.5939007  13.1295037  77.0565653  57.0690775  13.3610713
  73.2466078  73.2151127  27.6385021  73.3453226  72.2634602  27.6093650
  72.9081964  73.4473944  26.7737722  85.9981346  54.0838194  12.6678848
  85.8301163  53.8130140  13.5704744  86.1458778  55.0278425  12.7246201
  98.0353069 102.3406601  27.2743535  98.4237766 101.5383625  27.6231098
  98.6290741 102.6091385  26.5732193 102.9687405  97.6225948  47.6173496
 103.5913849  98.3072472  47.8618813 102.7030754  97.2319984  48.4498644
  91.6933823  47.5283194  52.6266766  92.6319408  47.3468494  52.5775957
  91.3688564  46.9309759  53.3005428  80.9173107  56.7999649   2.1790868
  80.7801723  55.9797335   1.7051202  81.4046764  56.5452623   2.9625612
  75.4060841  26.3753009   2.6016635  75.1544189  26.8045878   1.7839783
  75.8091164  27.0698404   3.1226319  59.7994137  77.6046753   9.0861893
  59.1844416  77.0499516   9.5661056  59.7800255  77.2653198   8.1913763
  80.9764194  64.7840881  29.2367840  81.2284946  65.2580023  28.4442568
  80.0997829  65.1092815  29.4416928  87.5901508  82.8777122  36.7078900
  86.9080639  83.3740997  36.2555790  87.1677780  82.0523834  36.9459295
  93.0509758  38.7111402  42.3046494  92.7587509  38.5527706  43.2022905
  93.9008522  39.1406941  42.4017048   6.7734605  64.3277121  67.2207022
   6.4783478  65.1963854  66.9476700   6.7485124  63.8036728  66.4200783
  48.1299496  20.1234198  91.2339115  49.0020561  20.5151415  91.1868191
  47.7836514  20.4107094  92.0787621  98.5498619   8.1206530  17.4292445
  98.4056759   8.0972743  18.3752334  99.2091370   8.8032728  17.3042488
  93.7084866  94.2238331   0.7865086  93.0709171  93.5725117   0.4940654
  94.1175270  94.5375633  -0.0200246  80.0506687  50.6983852  60.7235384
  80.0314140  51.5649509  61.1296463  80.6254673  50.8019876  59.9651814
  51.3941002  87.8150558  49.8168230  52.1261168  88.2644081  50.2392626
  51.0754681  88.4379864  49.1636276  84.2170429  54.1949844  56.5321064
  84.9665260  54.7612381  56.7161131  83.6373234  54.3128967  57.2846031
  92.0042706  67.8991604   6.9869351  91.5907955  67.5342369   6.2045676
  92.3035908  68.7673092   6.7168438  70.3964615  82.9698086  67.6936007
  70.7442284  83.2221699  68.5489416  69.8075199  83.6853027  67.4539185
  88.5925484  53.8853407  35.2601123  88.3864975  53.5069895  36.1148763
  89.4272423  54.3348980  35.3921056  71.8766069  73.5242462   7.2135848
  72.7019835  74.0082455   7.1866816  71.4237595  73.7781143   6.4093989
  44.3409061   8.9570570  85.4611206  43.4927368   9.2121732  85.8240986
  44.3565655   9.3512887  84.5890236  87.1719933  50.1072407  46.8343306
  87.5516224  49.2418623  46.6819143  86.7984676  50.3571606  45.9891987
  92.6244450  86.6168499  45.9744501  93.4312057  87.1015739  46.1488819
  92.5367546  86.6327858  45.0214100  76.9774055  51.5876913  20.0475788
  77.4574566  52.4059772  19.9203348  77.5245762  51.0796547  20.6465244
  94.9622917  95.4479027  35.1338077  95.1796341  95.1605701  34.2470002
  94.0075874  95.3932476  35.1760483 103.3703423 105.4906368   6.6118824
 103.7546825 105.9944820   7.3292744 103.0654430 106.1522484   5.9909755
  62.9282808  57.6917744  21.5433717  63.5694313  57.4672127  20.8690381
  62.6656246  58.5883474  21.3350487  96.0239983  70.9704018  33.9004850
  96.8090439  71.5178633  33.9150190  95.4970169  71.2878466  34.6338010
  57.7775621  59.2375088  22.5048041  58.6194277  59.5065212  22.1371984
  57.3434782  60.0588608  22.7354145  75.2446985  93.4469128  25.6168914
  74.3298054  93.2231045  25.7874966  75.7238340  92.6335907  25.7755208
  85.0383854  50.0476933  27.7108669  85.2723694  50.9288597  27.4192667
  85.6269360  49.4703102  27.2245908   2.7164355  67.6035118  42.0578575
   2.4057865  67.3961782  42.9391861   2.4179065  68.4997463  41.9033384
  77.1377563  92.7131748  42.1197128  77.2709322  92.4768448  41.2017584
  76.3144684  92.2878361  42.3595285  68.5092783  97.9873943  30.7535219
  68.2621956  97.4315834  30.0144291  68.3574390  98.8800621  30.4431772
   2.9186234  76.4689016  19.6002305   3.5541862  76.3012934  18.9043880
   3.0280659  77.3972893  19.8060393  69.4279194  64.7657585  42.2363043
  69.9482489  64.1829491  41.6832972  68.8185310  64.1839743  42.6906300
 102.2379398  96.2123489  69.8051786 101.9726849  95.5574894  70.4509544
 102.7193642  96.8666840  70.3114510  83.9224434 103.4877014  26.3594031
  83.7078381 102.5564480  26.4136577  83.0812168 103.9335155  26.4584827
  97.6750183  57.4318886  38.6498904  98.1547356  57.7317381  37.8777552
  98.2677364  57.6034212  39.3816662  87.8055191  73.9296484  10.8199155
  87.2839260  74.7257233  10.7177627  88.3164883  74.0785360  11.6155148
  83.1751728 108.5122204  48.8574266  82.7498055 107.6547623  48.8650274
  82.5305271 109.0958405  48.4573460  55.2554941  77.0874405  19.8795462
  54.6976757  77.3624325  19.1519117  56.0978603  76.8852091  19.4724190
  59.7910595 101.4615631  58.4717989  59.1972685 102.1953106  58.3128548
  59.2177391 100.6970215  58.5266399  72.9314232  76.1956024  47.8836536
  73.4783506  76.4748669  47.1494102  72.3706198  76.9498110  48.0650234
  63.1905460  83.2296467  43.5235548  63.9833117  83.7243366  43.3161020
  63.4769487  82.5738144  44.1592312  70.3005075  74.5515823  55.6771421
  69.6689415  74.7214651  56.3760662  70.0414562  75.1437283  54.9711037
  66.7626667  68.2424545  38.5785294  67.3414993  67.5015402  38.3990192
  67.3474026  68.9331436  38.8904023 113.3914661   8.1887096  87.7843094
 113.9556694   8.2920784  87.0180035 113.9132690   8.5248017  88.5130119
  59.5522976   8.9233130  90.9012794  59.5288610   8.1251210  90.3734875
  59.1580629   8.6701697  91.7359924  90.6343365  67.3434162  28.9634895
  90.9266663  66.9189644  29.7700953  91.2224674  68.0914593  28.8597441
  98.8958836  75.9612608  25.7851815  98.9295387  75.0220966  25.6033301
  99.6311951  76.1169529  26.3779044  60.2557230 101.0809040  16.6105843
  60.2021122 101.2836552  15.6766403  60.2309561 100.1248360  16.6499305
 100.5507183  46.7084408  63.3243179 100.0279903  46.4431047  64.0810108
 100.2009296  47.5653410  63.0801773  92.9180145  77.8617477  28.7911844
  93.4789085  77.1014929  28.9449215  92.0370960  77.5575304  29.0094972
 111.0053062  49.4033575  36.2261224 111.4906311  48.6420345  36.5440536
 111.2890434  49.5060253  35.3177285  77.9380131  82.7738857  42.8681612
  77.2956228  83.3636951  42.4735880  77.7163744  81.9104767  42.5194025
 114.5940399  69.7434425  85.7474613 113.6491966  69.5929003  85.7185173
 114.9757576  68.9373541  85.3999901  19.4316947  88.6533070  90.6043053
  18.6701179  89.0095139  91.0618496  19.7118723  89.3583679  90.0206757
 113.1076050  53.4962559  52.3609352 113.4286690  52.6816177  52.7476072
 112.2966576  53.6826515  52.8340721  86.5143967 105.6986904  34.2021203
  87.1824074 105.9082603  34.8548603  85.9297371 105.0846386  34.6463704
  65.0329542  43.4781933  27.3950982  65.5679274  43.7675190  28.1342387
  65.6635618  43.1297445  26.7649031  70.4100418  99.5200157   1.7056355
  70.2371740  99.6348667   2.6400653  69.9091578 100.2170372   1.2819575
 101.9444084  68.1050444  31.7404151 102.4823189  68.8614368  31.5064144
 101.0676861  68.4660673  31.8717694  70.8885765  37.1185875  34.1420269
  70.9070826  36.4825368  33.4269524  70.3701305  37.8473735  33.8009715
  68.6251831  68.9298296  65.1927805  68.1955051  68.2755184  65.7436752
  67.9145527  69.3155289  64.6804571   8.4405655  66.6681576  22.0886302
   7.5230783  66.5683174  22.3425627   8.8848782  65.9265804  22.4995828
  93.2594872  34.3127108  35.6324697  92.7955627  34.8903394  35.0263691
  92.7678204  33.4918976  35.6047940  89.5997047  56.2363148   9.6039528
  89.1258335  56.9293070  10.0637841  88.9447594  55.5533123   9.4597739
  76.2309837  80.2604866   6.5409023  76.5366268  79.6583033   7.2192800
  75.8138847  79.6961403   5.8899200 101.4534092  76.0811186  52.1233034
 101.4513779  75.1279640  52.0354223 100.5385399  76.3082743  52.2895241
  66.4403629  88.9118099  45.2938080  66.5060043  88.5003281  44.4320583
  66.4182711  89.8508930  45.1097631  84.2205334  77.7050018  30.4139471
  83.9858627  77.0621300  31.0831833  84.5936775  77.1847010  29.7024131
  62.0463514  92.3418903  44.2663622  62.8105402  92.7169991  44.7040272
  61.7584991  93.0244541  43.6601591  84.5702934  82.1436596  43.3150291
  84.3809795  81.3155651  43.7562275  84.2009258  82.0378590  42.4383259
  90.9183407  92.3897457  26.9699812  90.1216888  91.9554996  26.6649985
  91.3554764  92.6783943  26.1688447  55.7443285  64.1997337  56.1864090
  56.5769911  64.1834974  55.7145548  55.5734110  65.1291561  56.3386822
  80.1432323  43.3558035  34.8123503  80.9122658  43.9120770  34.9363136
  80.4991245  42.5169706  34.5192051  66.0835648  61.0576344  32.0524549
  65.8209419  60.7421923  31.1877251  66.7919540  61.6768885  31.8765426
  55.3864574  66.5037966  24.2934728  54.6039438  66.2684965  24.7920036
  56.0749578  65.9418869  24.6490884  74.8694515  64.0296459  22.5426841
  74.2898512  63.6848021  21.8634343  75.7495928  63.7957859  22.2479129
  83.9468193  79.9998188  25.8672881  83.1311321  80.3099918  25.4740047
  83.6660480  79.4209862  26.5760541  88.5015392  67.9626560  17.0881581
  88.2595730  67.9702282  16.1620760  87.6734066  67.8355455  17.5510514
  72.7566242  76.7525101   5.3546363  72.7659655  77.4500561   6.0100579
  73.3704329  76.0995722   5.6910032  75.8940935  74.1216898  34.6866250
  76.7635441  73.7408781  34.8101687  75.9671068  74.6279383  33.8775420
 110.6403255  10.1150382  58.6560774 109.8570919   9.7223127  59.0415001
 110.9909916  10.6773293  59.3467951  96.7331028  71.2569427  56.3656950
  96.7904663  71.2579679  57.3211718  95.9123802  71.7109299  56.1745405
  57.1795702  94.3680191  14.3333340  57.2254801  93.8986397  13.5003829
  56.6759443  95.1576900  14.1358268  74.4367313  95.7611370  24.1980267
  73.5518456  96.0484314  24.4231319  74.6340895  95.0730801  24.8335195
  78.3486605  53.7238216  19.6777380  78.5839176  54.1485453  20.5026579
  79.1855288  53.5760498  19.2372382 102.6425552  81.0856724  39.7064042
 102.3974895  81.6339684  38.9610529 103.2546997  81.6236591  40.2084780
  99.6953678  88.0892086  61.1022234 100.2653694  87.7222633  60.4264450
  99.3707848  88.9063931  60.7239676   1.1191310  65.8942986  49.7764301
   0.2043948  66.0568142  49.5460415   1.1454323  64.9671984  50.0131321
  94.4985676  84.1478634  12.1969986  94.2484283  84.4968319  11.3414955
  95.2241039  84.7044754  12.4798858  89.3315887  87.8112507  12.8312075
  89.5370007  88.2086563  11.9849789  90.1194191  87.9477119  13.3574533
  82.6249886  84.0747452  35.1035094  81.8434334  84.5471859  35.3902411
  82.3627853  83.6520863  34.2856812  77.0564795  83.9983940  33.5289311
  76.4382601  83.4336567  33.9927411  77.6139116  84.3600082  34.2179394
  95.4045963  58.1151962  55.1157904  95.8964252  57.2999716  55.0170565
  95.1056576  58.1059456  56.0250664  81.3624191  66.1543941  32.4883747
  81.8573380  66.3246202  31.6869283  82.0008850  65.7653570  33.0860710
  11.2260985  99.0911484  16.7227030  12.1659076  99.2623425  16.6620076
  11.1654222  98.1588078  16.9307613  84.7832012  70.7399940  42.7592230
  84.8088074  70.6962729  41.8033648  85.5125618  70.1892710  43.0437946
  79.7589540  53.1895256   4.4317311  79.4891596  52.9585648   5.3206074
  80.4845524  53.8018942   4.5531580  89.2456722  75.9744787  38.8963842
  89.2202663  75.3272533  39.6011424  88.9604855  76.7895651  39.3093443
  20.3527927   9.6227163  18.4274793  20.9097767   9.0098608  18.9074898
  20.6088495   9.5123166  17.5117934  72.6193285  73.0045605  49.3051863
  73.4766626  73.0267334  49.7302961  72.5817680  73.8162851  48.7993002
  92.5941753  74.7127533  46.8278933  92.5051785  73.7629747  46.7489290
  93.3053303  74.8352098  47.4567795  78.8812065 107.9369450  46.0087490
  78.9383316 107.4350452  46.8218088  78.6487675 108.8220406  46.2894726
  47.3561764  54.1971254  34.3396664  46.9830799  54.8343611  33.7305999
  46.6406298  53.5860014  34.5150137  82.7820492  98.9357185  20.3618908
  83.5068703  98.3893681  20.0579691  82.0680141  98.3187675  20.5223989
  55.9542561  63.4256983  25.3345013  56.6053152  63.2780552  24.6485305
  55.2481651  62.8124523  25.1305461  11.7350876   1.0708389   6.1998391
  11.2869954   1.3737717   6.9895715  11.0297108   0.8911322   5.5782431
  60.5292892  63.1477356  33.3738136  60.0497150  63.9382172  33.6215711
  59.8713827  62.4527216  33.3924580  80.9022903  76.6754007  54.7341871
  81.4101028  76.0571051  55.2596140  81.3719654  77.5050068  54.8201609
  53.1606436  24.9232411  92.4153996  52.5070286  25.3345227  91.8498325
  53.0075502  25.3087616  93.2780457 115.0704002  69.2501068  63.1209373
 115.9455585  69.6364737  63.1533051 114.9344635  69.0420771  62.1965599
  85.2433586  77.3630095  16.3255501  85.6370926  77.8005028  17.0804024
  84.6157837  76.7481852  16.7055166  81.7547989  96.4256668  27.4103808
  81.3368988  95.5744839  27.5410938  82.2061920  96.6002083  28.2362175
  75.3297615  99.7650814  58.3680630  74.9462175  98.9191532  58.5994291
  76.2380219  99.5628929  58.1435442  97.1853924  83.4173965  28.2971072
  96.5494537  83.6022377  27.6059890  97.2524834  84.2373562  28.7863970
  71.8826723  52.4667597  48.6878204  72.5429773  52.1933556  49.3245983
  71.5895700  51.6511297  48.2815313  92.2391701  72.1909952  30.5110431
  92.5176048  72.5572824  29.6716738  93.0561733  71.9909763  30.9679103
  99.6928215  68.5204029  45.5135393  98.7659836  68.4655809  45.7463312
  99.7221184  68.2774639  44.5881462 109.2088795  82.5010300  86.4179134
 108.4475803  82.6959801  86.9644070 109.9610043  82.6810074  86.9819546
  67.9985762  98.8227940  38.6268997  67.7093029  98.2852173  37.8896332
  68.8731623  98.4938526  38.8345575  99.1481876  71.2782192  42.6902533
  99.1916466  71.8346977  41.9126463  99.1065121  70.3865576  42.3446560
 112.1011066  18.6847019  93.4505749 111.2189770  18.9404595  93.1810093
 112.0884609  17.7277207  93.4344769  96.5791225  79.0905190  47.8236246
  95.6398010  79.2697668  47.7815437  96.7370510  78.8536739  48.7375164
  68.0669975  90.8001423  43.1162500  67.8982258  90.0208759  42.5866222
  68.7881517  90.5466080  43.6923456  82.4351883  86.0891342  49.3764210
  82.6376724  85.2454376  49.7806549  83.1678581  86.2520981  48.7823915
  26.7304206   3.5674721  39.0013981  26.1181664   3.2356465  39.6581101
  26.3770556   3.2590243  38.1669974  67.7355051  84.0770149  23.2697344
  67.1126986  84.5563412  22.7233076  67.7828693  83.2074261  22.8725028
 105.4824352  57.7664518  47.1305418 105.0836754  57.6144028  47.9873371
 105.9690380  58.5841608  47.2345400  88.1037712  53.5344744  58.0824518
  87.6513481  53.2117319  57.3031044  88.0588245  54.4877100  58.0079603
 102.1626663  43.7298012  53.5678387 101.2100697  43.8233280  53.5737991
 102.3195934  42.8543234  53.9215899 115.4895401  90.2558708  78.3883619
 114.7564793  90.5804920  77.8654146 115.5567741  89.3293858  78.1574011
  73.2146645  55.5425739  50.4887104  73.0115557  55.3454065  51.4030981
  74.1400433  55.3165627  50.3947973  90.0132084  90.7505226  35.8227992
  90.7775784  90.8768559  35.2606511  89.3205261  90.4685307  35.2253866
  83.9505196  95.3308392  21.2435818  83.9662743  95.7557201  22.1011734
  83.2382011  94.6943665  21.3046598 101.2051201 100.0632954  36.0685086
 100.8247280  99.2110348  35.8559394 101.8353367 100.2260590  35.3666782
  64.3757820  77.4849081  25.1781058  63.7252760  78.1653976  25.0048733
  64.1551876  76.7816496  24.5673656  71.5116644  78.1129408  63.9718676
  72.1734190  78.5637569  63.4473896  72.0111990  77.5041246  64.5159626
 103.1140518  73.1886911  11.5411162 102.1679020  73.3245277  11.5919363
 103.4908295  74.0345001  11.7837858  72.0465469 103.0183697  23.6001492
  72.5157118 102.7630711  24.3944669  71.3329649 103.5750008  23.9119029
  92.1898842  66.5656996  20.5333376  91.6412544  66.4799833  21.3130093
  91.6525364  67.0616961  19.9157012 100.2955055  64.0932560  19.9193633
 100.5675220  63.1819201  20.0275612  99.3501377  64.0803909  20.0688219
 107.3360062  52.0795679  14.4829941 107.9460812  51.5332127  13.9874780
 107.2275448  52.8647518  13.9463806   7.3829895  93.2175446  28.7689352
   7.0941573  94.0001392  29.2383575   7.8970653  92.7287960  29.4116521
  12.1047163  81.8104744   3.2338923  12.9594171  82.1167564   3.5370636
  11.6805482  81.4671803   4.0203136   8.9359361   4.4972578  37.3488998
   8.6259192   4.6656197  38.2387185   8.2931215   3.8902023  36.9821501
  64.3506670  80.9220982  51.0155487  64.9446011  81.4918995  50.5268717
  63.9975023  81.4813042  51.7074966  12.0773387  83.6940670  39.6982193
  11.3146329  83.1223774  39.7859192  12.7330852  83.1527901  39.2586112
  77.0226622  46.6396141  32.6681376  77.6909161  47.1357012  33.1409645
  77.1472740  45.7352638  32.9559851  65.5103350  94.0135479  60.7979918
  65.7735252  93.4695721  60.0556612  64.5991468  93.7704468  60.9619141
  98.9663887  81.1529064  28.4324861  98.2604218  81.5361309  27.9119325
  99.7521210  81.2798023  27.9007339  56.5484953  60.1334000  14.5352411
  57.4153280  60.4836369  14.7405684  56.7117786  59.4645357  13.8702643
 104.2951870  86.5907288  35.8473825 103.4482479  86.4461708  36.2693262
 104.9236679  86.6016102  36.5692735   1.6046520  81.0522079   8.9634824
   1.7663491  81.4988232   8.1324440   2.1601166  80.2734375   8.9289081
 100.3048325  56.0086346  29.4105744  99.8105717  55.5626678  28.7227869
  99.6487617  56.2311459  30.0710964  46.2055063  23.3234954  86.9050026
  45.3263712  23.5524869  87.2065163  46.7904854  23.8471127  87.4525928
   3.7687895   4.9238107  40.2034473   3.7912598   4.4288054  41.0224056
   2.9390007   4.6753347  39.7960854 105.2620506  64.8799753  74.4423628
 105.2261162  64.9803305  73.4911156 104.5237160  64.3075943  74.6508789
 111.5315819  70.8763504  63.8629150 111.5883255  71.7411947  63.4566402
 112.4004650  70.7298994  64.2368317   6.1413497  63.0129385  65.0119877
   6.8877029  63.5019302  64.6654701   5.4369378  63.1744719  64.3843365
  99.6666718   3.2217661   9.5341617 100.1344967   3.1556875  10.3666282
  99.9578667   2.4589820   9.0345663  84.8072433  70.2636862  39.8273230
  84.7072601  69.3150616  39.7476697  85.3119850  70.5170536  39.0544915
 100.9354591  84.2981911  59.5656872 101.5146732  84.8726177  60.0664616
 100.0798988  84.3977547  59.9832392  86.1556053  86.2709999  29.8852777
  86.4681721  85.5391788  30.4172277  86.5333939  86.1163044  29.0194964
 109.4221020 101.5594864  25.4314947 109.3859959 100.8421040  26.0641813
 108.6329460 102.0724297  25.6057072   5.7307798   5.9726417  61.5562725
   4.8410821   6.3168931  61.4777851   5.6228584   5.1270014  61.9915628
  72.4669600  56.0069561  37.9400563  72.7826691  55.4229641  38.6296320
  71.7596340  55.5190945  37.5182605  31.7478466  28.6180496  89.7533703
  32.3144627  28.1760025  89.1211033  32.2335935  28.5807943  90.5773258
  79.1035891  79.1567326  40.2093077  78.4464598  79.6631336  39.7318435
  78.7793398  78.2565689  40.1810122 113.7554932  79.1518259  42.0678282
 113.6779213  79.8659468  41.4351797 113.6131096  78.3582497  41.5518951
 102.5144196  84.3528366  33.0731750 101.7685699  84.0634441  33.5987091
 103.1787300  83.6769199  33.2075262  20.3797340  62.1199608  27.9013419
  20.8318996  62.8558207  28.3140016  19.6994066  62.5271702  27.3650908
 100.9097481  97.2448730   8.2093495 100.0825787  97.6807404   8.4143424
 100.8161068  96.9701481   7.2972161  39.1630220   8.0777633  57.8484344
  39.7081423   8.8495129  57.6952076  38.4890389   8.1221002  57.1701908
  18.5704434  69.5496750  32.0093369  19.3682647  70.0666523  31.8977714
  18.1303954  69.6022177  31.1609077  80.2225780  98.2802582  26.0732031
  81.0236549  97.8947258  26.4279723  79.7791338  97.5524712  25.6373978
  95.6525707  99.4017124  14.7868180  95.4076481 100.1594830  15.3178787
  96.5837479  99.2734146  14.9676299 111.3207722  73.6397171  21.9972634
 111.6342545  74.5437908  22.0218873 110.6827831  73.5879612  22.7089715
  12.9874754   9.8783141  19.4792688  13.4681106   9.5457971  18.7212098
  13.5657334  10.5405176  19.8578656  22.3280668  54.5657349  26.5542126
  22.4043512  55.4219151  26.9753647  23.2255745  54.3367481  26.3127995
  33.6503386   7.0929807  34.8088312  32.7169728   7.2037911  34.9898934
  33.7778997   6.1447412  34.7805285  51.9468927  78.1477356  11.6360056
  52.3299503  78.5142374  12.4329853  51.0720062  77.8628159  11.8998682
 102.9256153  90.7885265  40.7746792 102.5769997  91.6147041  41.1095285
 102.9361057  90.2072525  41.5351057  82.7285290  99.5076180  38.7884712
  82.8497601 100.3548813  39.2170334  81.8492126  99.2319012  39.0473390
  40.7557297   8.7350088  53.6370802  41.6681719   8.4667611  53.5287952
  40.7882786   9.4388086  54.2850304  70.5710697 108.6768913  26.5805626
  69.9636126 108.2660294  27.1957159  70.4867935 109.6149826  26.7512083
  64.5084667  85.4278660   2.1804030  64.3189812  85.0351238   1.3283026
  64.4688463  84.6957207   2.7957270   3.6224389  24.5564771  32.8545022
   4.2368755  24.8295283  33.5357833   4.1297188  24.5979953  32.0438385
  86.6001892  28.3560443  42.9549503  86.9718647  28.2757568  43.8333845
  86.0953903  29.1688681  42.9818439 113.5307407  71.5704155  50.6271219
 113.5492039  72.5237465  50.7110882 112.9120445  71.4045715  49.9158192
 102.3026848  69.2690611  24.0955901 103.2338524  69.3707085  23.8985705
 101.8550777  69.6728277  23.3520460 110.5303288  81.5177822  36.0445595
 110.6267166  81.2037277  35.1454997 109.8980713  82.2336960  35.9816957
  33.6412549  64.3293619  12.1667504  32.9994202  64.9471045  11.8165028
  34.4818950  64.6421432  11.8324995 101.0966110  71.9432783  74.8340702
 100.5313778  72.3765850  75.4735994 101.9191933  72.4312782  74.8719645
  85.2371979  47.9200935  49.0146637  84.8132229  48.2610083  48.2271004
  84.7097683  47.1601629  49.2607450  87.7655125 106.7415142  26.0013294
  88.1287479 105.8896828  26.2435484  86.9787788 106.8282413  26.5396190
  76.8119192  81.2086868  46.0625887  76.6915321  80.3185272  46.3932705
  76.8517923  81.1075592  45.1115799   8.1683874  55.4263830  22.4454999
   8.0401057  54.5912790  22.8953576   8.5143346  56.0110283  23.1198454
  75.1160765  90.5897999  42.0197630  75.3420162  89.7740364  42.4666595
  74.8286533  91.1751080  42.7204990  88.7229538  34.9270225  84.7281551
  89.6360302  35.1139474  84.5100403  88.7725925  34.3091130  85.4575157
  78.3011246  20.6777763  87.8508759  78.7464714  21.4428473  88.2149696
  77.8385925  20.2930546  88.5953808   2.5900888  79.1205025  34.4174433
   1.9973518  79.8720646  34.4244361   2.9049164  79.0553665  35.3190374
  15.2280152 106.3880157  49.6984911  15.3755963 105.5891132  50.2046490
  15.0154138 107.0515347  50.3548241  74.3031025  79.4655132  22.1306992
  73.7366104  79.0867805  21.4584756  74.2287827  78.8652372  22.8725719
   8.0269051  73.7616730  44.1867304   8.3190405  73.5823488  45.0804520
   7.9874146  72.9006767  43.7703609  97.3630810  80.8708191  94.1932869
  98.2512760  81.0069466  94.5231724  96.9880486  80.2134514  94.7793388
  74.1030025  52.8322172  14.4657099  74.3723679  53.3465052  15.2267492
  73.1869793  52.6133013  14.6366203 112.3495483  11.9928181   8.5752219
 112.6775837  11.2095106   8.1335747 112.5363541  12.7071726   7.9660976
   7.2963762  94.6785545  46.1529446   6.4931363  94.8824310  46.6319752
   7.3513842  93.7231541  46.1732101  76.4917898  93.1801224  70.5481148
  76.9825459  92.4039841  70.2779198  75.9252596  92.8711605  71.2550974
  93.6447239  77.5809622  68.8257504  93.5593891  77.0650196  68.0240345
  94.4470692  78.0876446  68.7002373  30.0959873  62.7408648  91.9335556
  30.1652050  63.6830330  92.0876980  29.5784450  62.4150848  92.6699352
 102.6459694  69.5492315  16.8941557 102.6091480  68.5927391  16.8948424
 101.7317009  69.8240662  16.8248141  88.0598259 108.2860470  42.2400904
  88.5632992 108.5408974  41.4669180  88.4996033 107.4999046  42.5638580
  88.8614750  56.5717649  38.0544853  89.1258144  56.1254025  38.8589215
  89.6815014  56.8886995  37.6758838  70.4536533  25.6243396  79.5661592
  70.4375982  26.3854814  80.1463699  70.0570107  25.9351325  78.7523317
  81.3174725 107.9714203  58.6070585  81.6061401 108.6425114  57.9885578
  80.4729080 107.6780224  58.2652044  76.8905020  63.1254292  33.1646061
  76.6891813  62.4004889  33.7563515  77.8467655  63.1659031  33.1520939
 108.7736034  60.6993246  11.7828929 109.5928574  60.6720734  12.2771692
 108.8169479  59.9373341  11.2052023  18.2098162  15.3957498  27.9744148
  17.8979719  14.5066714  27.8055263  17.4631464  15.8389878  28.3772278
 109.7360420  95.1430893  45.7414865 110.1337051  94.5773888  45.0796080
 109.6023846  95.9784222  45.2936172 104.3223286 103.7540054  52.9976559
 104.0197659 103.3854103  52.1676970 104.9912357 104.3911743  52.7470636
 104.6600914  90.6725693   5.4159397 104.6187687  91.6271305   5.4736203
 105.4264832  90.4340553   5.9374589 111.0218525  82.9257584  27.1753097
 110.5261326  82.1875668  26.8209553 111.3681507  83.3741379  26.4037752
  89.4659519  73.8233757  13.0811775  90.1607609  73.4022951  12.5750399
  89.8610020  74.6341038  13.4019506 116.5449490  81.2615490  21.2417102
 116.0704221  82.0926762  21.2251782 115.8703830  80.6039429  21.4112639
   1.3111942  72.7517128  38.5822749   1.2496424  73.7034273  38.6640382
   2.2196484  72.5502920  38.8067150  90.9820175 103.2545853  55.1828766
  90.6854630 103.3374310  54.2765474  90.1750755 103.2109261  55.6958723
 111.6692352  71.0325766  42.1040010 110.7491112  71.0329962  41.8401766
 111.6450500  71.1131144  43.0574989 109.9903870  89.0819263  35.1738167
 109.5376682  88.6545372  34.4467640 109.6941280  89.9914646  35.1389551
  68.8781881  84.7393990  27.3037243  68.6514235  85.6506348  27.4893475
  68.2839680  84.4836426  26.5982318  17.3787642   5.1710832  39.5173383
  17.5596917   6.0914868  39.3266702  17.8705120   4.6877873  38.8533783
  91.1680222  77.8044510  23.5569119  90.4764843  77.9624081  22.9142118
  91.1711597  76.8548012  23.6768603  40.4794312  12.8626239  90.0418091
  41.0679293  12.4388587  90.6665707  40.8587503  12.6671886  89.1849899
  94.9673557  82.8388405   1.1929827  95.0990009  82.7841282   2.1395078
  95.7092953  83.3547592   0.8774070  61.4019632  78.3218336  46.4286566
  61.7776394  78.3008528  45.5485106  60.7311535  79.0033579  46.3865662
 114.2323399  94.1188145  11.1763525 113.6335945  94.7878075  10.8444142
 114.4121361  94.3845177  12.0781887   3.7891248  40.8118916  15.0340855
   3.6402798  40.5635786  14.1217160   3.7511820  41.7683315  15.0312507
   0.7581719   3.9794469   1.6116369   1.0268978   3.9660555   0.6930299
   1.5670943   3.8267919   2.1000758 111.2371063  69.1762018  15.5935609
 111.9422722  69.7973394  15.4114664 111.5187836  68.3639383  15.1727033
  17.1263409  66.2471867  45.0089121  16.9988763  66.8744755  45.7205963
  17.3607635  66.7863464  44.2535400   7.0330250  36.0650659  27.1999002
   7.2727835  36.0355449  26.2736821   7.6848400  36.6421938  27.5977564
  82.8736973  84.2259312  39.1256404  82.0349026  83.7668228  39.1690731
  82.6404190  85.1539135  39.1513515  98.9274311  87.6928139  23.7152004
  98.5381889  87.4888229  24.5655560  99.5504475  88.3957672  23.8994122
  17.9977882  79.8200035  16.8769050  17.2802758  79.6090555  17.4743247
  18.6898398  79.1993666  17.1051753 102.8787136  66.9706392  17.1122944
 103.8090897  66.7510843  17.0629823 102.4784660  66.2201643  17.5514114
 108.4522057 103.4124088  20.5492806 108.4315300 104.2885303  20.9342813
 108.4919357 102.8212929  21.3010979   0.6517635  77.1519947  32.7073359
  -0.1088832  76.5737343  32.6501775   1.3014105  76.6457033  33.1950426
  47.7207422  49.1751242  89.5784664  47.5850439  48.7078953  90.4027939
  47.3212719  50.0332308  89.7209644  44.5074177   3.6328039  28.0292583
  44.1543627   4.5122173  27.8942847  45.2114534   3.7525743  28.6666083
  83.7316704  49.0024471  46.5614414  84.4760323  48.6882257  46.0481930
  83.5984230  49.9024200  46.2639046  77.7579784 102.7412128  72.8511286
  77.7375126 102.9525852  71.9177866  77.7961922 101.7851925  72.8794193
  10.1903522   3.4134534  27.2369409  11.0303569   3.7126875  27.5849104
   9.7905415   2.9294044  27.9594922  91.8565464  87.4262619  21.1517549
  92.3146343  87.1730709  20.3503299  90.9326553  87.4491978  20.9024835
   5.3564864  91.6098118  44.5090485   6.3006926  91.7148781  44.3921328
   5.0814164  92.4058819  44.9638510  26.7355347  53.8021851  87.9292774
  26.1664248  54.4937229  87.5914574  26.2095428  53.3648872  88.5988522
   1.1732958  95.3902817  39.0244722   1.3129497  96.1272049  38.4297705
   0.5471526  94.8288822  38.5672927  88.3494854 106.3553143  18.8369131
  87.5376511 105.8749771  18.9995039  88.1230450 107.2707939  19.0007532
 108.3024025  48.3355379  52.7301979 107.5936985  48.3056259  52.0874834
 108.9331627  47.6850271  52.4216509  65.3336763  57.8331709  17.4840140
  65.5396748  58.2810307  16.6635156  64.5334148  57.3431683  17.2950447
  97.9351711  58.0081320  59.3618107  97.7683067  58.5231543  60.1512051
  98.6364841  58.4794712  58.9121151  81.3592339  80.9472275  25.4144716
  80.9048939  81.6245556  24.9134326  81.4084244  81.2992001  26.3032508
   5.8119017  40.6519890  10.3131843   6.1279678  41.5549135  10.2806902
   5.2708083  40.6158733  11.1019468  91.7809868 102.6152897  49.6026802
  90.9294987 102.6098824  49.1654634  91.8076038 101.7891788  50.0854301
  65.9494829  95.5991745  41.0449076  66.5313244  95.9224224  41.7328024
  66.5228462  95.4630852  40.2906084  92.0815849  98.8384724  14.7490442
  92.8721905  99.2220306  14.3694937  91.9330025  98.0422497  14.2389572
 103.0235291  96.6973209  45.0528765 102.8039074  96.9211483  45.9572554
 103.7117863  96.0365868  45.1300335   6.0423291  85.5407333  37.1829414
   6.9756836  85.3354740  37.2372603   5.9343696  86.3134766  37.7374077
  76.4848423  89.8927212  70.1871777  77.3727179  90.2098083  70.3525829
  76.5966654  89.1912746  69.5455408   1.7670959   8.2785404   5.6141251
   2.3489022   9.0375876   5.5743748   2.1738899   7.6343518   5.0346673
  91.0201836  82.5657845  49.8445797  90.7730293  82.6482677  50.7656336
  91.9640827  82.7245235  49.8347330  64.6612453  60.1808882  60.9539938
  63.9692020  59.6300173  60.5881357  64.9619627  60.7099724  60.2151680
 103.1415749  79.3373442  21.2753129 103.0721664  79.9368000  20.5323005
 102.2368240  79.1949320  21.5534878  86.6908932  93.3028698  53.6414814
  87.1245480  94.1557217  53.6700153  86.9761086  92.8622532  54.4419432
  64.4648409 102.4445343  65.6802273  64.3379116 102.4055672  66.6281748
  65.3577757 102.1273804  65.5449009  94.0042686  98.6589622  12.7254713
  94.7536373  99.1357517  13.0823350  94.1592503  97.7479076  12.9748321
  59.3013334  95.2795410  16.0355115  59.2163181  96.2062454  15.8113956
  58.6245155  94.8446274  15.5168617  92.5877476  68.4933090  26.1472058
  93.4373093  68.3398914  25.7337594  92.1544552  67.6400089  26.1280155
   7.7319986  70.6012344  43.0093336   6.8371266  70.2910471  42.8707027
   8.2404184  70.1845455  42.3135567  27.2185755  15.7012975  62.8529787
  27.4220800  14.9767065  62.2615528  26.9763184  15.2775729  63.6763859
  57.3409510  16.2819839  23.9884901  58.2796335  16.0949349  23.9776444
  57.2872448  17.2322559  24.0901327  80.1986027  94.4598007  12.3312056
  79.6231222  93.8017559  11.9412780  79.7404337  94.7391987  13.1238317
 111.8248177  71.4697123  48.4422302 111.7656803  72.2376347  47.8738737
 110.9149551  71.2168932  48.5986900  80.7298470 106.9643593  41.2828207
  80.6009293 106.1511803  40.7946157  81.1481285 106.6900253  42.0989180
  86.5637302 100.8557129  22.6189470  87.0285416 100.9260559  21.7851377
  86.8492413 101.6212368  23.1176424 111.1442852  95.0082779  40.8325386
 110.3394032  95.5230427  40.7740831 110.8848000  94.1267490  40.5645800
  85.9199810  53.4456587   2.7965608  86.8759632  53.4832001   2.7661380
  85.6414032  54.3566084   2.7027458 110.0401115  57.2551775  61.5895271
 110.3336334  57.1489334  60.6846619 109.9942303  58.2027721  61.7167473
  21.1601686 101.1395168   8.0169564  21.9725323 100.7407188   7.7050900
  21.4314437 101.9820690   8.3813047 112.7565575  64.1614676  58.8692141
 112.5522995  64.8855305  58.2774067 112.2941875  63.4103966  58.4972763
  87.3872852  67.4107933  22.1305990  87.6627827  66.5052795  22.2733879
  86.5910625  67.5042057  22.6536059 109.9988842  88.6480999  52.6805449
 110.5731106  87.9470634  52.3722506 109.6398735  89.0327168  51.8809128
  56.3504601  89.9636269  46.1135674  57.0199823  89.2818832  46.0569382
  56.3989544  90.2723789  47.0183039  88.4737110  97.0704079  26.2661815
  88.3813858  97.3082638  25.3436136  88.5264206  96.1146641  26.2629986
   5.2790254  89.3710327  28.4430194   5.8510327  89.0530682  29.1415429
   5.8371407  89.3881130  27.6655579  74.9847269  30.7155776  89.7360229
  75.9361935  30.8153844  89.7047138  74.8342085  29.7912931  89.5378399
   8.8447976  42.9189730  42.9056263   8.4591138  42.8211880  42.0350409
   9.7887945  42.8643894  42.7568913 105.3708458  92.2828102  39.9066830
 104.4898033  91.9284248  40.0266504 105.5936432  92.0691109  39.0006304
 113.9487553  91.1409092  30.1712728 114.7379684  91.6339016  29.9469519
 113.4876823  91.6989517  30.7975531  95.4849243  50.9312582  13.2680213
  96.1705971  50.5080700  13.7847352  94.8965740  51.3142300  13.9187205
   6.4670569  94.8058891   0.7737328   6.4096928  94.1490841   1.4676715
   5.6729311  95.3307152   0.8744582  93.5635853  87.5055695  25.2536941
  94.0984344  87.8129578  24.5217919  92.9059982  88.1906319  25.3741097
  95.0758648  80.2106667  56.0817337  95.6434059  80.8414078  55.6386900
  94.8567581  80.6291294  56.9142675  94.1632938  75.6269741  36.0657048
  94.5309925  74.8377848  36.4634585  94.7770214  76.3224983  36.3019466
  81.3224983  54.9361086  27.2503400  82.2177887  54.7356129  26.9774127
  81.4262962  55.4845381  28.0279541   9.2730129  12.3323369  13.2886732
   9.7005099  13.1877744  13.2473707   9.9378264  11.7171538  12.9791498
  88.1069565  71.7757654  23.0317163  87.9202557  72.0756578  22.1420884
  88.7435722  71.0700703  22.9179263 115.5031300 101.5628719  53.4885550
 115.4749012 102.1431828  54.2492628 115.3483868 102.1402836  52.7409649
  75.3323364 107.9903603  63.2789326  75.3890419 108.7607479  63.8441944
  74.4168472 107.9643345  63.0006599  83.2496643  79.4597816  59.5162344
  84.0037918  80.0282574  59.6723175  83.4111309  78.6918163  60.0643110
   5.0829548  97.7506351   6.2175614   5.3114337  96.9668102   5.7179159
   4.1327101  97.7001476   6.3210857  47.8886747  24.0711570  92.1315479
  47.9895115  23.8617015  93.0600929  47.2369099  23.4459734  91.8144035
  87.6208210  95.3908539  40.2210617  87.8945827  94.4820690  40.0969267
  87.1611404  95.3899670  41.0606623  49.9643040  10.3742325  77.6349258
  50.6022644  10.5762935  78.3193302  49.1252804  10.3340364  78.0939054
  96.9864750  51.8093634  60.5265236  96.7582512  52.7296734  60.6575680
  96.1493111  51.3469744  60.5663061  78.8344336  67.6765680  26.6268492
  78.0545521  67.6594067  27.1815705  78.7452412  66.9072342  26.0643554
  83.3727074  75.5984020  17.5928926  83.4209633  74.6752167  17.3446393
  82.8768253  75.6006527  18.4116256  79.1156530  78.3062840  44.5755386
  79.7663593  77.7350903  44.9836397  78.9051151  78.9506483  45.2513361
  96.9151592  54.9214172  24.9736452  96.2189388  55.2902699  24.4300842
  97.6625347  55.5025673  24.8324966  81.8066502  56.9513083  56.5029860
  81.2150383  57.4463463  55.9362698  82.6665974  57.3439312  56.3527584
  83.7771893 105.8380318  52.7713156  84.4834137 106.4836502  52.7970266
  83.2330322 106.0479355  53.5303020  52.9143429  86.5272713  40.6197691
  53.3293009  87.0477104  39.9318862  52.1145391  87.0075607  40.8339500
   6.6407359  63.4279823  42.3972940   6.0670108  63.5917330  43.1457996
   6.1393499  62.8364563  41.8360996  73.4985256  81.8467140  22.9919481
  72.6223469  81.4871788  23.1308079  74.0231991  81.0971355  22.7107358
 112.9441261  92.2959805  20.5199456 112.9366779  91.6581345  19.8062718
 112.8303242  93.1417656  20.0864530  89.6798325  92.4939060  22.8347087
  89.6120358  91.7199135  23.3937883  89.0160847  93.0939102  23.1747913
   5.0163198  70.9408617  36.8987560   4.2294633  70.9952402  36.3564181
   5.7333630  70.8465958  36.2717032  50.4391241 100.7048988  30.5920529
  50.8661842 100.8407497  29.7462416  50.1988602 101.5845585  30.8830810
  87.6435184  76.8820477  15.5560327  88.0005169  77.4476480  16.2407851
  86.6956329  77.0000315  15.6179500 105.0515747  83.1265926   7.5568312
 104.8074627  82.2011662   7.5718361 104.3056107  83.5775089   7.9523677
  97.4789238  79.4119978  21.5275455  96.8809891  79.2812204  22.2634768
  98.3505154  79.2808676  21.9008756   6.0439974   4.4213048   9.1357958
   5.3487313   4.8133391   8.6074531   5.7569075   3.5193539   9.2782581
  83.4069443  54.7535753  11.0325933  84.2050266  54.6925640  11.5575361
  83.6652946  54.4384718  10.1664555  72.2491646  92.3752022  51.9159174
  72.4145603  93.1868362  51.4362049  72.6162004  91.6887188  51.3589096
  96.0429096  98.0844688  35.9224176  95.5390263  98.5421944  36.5953445
  95.4338169  97.4382114  35.5652261  82.9818439 100.1507378  47.0733786
  83.4975719  99.3666172  47.2615719  82.5250340 100.3394032  47.8931141
   2.9643863 107.1706295  31.4693356   3.1183845 107.1892166  30.5247879
   2.4350543 106.3856697  31.6103077 113.1064892  99.5173550  41.7444992
 112.6176929  99.0821648  42.4430084 113.7292862 100.0811100  42.2033453
 102.4870110  75.1829529  42.5758743 102.4718475  75.3878260  41.6409779
 101.7625523  74.5694542  42.6984119  15.9701431  62.7736378  25.0613070
  16.3973439  63.3489418  24.4266748  16.6605437  62.1736288  25.3433824
 103.2845497 103.5584068  14.0479171 103.5803223 103.5625744  13.1375682
 103.6849213 104.3377209  14.4334078  86.3752270  75.3501606  52.1701479
  86.1673641  74.4916439  51.8014050  86.8414783  75.1551628  52.9830551
  92.6202297  90.7706165   7.2131813  93.5612679  90.8250427   7.3796576
  92.3388195  89.9857903   7.6833928 110.7395458 108.5904026  13.1191552
 110.1128387 108.9082623  12.4691999 110.2331352 108.5264397  13.9289010
 109.5940876   7.9503703  38.1758881 110.2485275   7.7050442  38.8299203
 109.3976116   8.8676882  38.3660388  22.8655028  13.1847155  13.7115729
  22.5190234  12.4608254  14.2332673  23.6615705  12.8331232  13.3129609
 109.6180534  97.5596333   6.9816256 108.9204311  98.1051445   6.6183329
 110.0623798  97.1971607   6.2151915 114.2277908 100.3151989  12.1675205
 114.2223454 101.0948849  11.6122782 113.7471008 100.5770111  12.9527771
  86.5732002 105.6542397  22.0601749  85.8558273 106.2778854  22.1727610
  87.3253059 106.1952305  21.8195367 115.4434490   3.9781594  54.7205782
 116.2937260   4.4005817  54.8423100 115.2534103   3.5739729  55.5671883
  48.6074448  32.2951245   7.3313010  48.5952044  31.5510416   6.7292833
  49.2941999  32.0810246   7.9627764  93.0684757 104.7821331   3.2061923
  93.4205914 105.1589680   2.3998165  93.5134506 105.2582359   3.9073005
 102.3124218 108.1921005  52.1430445 101.7447186 108.9500427  52.2825956
 101.7908001 107.4449539  52.4361610 110.8509064  90.3015137  26.2508416
 110.4231262  91.0028362  26.7421412 111.5881443  90.0383949  26.8017316
   9.3492341 102.8237152   8.5842025   9.8614508 103.5862446   8.3151031
   9.3289447 102.8739452   9.5398688  44.7559690  11.8117368  24.0984106
  45.4322910  11.3946533  24.6321321  45.1438284  11.8732965  23.2254791
  46.2462521   8.9184058  13.3974910  46.2022591   7.9897130  13.6251438
  45.3799868   9.2604649  13.6184323  89.2317390  84.6105385  26.6793084
  88.5433197  85.1315784  27.0926118  89.7869778  84.3277550  27.4059319
  13.6686790  86.9019890   7.7945137  13.3538938  87.1745968   8.6563897
  13.5760999  85.9492779   7.7960312   4.5017901  12.2397029  30.9330630
   5.2236772  11.8043780  30.4796290   3.8120541  11.5774214  30.9764147
  81.2083817  84.7241306  57.5273705  80.4881096  85.3276348  57.7096128
  80.8895111  84.1814423  56.8062305  88.8982677  98.7589455  35.4959297
  89.4364452  98.1217957  35.0262189  88.5908890  99.3596268  34.8170114
 106.8878937  71.0127687  28.3826756 106.2964725  70.3357840  28.7115240
 106.8533421  71.7032003  29.0447474 105.1640320  17.8682375  35.3693151
 105.7791519  18.5798872  35.5465651 105.4905987  17.1342063  35.8896852
   6.2429696  86.4610291   9.0533316   5.8465612  86.7431355   9.8776543
   5.5386919  86.5391159   8.4098053  95.6321812  89.7491837  44.3339157
  94.7837067  89.8758602  43.9093256  95.4328442  89.2421246  45.1209307
 111.9763374  75.7368755  26.1956596 112.6778316  75.3224897  25.6932545
 112.4192905  76.1253643  26.9500470 103.0474091  29.7893548  94.5413399
 102.8675842  30.2295971  95.3720474 103.1933784  30.5020499  93.9192486
  20.7810211 101.9896793  43.6250877  20.5081987 102.8982162  43.7529898
  21.3624477 102.0188999  42.8652668  44.2259932  33.6263585  56.2352657
  43.6331224  34.3419218  56.0056782  44.5817089  33.8744736  57.0885706
  91.0564041  97.3267460  49.5838881  91.2441063  96.4603329  49.9449158
  90.1105595  97.3251724  49.4368601  26.5407467  93.9161968  10.9500158
  26.4010406  93.8724899  11.8959558  27.4322367  94.2514801  10.8548105
 115.0560856 103.0822277  27.0942712 114.2681599 103.1256485  27.6360512
 114.9560261 102.2746086  26.5903211 102.0983410  85.1917934  41.1656237
 101.2421894  85.1773930  41.5934420 102.7188778  84.9853611  41.8645954
  99.1903210  70.0872850  57.5314760  99.1832066  69.8278141  58.4528065
 100.0917244  70.3645658  57.3676920 100.0057220 104.3887329  44.4574165
  99.7094631 104.9340630  45.1861715  99.4817352 103.5907173  44.5269728
  28.3920383   7.5193650  30.8568835  28.9655423   8.1100345  31.3451815
  28.7599921   6.6487837  31.0083103  55.8444309  46.7933273  93.7152767
  56.0611486  46.9627666  94.6321011  56.6898012  46.6376591  93.2941628
   5.7331586  98.0778217  41.8749142   6.4803493  97.7777481  41.3573313
   5.5644137  97.3629570  42.4886990  90.2134800  60.4723930  52.8291512
  91.0200024  60.8902168  53.1310892  89.9622154  59.8904133  53.5463667
   4.9619284  98.5421562  38.1619883   4.2022189  98.6046028  37.5830460
   5.1851046  97.6113415  38.1647253  87.8684807  98.3616734  23.7599826
  87.3074722  99.1071129  23.5459280  88.7530613  98.7266254  23.7836051
  79.6321964  88.1578350  39.9810529  78.9409685  88.7803173  40.2067804
  80.2845955  88.2628536  40.6735754  77.4374628  76.4792395  13.4726417
  77.0340347  77.3444891  13.5420966  77.4076509  76.2754107  12.5378716
  12.4622524  69.2510939  75.3994751  13.3157539  69.6426392  75.5851078
  12.1826243  68.8786411  76.2357283  94.4804668 106.4047909  27.2571802
  94.5515919 106.8882847  26.4341331  95.1800537 105.7529640  27.2132802
 107.2178555  86.9523048  35.9289122 107.1263599  87.4446106  35.1131392
 107.4453831  86.0655785  35.6492949  33.2238817  16.5892172  50.2966690
  33.1414461  17.3334932  50.8928967  32.5694871  16.7527640  49.6175194
  11.8835998 107.2206116  11.2480569  12.0568466 108.1615353  11.2777448
  11.1000991 107.1042633  11.7854774  95.0232792 103.0596066  36.0940385
  94.4882679 102.3900986  36.5203738  95.7575989 102.5750732  35.7169056
  89.8988247  80.5983734  29.4849896  88.9988232  80.8990479  29.3592167
  90.3446865  80.8296204  28.6701512 115.9735584  95.2907181  18.4008992
 115.5646420  95.9833527  17.8819859 115.3980064  95.1876926  19.1587567
  75.2363682  94.8725510  68.7274742  75.3623533  94.1291237  69.3171120
  76.1133337  95.0675201  68.3970928  96.6898060  97.9660511  24.5013523
  97.4145126  97.4108028  24.2137027  96.6984367  97.8956890  25.4559231
  81.7288494  61.9354343   7.9856151  81.4316177  61.2367630   8.5684878
  81.1633110  61.8627644   7.2167796  34.8966599  22.3042703  93.7017536
  33.9395738  22.3014045  93.7161827  35.1447105  22.9227018  94.3889523
  83.3501148  87.8995514  54.7793055  83.1292439  87.4224758  53.9794016
  83.4946632  87.2160530  55.4336548 105.8066082  72.5752497  53.2320404
 106.7608547  72.6438951  53.2626009 105.5470085  72.4385262  54.1431665
  92.6070976 100.1186085  26.4157391  92.5576115  99.3615341  26.9993663
  93.2824802 100.6756496  26.8027782  37.7570629   1.5123352  43.1932878
  37.8642130   1.3280669  44.1264534  37.2423172   2.3188867  43.1659794
  63.7411880   8.6826253  67.0016670  64.5699310   8.6706066  67.4804974
  63.4369469   7.7754080  67.0266771 110.7857800 109.2089176  60.3033018
 110.2725029 108.4141922  60.1577425 111.6729641 108.9742470  60.0311375
  79.4247341  99.0381527  65.4389048  79.9966431  98.4929943  64.8985767
  80.0164700  99.6607113  65.8614063  85.7117462  73.4023142   8.4147197
  86.6043282  73.7348032   8.3198988  85.2768993  74.0412045   8.9794803
  36.7888403  10.0189972  44.0446758  35.9517956   9.6919966  43.7150431
  37.3609281   9.2515790  44.0487480  52.0125294  25.3632164  22.4354315
  51.3433695  24.6884060  22.5498319  52.5558281  25.0421953  21.7157078
 101.7630768  76.1173010  32.0439529 100.9784603  76.2458897  32.5769401
 102.1082020  76.9998550  31.9089365 110.4789352  91.6422367  50.6000328
 110.3597546  92.5458336  50.8924961 109.6175957  91.2393856  50.7097864
  20.1170945  74.1808462  43.3593082  20.9306312  73.7977839  43.6874104
  19.7626066  74.6651649  44.1049671 108.6370087 100.0965786  54.5793772
 108.2719326 100.8840466  54.1758442 109.2826653 100.4253292  55.2049112
  54.4323349  31.1047101  40.4541016  55.0460672  31.0612917  39.7208333
  54.8414040  30.5774999  41.1403561  98.2484245 106.6699696  36.6077757
  98.3568287 105.7257652  36.4939284  97.4978161 106.8929768  36.0572410
 104.3767548  31.3923883  24.9018312 104.6852493  31.2538433  24.0063596
 105.1642132  31.3170624  25.4407883  94.0052891  83.1202221  39.6238136
  93.9465618  83.2241058  38.6740828  93.0992126  83.1760979  39.9273515
  46.5899801   7.8479034  53.9115715  46.3996887   7.1802384  53.2526016
  47.5258017   8.0227542  53.8120890 104.4059372  94.3447399  52.4488068
 104.9754238  94.4464302  51.6861916 104.6224213  95.0890827  53.0103445
  92.9631047 109.7045352  48.7058973  92.7165024 109.3973293  49.5782757
  92.1983294 109.5181467  48.1612778  72.6068783  87.3425293  36.2653995
  72.3914909  86.4402580  36.0293031  71.7931128  87.8271198  36.1268783
  25.4165483  15.3424358  59.2221022  25.8183479  14.9873924  60.0150299
  24.8871994  16.0778964  59.5305157  42.7967978   4.0172216  24.3993068
  43.7010956   4.3296185  24.3696404  42.8695488   3.0966946  24.6514368
 103.7880325 104.1998100  38.5047293 104.6302891 104.5752239  38.7614417
 103.2269573 104.9583340  38.3432531   1.6985321  11.5973234  20.6649709
   1.1205758  11.0445535  20.1390028   1.1280138  11.9678438  21.3383627
  21.9088888  93.9254761  23.4671879  21.3540173  94.6796608  23.2683110
  22.1369505  94.0327835  24.3906069  75.5690050 104.5508575  73.5182428
  76.2109804 103.8462067  73.4312773  76.0241890 105.2293587  74.0169096
   2.8141287  87.2785187  55.6299400   3.4361690  87.2836494  54.9024296
   2.5979966  86.3543034  55.7537651  11.5245938  38.2113457  29.1941929
  12.1685791  38.8418698  29.5166087  11.9207215  37.8482032  28.4020805
 112.6289558  81.1499882  37.8373075 112.0922947  81.3249302  37.0642519
 112.5928020  81.9620609  38.3427453 115.0599003  69.7740507  43.5596371
 115.2956009  70.3722620  44.2687368 114.1055870  69.7143507  43.6039066
  11.3236189 104.4819355  -0.2323777  10.7993579 103.9572430   0.3726685
  12.2223687 104.1848564  -0.0901714 102.4524689  83.3427143  43.2501745
 101.7730522  82.6712322  43.1891155 103.2106495  82.8840923  43.6121893
   9.9216557  68.5578299  20.7475305   9.5659053  67.8972483  21.3419271
   9.1953087  68.7679052  20.1605725  52.1133661  95.4402351  21.6778445
  51.9784451  94.4932079  21.7119884  52.9608297  95.5768490  22.1013689
  67.3562813  84.9989891  70.7768726  68.2784986  85.2274799  70.8932066
  67.3658514  84.0661621  70.5624533  36.9371104   5.0169897  22.4428177
  36.0047054   4.9298197  22.6409483  37.2871089   4.1317624  22.5433350
 102.5235653 107.9549980  14.4419217 103.1422710 108.6442375  14.2003000
 101.6780949 108.4004498  14.4965184  39.5783138   8.4505659  10.7019055
  39.2252493   7.7559948  11.2579167  40.4361010   8.6463660  11.0788596
  53.5880423   4.3825141  24.8569202  53.1703901   5.2350569  24.9792552
  54.0924597   4.2456397  25.6588316  50.3886747  33.8752365  18.2097757
  50.3771019  34.8282194  18.1207705  50.2428913  33.5499263  17.3214340
  48.2484579  12.7045321  27.7436996  49.0805101  13.1026804  27.4879813
  48.1398678  11.9686890  27.1412253  73.3770275   2.4430737  37.2033072
  74.3307543   2.5215340  37.1814442  73.1438208   2.6102886  38.1164813
  33.9082670  18.7171447  36.1539555  33.1376934  18.3275497  35.7408404
  33.5514402  19.3415749  36.7856145  19.2416024 101.0872650  35.6659532
  20.0184131 101.5394402  35.3368044  19.3164432 100.1985836  35.3182793
  59.5372248  35.6209850  18.9661705  59.2831326  34.7383404  18.6967123
  60.2553892  35.8536482  18.3776665  30.4316425   2.8001079   8.8964289
  30.2386546   3.5672051   8.3574027  31.2897682   2.9852372   9.2779785
   4.2065609  79.0132666  60.6204128   3.6857978  79.8161697  60.6399012
   3.5626528  78.3125973  60.5170774  83.7922382  53.6311483  94.7707081
  84.2985344  52.8555965  95.0123978  83.0832767  53.2933760  94.2234325
  52.8816700  96.8848896  39.3430710  52.2422123  97.4546909  38.9156985
  52.3540306  96.2903976  39.8763728  39.3809962  54.9345016  93.2313728
  38.7045884  54.6984339  92.5965691  39.4224763  54.1860628  93.8266468
  59.9499464  22.6209521  17.6061285  59.6587515  23.4365582  17.1984231
  60.9018564  22.6296806  17.5060320  30.1019359  88.5507774  20.4900551
  30.7194591  88.5727310  21.2210917  29.9569511  89.4712925  20.2712750
  18.9643824  99.7937489  14.5130360  19.3591559  99.0367699  14.9458826
  18.9682388 100.4801178  15.1802099  46.5354061  58.4300709  14.9057651
  46.9379616  57.7711105  14.3401170  45.6506395  58.1011438  15.0645959
  14.0606153  82.7142429  10.0115252  14.7538686  83.3741951  10.0216532
  14.3040085  82.1005440  10.7046044  34.6142411  17.6756620   9.2351663
  35.2755690  18.2452726   9.6281290  34.9655128  16.7916727   9.3419534
  61.6174555  15.3966439  40.3598976  61.9157362  14.8988080  41.1210966
  61.0107327  14.8076963  39.9112821   8.8610303  98.0280590  31.2223721
   9.6936822  98.2161999  31.6554141   8.9891535  97.1691418  30.8197689
  16.3596070 105.0354481  29.4515157  16.6080713 105.8759499  29.8362899
  15.4492593 104.9093151  29.7190738  43.3774042  48.2863235  11.7070711
  42.8970623  48.7111998  12.4176931  44.0348053  48.9303207  11.4437783
 109.5335293 108.3211517  28.4907126 109.2521763 107.7608681  29.2140079
 110.4347420 108.0507565  28.3148456  25.2283597   8.5263330  10.6027579
  24.3410945   8.3096367  10.8891737  25.1771307   9.4449383  10.3386140
   9.4563967  20.3406143  23.1070709   9.9889219  21.1306405  23.0148482
   9.4832665  19.9313498  22.2421932 111.2267780 104.7217846  53.2735634
 111.8291759 104.6792889  52.5308990 111.6884995 104.2739201  53.9824057
  39.9846840  18.9784491  53.1903267  39.8197794  19.6146488  53.8862371
  39.9770427  18.1304717  53.6342955 101.9566441 104.4038868  42.3914957
 101.4083385 104.5238018  43.1668711 102.4455452 103.5996532  42.5659180
  65.5796909  21.8947482  25.0820041  64.7004271  22.0951200  25.4029059
  65.4340410  21.3485312  24.3095613  86.8161964  82.2041798  87.6039696
  86.8348026  83.0128860  88.1157112  85.9190655  82.1496868  87.2747135
  63.9945507  13.5378325  13.5058045  64.8604155  13.5716093  13.9124525
  63.3959341  13.3605134  14.2313731  57.2122240   4.2523932  44.9294376
  56.6847277   3.5725796  45.3487635  57.0661640   4.1247863  43.9920902
 110.0020123 101.7492294  59.1123676 110.2955723 101.8679237  58.2090569
 109.7350121 102.6241112  59.3943596  19.0436852 100.5169964  23.6642647
  18.7690949 101.2644482  23.1330776  19.2994595 100.9004307  24.5031857
  50.4230118  20.4973674  33.2146621  50.4726839  19.7369945  33.7939715
  49.6346378  20.9616756  33.4959435  11.8517101 100.9994984  26.9621444
  11.8575704 100.1666164  26.4904523  12.7727675 101.2562943  27.0061946
  52.5450039   2.2905283  32.1950674  53.0135441   2.9016244  32.7636290
  51.8272543   1.9619602  32.7364683  99.0306664  14.1655481  53.6590481
  99.7504520  13.5877299  53.4055376  99.3739033  14.6647346  54.4001484
  60.8076954  21.8275857  28.2806063  60.5226278  22.7407169  28.2464957
  60.9804583  21.6650891  29.2079568  39.7936368  10.6668246   9.1525501
  40.7266092  10.8677506   9.2262095  39.6718693   9.8907310   9.6994352
  43.0013466  33.3481193  15.6343853  42.5177526  33.1665325  16.4402366
  43.9085770  33.1266594  15.8444202  60.4955244   1.5618365  28.8148475
  61.3576174   1.3962594  28.4332490  60.6750011   1.7654485  29.7327590
 113.0469036  83.9415741  38.4002423 112.1870232  84.3121910  38.5989523
 113.5629845  84.0961647  39.1914368  53.6988020  39.4294667  13.8530016
  53.7929440  38.9433813  13.0338001  54.1089344  38.8695812  14.5122087
 105.2474022  75.1147985  78.1319714 106.0801792  74.6429062  78.1270027
 105.0229740  75.2143097  77.2067881  82.9048824  81.4775276  82.8067493
  82.6915646  81.9122028  81.9810486  82.7622795  82.1484184  83.4744263
   4.0646088 103.6710644  62.8708887   3.7526834 104.0874672  62.0674324
   3.9347464 102.7345848  62.7213097  78.9187813  69.7931433  82.9608154
  78.8605404  68.8378382  82.9761600  79.4068813  70.0161028  83.7534618
  84.5637035  58.1386042  13.6988556  84.1084290  58.6865711  14.3381441
  84.3367767  58.5207272  12.8510857  23.3020306   4.4740775  13.8757718
  22.5712824   3.8828483  13.6949694  23.9898276   3.9057398  14.2224085
  31.0542035  20.0458860   1.6143146  30.2218318  20.4393053   1.8762465
  31.2530255  19.4200945   2.3107976  66.2074757  15.6238604   3.8927665
  66.4477110  14.6980703   3.9306074  65.4193163  15.6447923   3.3499968
  25.2743244  73.7578869  14.1901910  25.6311297  73.4422970  13.3599365
  25.3630924  74.7097778  14.1426456  23.7759471  98.9779854  42.2955465
  24.4130278  99.6111679  42.6263618  22.9742098  99.1680622  42.7827072
  16.4555192  26.4847064  50.8062267  16.8984747  27.0109224  50.1405573
  15.7884812  25.9980249  50.3220463  89.3045330  44.8819017  85.1809216
  89.9654293  45.0222015  85.8589840  89.5436382  44.0448332  84.7829533
  73.9141464  51.9315958   5.5518109  73.6783743  51.3850832   6.3014543
  74.7903633  51.6352558   5.3055221  55.3196335  59.2643642  89.3316174
  56.2413120  59.0937281  89.1376400  55.2868366  60.1990271  89.5355034
  14.9821556 101.9922352  25.7341504  15.1119161 101.3549900  25.0317812
  15.3128564 102.8154659  25.3747654  58.4271765  22.8390145   4.5858252
  59.1581917  22.2245479   4.5204192  58.5252094  23.2366610   5.4509830
  76.5360737   6.2425363  27.5950861  76.9126177   5.6797600  28.2716417
  77.2297096   6.3276649  26.9409800  43.9313269 108.7937450  37.9098082
  43.2176256 108.1580257  37.9619765  44.3186378 108.7913895  38.7851453
  27.0707560 105.4951286  15.1216829  27.2505236 105.2750969  16.0357404
  27.5122666 104.8104191  14.6192098  44.5627499  30.7312012   8.9493239
  45.4312086  30.3323030   9.0031165  44.6046305  31.4777112   9.5469874
  46.1661625  12.3481655  36.6248488  46.0935450  12.5242054  35.6867814
  45.6867361  11.5296137  36.7527461  46.9149494 103.6788559  49.1389132
  46.0697222 103.2923126  48.9099836  47.2969961 103.0650520  49.7662210
 102.4744701 103.4829521  10.5830491 102.9612064 104.1370583  11.0845089
 103.0988216 103.1694889   9.9287164  43.4033108  20.7019711  38.8901305
  43.1541252  20.5541587  37.9778337  43.0504560  19.9464953  39.3602157
 115.9904480 109.5503616  16.8715155 115.6928730 108.7704468  16.4030969
 115.3985023 109.6203518  17.6204717  42.4993563  10.3933430  34.3347979
  41.9792604  11.0531723  34.7934484  41.9565296  10.1360345  33.5895681
 106.9023514  88.6244678  33.9194775 106.2643147  89.0277767  33.3308506
 107.6238918  88.3627415  33.3475304   3.0364349  33.8056731  88.7139225
   3.8516623  34.3014216  88.6373138   2.7440053  33.9628315  89.6117020
  74.8539686   8.3977813  12.9196751  74.7602272   9.0255481  13.6361623
  74.2220688   7.7077425  13.1216168  70.2296114   0.5088491  22.3669338
  70.7890558   0.8132339  21.6523695  70.6255674   0.8794817  23.1556559
  64.1511154   5.3333449  10.9030497  64.3219614   4.7095191  11.6086578
  63.3564377   5.0063109  10.4814219  89.8721218   1.0994036  20.4774141
  89.3422604   0.7077624  21.1717463  89.2338657   1.4086747  19.8345995
  73.8687468  84.0193367  91.2125301  73.2271194  84.3692970  90.5944157
  73.8348961  83.0716801  91.0820389  98.7909412  13.9250576   9.3880403
  98.1961060  14.1471696  10.1043296  98.2598019  13.3993566   8.7899083
  41.2820530  90.3528690  17.5476348  40.3502131  90.1663780  17.4330711
  41.6464090  89.5426655  17.9040802  21.0858536  91.8939018  58.0046034
  21.9312119  92.2628117  58.2605457  20.4827452  92.1779060  58.6915016
 104.5243740  50.5652142  87.9627514 105.2534580  51.1468506  87.7474213
 103.9181232  50.6589842  87.2279739  41.9436789  98.7090683  52.0114279
  42.3301744  99.4773197  51.5911436  41.0910082  99.0109253  52.3245811
   8.7209010  96.3973331  34.2740941   9.2817068  95.7439995  33.8559055
   7.9037523  95.9321404  34.4532537 107.6972771 103.2358265  30.5385065
 106.8990231 103.1259251  30.0218487 107.3861885 103.3808517  31.4320493
  92.1979046  18.0782676  10.9989810  92.7462959  18.2169318  11.7711687
  91.6617012  18.8690531  10.9408784  55.6416798  28.8748121  44.7747087
  55.5121565  27.9884911  45.1121855  56.5911198  28.9627004  44.6905899
  30.7030749  43.1157875  21.6505885  29.9765539  42.6377201  21.2507725
  30.6980801  43.9677811  21.2143373   5.8372134 100.7774162  18.2620454
   5.7381010  99.8640823  18.5308003   5.1886737 100.8945370  17.5678480
  31.1725807 108.6774731  35.2900624  30.5841684 107.9322338  35.4109645
  30.6652188 109.4335842  35.5852199  38.2399464  25.9269047  13.1769967
  37.5495172  26.4972162  13.5150623  38.8102698  26.5113688  12.6776326
  21.4099288 103.5139084  12.4984336  21.9636846 103.5767841  11.7202079
  21.2755752 104.4216633  12.7707672  43.8515902  45.8583212  10.4492390
  43.2073021  45.8877897   9.7419494  43.8141632  46.7296267  10.8437753
  52.1670723  48.4153986  33.2844234  53.0553579  48.6100721  32.9856110
  52.2135544  48.4888172  34.2376709  42.9482937  20.6836867  21.7783213
  42.6507998  20.6840777  22.6881170  43.8017368  21.1162853  21.8052077
  98.7756252  18.4074497  27.2178864  99.2648602  18.5206866  28.0327868
  99.3778515  17.9386485  26.6401458  19.8466790  97.6714897  26.6224098
  19.5734656  96.7871666  26.8664694  19.3000388  97.8914356  25.8680630
  99.7119713  93.8477039  62.8798771  98.8904858  93.5863304  62.4638510
  99.5003605  93.9070606  63.8115072  83.6180496  23.6130738  54.0211868
  84.1950989  23.8014078  54.7613001  83.5058880  24.4572163  53.5840654
 110.5880642  10.1564825  48.0230522 110.9225941  10.4369593  47.1712017
 110.6331444   9.2007500  47.9952097  63.3521128  10.8739817  19.4929469
  62.9068565  10.3421557  20.1525974  64.1145897  10.3533626  19.2403269
  29.6921206   5.1157600  30.6364894  28.8498163   4.7476220  30.3695965
  30.1468134   5.2948666  29.8134422  85.6105804  11.1420548  28.5333753
  85.9717560  11.8266988  27.9703069  85.8830643  10.3230846  28.1195259
 102.2956562 108.5350418   6.8450767 102.3250675 107.8938484   7.5551701
 101.4390373 108.4033394   6.4387625  50.9178734  35.1150799  32.5757360
  50.9840155  35.9951806  32.2052240  51.6763115  34.6493077  32.2235227
  54.4837618  18.0287206  37.7523232  54.5769596  18.9813709  37.7536917
  53.5711288  17.8769982  37.9979062  37.4996519  28.1171417  35.3102231
  38.2935929  28.1031966  35.8447266  37.6151896  27.3965168  34.6908808
  76.9981527  36.5781951  17.5658202  76.9336987  36.9317746  16.6786575
  76.8353224  37.3298669  18.1356514  74.2526054  32.2511315  38.3086061
  74.1425276  31.3934398  37.8981447  74.9887133  32.1363425  38.9096069
  45.5819893  20.6780481  26.9309473  45.3220034  20.0520945  27.6068330
  46.4781094  20.9221387  27.1625042  46.5015078  88.3915424  21.6481447
  46.1000681  88.5362339  20.7913232  46.5879583  87.4405766  21.7146254
  69.5374060  33.8507986  12.3247838  70.4699373  33.7792778  12.5284898
  69.2583227  34.6564674  12.7598047 112.6142788  91.1480713  88.2908154
 113.4091091  91.2737751  88.8091564 112.2585964  90.3135681  88.5962963
  52.1795893  95.6779003  87.6039410  52.0230198  96.6204739  87.6611137
  51.6291046  95.3015804  88.2906628  62.8354979  13.9674866   9.1537344
  62.8722429  13.0245674   8.9931524  61.9564342  14.1171098   9.5017129
  36.0361767  15.6555545  14.6445239  36.0474443  16.0545731  13.7745297
  35.1492524  15.8124626  14.9685216  55.2605915   3.4467652  17.4446428
  54.3040133   3.4330145  17.4763787  55.4868507   2.8115445  16.7652810
  80.5393505  25.5557752  20.9432983  80.0775337  25.1334834  20.2189827
  81.3144684  25.9451771  20.5385900  74.0169477   9.7567582   6.3054544
  73.8709688   8.8797301   6.6600561  74.0855885   9.6244437   5.3599310
 107.5792408  12.0322335  60.9767151 108.4598160  11.7889082  60.6910467
 107.5008965  11.6598070  61.8550062  87.9632473  39.1369891  38.2540178
  87.2679424  38.5945296  37.8818464  87.5012779  39.7980380  38.7695980
  35.1078200  80.1794720  13.1938303  35.0613236  81.1348152  13.2311475
  34.4064546  79.9288464  12.5925791  12.9148352  58.2658005  81.8184185
  12.1932018  58.8248110  82.1064854  13.5845828  58.3721447  82.4939632
  52.5386000  15.9163094  47.3838902  53.2506990  15.5025840  46.8960619
  52.3451853  16.7154431  46.8937778  28.1695557  38.9382625  27.2695684
  27.2265267  38.8894510  27.1129012  28.3973885  38.0807424  27.6287079
  53.7589836  47.5285912  16.4128125  54.1822433  46.6715622  16.3619876
  54.2150164  47.9791641  17.1236241  82.6770687  13.0193245   4.9619591
  81.9461536  13.1666088   5.5622119  83.1184101  13.8670790   4.9094200
  26.3046193  34.2675257  19.9680185  25.4394126  33.8584733  19.9860919
  26.1389685  35.1657152  19.6815836  40.2968121   7.2543591  44.8283005
  40.8427000   6.5192819  44.5492029  39.9265313   7.5996923  44.0159750
  74.5706654   8.6212617   9.0098739  75.1530743   8.4333986   8.2738441
  74.8737812   8.0420321   9.7090489  22.6523542 103.0642605   9.3535620
  23.4260535 102.5026417   9.4005316  22.9491234 103.9095116   9.6907729
  18.2159758 103.4135723  33.0473518  17.3433554 103.6820793  33.3348703
  18.0539656 102.7348518  32.3921275  69.0449333  25.7780695  46.7237997
  69.8856163  25.7431555  46.2674284  68.6896038  26.6396952  46.5056801
 100.7411385  42.2974920  89.0109158  99.7940636  42.1802759  88.9364719
 100.9528732  41.9841337  89.8902321  69.3226290  34.2971659  18.0025887
  68.3995295  34.4697118  17.8172755  69.3491268  34.1201138  18.9428985
  66.3842106  13.0513692  20.1505470  67.0521450  13.4437072  20.7128310
  66.6576719  13.2760668  19.2611873  25.7555747 109.1801834  36.0225010
  25.7436895 108.3734798  36.5375996  26.3218856 109.7721481  36.5175748
 100.3079510  40.8821964  39.5110822 101.1083126  41.2081766  39.9226451
 100.4937553  39.9626255  39.3210673  71.8030071  22.8721356   9.1789597
  72.7554607  22.9364085   9.2492145  71.6392469  22.7547765   8.2432032
  48.3105469  35.0016046  57.9612017  47.9670525  34.1676545  57.6406193
  48.7774181  35.3721309  57.2122192  45.6947756  32.4140668  34.3198872
  46.1301231  32.6833224  33.5110545  45.2850580  33.2140493  34.6491170
  58.6939669  33.3732915  36.1505342  58.4589005  33.6028957  35.2515030
  57.8808737  33.0448461  36.5342522  33.4544826  19.8157597   4.0848875
  33.7037969  20.5808592   4.6032470  32.5345945  19.6673918   4.3040335
  50.6693172  14.0296948  30.9109688  51.1988926  14.4886744  30.2589560
  51.3085079  13.5990560  31.4786077  39.5979500  47.8570700  27.9266787
  38.6839437  48.1264114  27.8356743  39.6023011  46.9344807  27.6716566
  43.6808640   0.5250729   6.2079740  44.6116814   0.3949727   6.0266322
  43.2656083   0.5183400   5.3455651 102.1071720  82.3581314  93.5123634
 101.4611149  82.4139881  94.2164516 102.3021412  81.4238167  93.4397697
  72.0387220   5.8146203  38.0416250  72.6805735   5.7765168  37.3325372
  72.5070477   5.4808366  38.8067985  59.1224051  54.2793179   7.2254312
  58.9170408  54.5423079   8.1225896  59.8066902  54.8884153   6.9479752
  96.9623089  26.7806005  24.3917990  96.6438961  27.6020956  24.0176392
  96.4275837  26.1046267  23.9754272  76.9817114   0.8975919  47.0688772
  77.0406437   0.5416350  46.1822796  77.6703072   1.5613991  47.1067190
  85.5251408  83.8001060  93.7895298  85.9298325  84.6076965  94.1061592
  85.5944538  83.1927204  94.5260811  22.3949027 102.0227718  38.0836320
  21.5323472 102.4288082  37.9977989  22.8282237 102.2022724  37.2492194
  45.2060509  36.6291332   1.0636845  44.7295427  36.8088627   0.2532092
  44.9364233  35.7440019   1.3087916  71.7342615  47.2618294  37.8194094
  72.2236967  47.4780130  37.0257163  70.8160830  47.2938299  37.5507808
   5.5355728 102.0227909  10.8902979   6.1830217 102.0138359  10.1853430
   5.2980143 101.1031628  11.0090172  38.6949968  55.8185720  27.3198485
  38.7560987  54.8634386  27.3348069  38.9888930  56.0910177  28.1891179
  70.7670784  25.2578759  27.5752664  70.5308771  24.3820095  27.2698212
  71.7181683  25.2980900  27.4750566  57.7429485  37.6363301  23.4202719
  56.8430662  37.6610756  23.7455893  57.6522541  37.5557017  22.4707961
  18.3349729  11.7911935   7.5107825  17.8839350  11.5013075   6.7178363
  18.2165718  11.0713005   8.1304342  32.4446130  14.5186818  23.1748867
  32.7912402  15.3683031  23.4473300  32.8801227  13.8874769  23.7477279
  90.2302742   0.4283074  43.4129047  90.2618504  -0.2384441  42.7268410
  89.3638611   0.8248670  43.3218002 102.2706318  81.2438202  62.2622347
 102.5865555  80.4135418  62.6186943 101.9822502  81.7393017  63.0287600
  98.2986450  87.6071930  93.5896301  99.0098858  88.1859207  93.8643074
  98.3957577  87.5426292  92.6395607  60.6472445  14.8072684  27.5312948
  59.9843645  14.4249022  26.9563031  60.5270815  15.7524955  27.4399757
  49.7150850  39.0746260   3.8009390  49.8360062  39.6911693   3.0788004
  50.5041409  38.5329103   3.7880397  72.1151257  39.5931745  23.6233544
  71.7717266  39.2636561  24.4538522  73.0615044  39.4648671  23.6877060
  40.3001595  17.0519292   5.4818290  40.4989624  16.1779380   5.8177590
  39.3531680  17.1402884   5.5896753 105.0474644  51.1658573  84.9037933
 104.1249371  51.1564827  85.1589394 105.0344658  51.3529921  83.9651489
  50.5263901  46.2268925  28.9674807  50.3356218  45.3138256  28.7526417
  50.5114174  46.2560129  29.9241209  81.5282249  36.4471650  19.6869576
  81.6108513  35.8549023  20.4343724  80.6093693  36.7152691  19.6942401
  58.0188131   8.3894002  24.3548274  58.9538240   8.5244143  24.2006898
  57.6739168   9.2671108  24.5188451  51.5679502  31.4023471  39.4119525
  52.4947929  31.3413358  39.6431899  51.4226770  30.6722856  38.8101721
 101.2085056  82.3781109  83.8966274 101.8487263  82.7318382  84.5140648
 101.2874794  81.4285088  83.9874649  75.3348398  26.9627762  14.4961250
  74.7799015  27.6143742  14.0675306  75.8676863  26.5994787  13.7887883
  14.1965115 101.1295319   4.7501811  14.0871131 100.2624512   5.1406020
  14.7848463 101.5893650   5.3490561  82.8922081  24.0918708  25.8602953
  83.3965588  24.9027014  25.9267783  82.4123192  24.0398455  26.6868734
  36.5340447  29.1256881   4.5586234  35.7393456  29.1528296   4.0257546
  36.4280725  28.3485556   5.1073205  42.0607758  11.2498617  19.1413939
  41.2387657  10.9473145  18.7553859  41.8813515  12.1504533  19.4115329
  44.6033525  80.2480316  16.7299306  45.0056124  81.1152267  16.7787337
  45.1935101  79.6819162  17.2273874  16.6468275  24.4619322  30.3002954
  15.7968318  24.5066142  29.8624110  17.1588326  25.1656938  29.9018002
  64.0709925  11.6733420   4.4002935  64.0021706  10.7320642   4.5599550
  63.5396624  11.8231130   3.6183167  46.8160534  29.6600413  22.0150757
  46.9089842  29.0258670  21.3041472  47.5556946  29.4795537  22.5952411
  82.0448208  18.9466667  59.9587440  82.9920292  19.0680611  60.0242662
  81.6998291  19.8278165  59.8145723  43.2452297   0.2913919  89.7931671
  42.6870918   0.7889730  89.1955662  44.0698147   0.7771573  89.8111343
 115.7815348  96.9964409  66.6890430 115.0464358  96.6916084  66.1571217
 116.1690959  97.7066040  66.1774778  75.4289389  55.9361315  25.8545113
  75.2760410  56.4767838  26.6294622  76.3671207  56.0209084  25.6846285
  85.2945614  20.1043820  32.9124594  85.2499580  19.5446777  32.1372342
  84.6307850  19.7485924  33.5032582 111.4701939  93.8972664  43.9876795
 110.8654404  94.0025330  43.2532215 112.2058105  93.4048271  43.6235476
  71.6428661  15.6155229   9.8569059  72.1935940  14.8438454   9.9889755
  71.3664579  15.5588102   8.9422387  57.0034313  18.7989068  33.8596058
  56.0792112  18.5571253  33.9195466  57.4490595  17.9852414  33.6238146
  95.4829788  54.4480324  63.5205078  95.2066517  54.2667150  64.4188404
  94.6834469  54.3601036  63.0016184  10.8100665  83.2698917  80.9225655
  11.6962028  83.5134220  80.6548119  10.8809340  82.3496914  81.1763859
  61.3405037  10.0628567  44.5679617  60.3895140  10.0866640  44.4617176
  61.6300964   9.3671101  43.9777899  38.8687158  96.1150646  33.9502263
  38.7065053  95.2786827  34.3865514  38.3122373  96.0909939  33.1717777
  89.3789196  25.9293842  47.7742863  88.6395931  25.8821559  47.1681547
  90.0325298  26.4560747  47.3142529  45.5481815  22.1924281  21.0199571
  46.1697721  21.4661193  21.0682917  45.4536533  22.3648357  20.0831699
  50.6301975  33.7943363   6.0325247  49.8568010  33.2815409   6.2673217
  50.3112411  34.6948075   5.9721202  51.7185020  33.3883929  37.4724984
  50.8093071  33.6610508  37.5959873  51.8673182  32.7344656  38.1554818
  66.0251522  37.7552605  23.1022048  65.5665827  37.3023820  23.8099074
  66.8390989  38.0618501  23.5018635  64.3739653  52.3874474  13.3258224
  64.2477608  53.2334709  13.7554073  65.2850866  52.1589279  13.5098624
  56.3115883  23.8989663  47.5258827  57.0691633  23.5427976  47.9900551
  56.0793018  24.6875596  48.0161858  94.3062305  12.9879546   5.8138746
  94.5670128  13.6685240   6.4343977  93.3590603  13.0943990   5.7257295
  69.8251677  22.9960132  39.0709925  68.9925289  22.7760172  38.6532092
  70.4791737  22.5022054  38.5763526  39.8061299  24.2298317  53.7816381
  39.0705681  24.5275879  53.2463646  40.5824614  24.5420289  53.3167982
  96.0727978  61.6748095  82.8805733  96.6026497  61.0322905  82.4086952
  96.0177135  61.3312864  83.7723064  76.3291597  70.5570602  25.4203057
  77.1956491  70.9206915  25.6024885  76.0039711  70.2733898  26.2747169
  70.6206751  33.5883522  30.8754230  70.1030922  32.9328537  31.3430333
  71.4414454  33.1418085  30.6676555  67.3048306  34.4641662  28.9861512
  67.1412897  33.9483118  29.7756958  66.7315626  35.2256036  29.0745258
  79.8494482  57.8639936  49.5687914  79.8382711  57.0272779  49.1040230
  80.7214165  58.2205582  49.3991899  40.1618671  35.9761357  41.1471415
  40.9055281  35.7670450  41.7123652  40.0756931  35.2148747  40.5733013
  58.1492472  21.3484907  44.5522928  57.3796177  20.9787941  44.1195917
  58.4168243  20.6770754  45.1798582  35.8032942   8.6629272  33.7005043
  35.3562403   8.5900396  32.8572607  35.4214931   7.9666567  34.2349839
  95.0956535   2.2458440  17.1151805  94.1667747   2.4748263  17.1462989
  95.5381203   3.0681318  16.9047070  68.6022711  44.4278955  45.3431082
  69.3841696  44.8262215  45.7254696  67.9316282  44.5190287  46.0199881
  74.7495508 105.2483749  15.9426284  75.5612803 104.8987675  15.5750561
  74.6002674 104.7277260  16.7318559 106.8336010  51.1060953  61.4953709
 107.3576927  50.7227898  60.7920647 106.9056892  50.4803371  62.2161055
  37.5974178  46.4363575  18.7537587  37.0639515  46.6303444  17.9830360
  38.4367466  46.8613243  18.5772324  57.0218420  54.0500069  13.4368956
  57.9557705  53.8785267  13.3160377  56.5877771  53.2763767  13.0772865
  31.0166931  97.9116631  72.4902058  30.1860571  98.0590916  72.9424620
  31.5273523  98.7025356  72.6633596 107.5667095  92.8359032  92.3617458
 106.6398621  92.6459885  92.2164440 107.8460026  92.1863651  93.0069828
   9.3431783  93.6751175  79.3253326   8.9783263  94.1875267  78.6038446
  10.1271141  93.2675171  78.9571810  90.7451630  17.0786548  43.7824202
  89.7913647  17.0041347  43.7514067  91.0041904  16.5312707  44.5237064
  24.0129495  41.6857433  37.1642327  24.5131874  41.0315561  37.6521182
  23.6038423  42.2269535  37.8394771  25.0995302  13.6240351   2.6132032
  24.7248936  14.0078521   3.4060234  24.5367217  12.8739560   2.4212103
  37.1323299  48.4492874   4.3829653  36.7596817  49.0021753   5.0697565
  36.6355419  47.6328754   4.4368351 109.3042660  78.7826252  53.9737320
 108.8805866  77.9270267  53.9053202 109.8061943  78.7369680  54.7874928
  54.9813843   5.8403325  29.1287541  55.1168776   6.3340640  28.3199883
  54.2959356   6.3222092  29.5915604  29.6343923   5.4010946  14.4601667
  30.1648736   4.9405441  13.8100016  30.2728176   5.7939810  15.0553846
  11.3754797 107.2931099  40.4859161  11.9833183 107.9964733  40.2577734
  10.5100238 107.6507950  40.2877283  48.1072569  17.2582638  43.4116411
  47.4873161  17.2730720  44.1408110  47.6316071  17.6601362  42.6846695
  65.7682562  40.3662872  31.5778279  65.6865835  41.2624073  31.9042182
  65.8033085  40.4603624  30.6259084  72.4028587   7.6164061  19.2956698
  73.1669998   7.2580183  19.7472024  72.3590326   8.5276592  19.5853746
  77.6603222  85.4357719  30.6478643  77.4059439  84.8069572  31.3232207
  77.4720240  86.2911797  31.0339332  47.1487045   3.4599942  47.0882559
  47.6300716   4.2611158  46.8815756  46.4317608   3.7501094  47.6522207
  39.8614168  21.7824674   1.0678250  40.0345659  22.2239852   0.2363732
  38.9103079  21.6768503   1.0894071  76.0403395  26.9460511  17.3411763
  75.8226585  26.9594193  16.4091516  75.4279089  26.3161492  17.7211607
  10.8438933  96.1832237  14.0409744   9.9823850  96.2573624  14.4515097
  10.6925309  96.4112091  13.1237257  70.7148266  31.0574174  34.5511603
  70.1939154  30.6762767  35.2579927  71.6083527  31.0736561  34.8940659
  35.7633686  10.8544576  25.5626631  35.9864283  11.6772270  25.9980106
  35.9984398  10.1767385  26.1964369  72.4570179  42.3438787  43.7787008
  72.7882862  42.6703596  42.9420996  73.0461216  41.6242218  44.0051603
  24.4481902  41.2739014   0.0290263  23.6734538  40.8738160  -0.3658711
  24.0978102  41.9144559   0.6480277   5.7551193  91.0619259  13.6722457
   5.2673006  91.7685986  14.0951884   6.6292834  91.1092854  14.0593207
  43.4425926   8.5671210  47.9170704  43.1693077   8.8496423  48.7898445
  42.6493931   8.6315244  47.3851728  88.2310772   3.4092638  53.2485914
  88.7623882   3.3465269  52.4548626  87.3596001   3.6509484  52.9349709
  56.9806767 108.8498688  22.5418663  57.6691723 108.9206600  23.2030725
  57.3245621 109.3260574  21.7860746  35.9210610  30.3966212  54.6249199
  36.0304379  31.3453269  54.5599127  36.7196345  30.0924468  55.0561857
  86.2102604  19.0204811  21.9640946  85.3768539  19.3610728  21.6390204
  86.8544197  19.6815073  21.7104697  94.3057537  49.1327190   0.2264533
  93.7678528  49.6793127   0.7992746  94.7633362  48.5393715   0.8220948
  45.6820631  50.7836294   5.3784871  46.1090803  50.2981377   6.0843128
  46.2309074  50.6227160   4.6109521  65.6287861  23.4894729  19.1055942
  66.0796356  22.7850246  19.5711303  65.4345083  23.1210399  18.2437682
  77.0235014  39.4963551  10.5194700  76.8678999  38.6189103  10.1700222
  77.9359865  39.4808340  10.8081949  64.8373699  11.9483340  60.9700537
  64.3409061  11.6083741  61.7144871  64.2777395  12.6315141  60.6008530
  12.1652639  78.8161230  75.4462004  11.6632748  78.6875582  76.2510061
  12.1755743  77.9541731  75.0300694  71.5068579  58.7999535   8.6747366
  72.3434639  59.0502167   9.0667683  71.4066219  59.3896198   7.9274213
  86.0786343  18.0940890  16.8626702  86.1950207  19.0094841  17.1171021
  86.7629051  17.9375064  16.2119210  19.1153169   9.2919350  24.8509002
  18.3574522   9.1796976  24.2770767  19.2451692  10.2393234  24.8936272
   5.9888291 105.8535480  44.6749830   5.7375884 105.4409027  43.8486481
   6.9287741 105.6884861  44.7490740   5.9577698 105.8811665   6.9616276
   6.6535699 105.6671810   6.3400960   6.3887835 106.4146900   7.6293200
 108.3550358  49.6887827  75.3762293 107.6772022  49.6481609  76.0508585
 107.9109001  49.4151449  74.5736742  46.0476494  41.0643864  28.6526322
  46.8435764  41.5960217  28.6431551  45.5603075  41.3763523  29.4151330
  51.0053444  23.5171938   7.9953080  51.6310310  22.8065586   8.1358206
  50.5858040  23.6388278   8.8470262   2.1443760  77.9505491  85.5342865
   1.4383502  78.3129358  84.9990940   2.8150186  77.6913118  84.9024105
  80.8249092  16.0795915  34.1156125  81.5561771  15.5471754  33.8025498
  80.8868217  16.8913019  33.6121011  56.8076229  26.8295121  35.2378464
  57.4685431  26.1424303  35.3234696  56.4201260  26.8991733  36.1103296
 103.1765461  29.8227811  57.7205229 103.4147739  29.4076800  56.8915653
 102.3072910  29.4757819  57.9210377  74.7169828  30.4168200  22.9643536
  74.6565151  31.3507652  23.1651592  75.0117207  30.3861213  22.0541787
  25.1676464  86.2668133  13.4905517  24.5560884  86.3818645  12.7632320
  25.9959340  86.0320282  13.0721700  78.1078434   1.3618405  24.4553685
  79.0588236   1.4618425  24.4121289  77.9302502   1.1548490  25.3728914
  89.0783405  33.8963509  89.8383999  88.5328674  33.1962419  90.1969051
  89.9065304  33.8212752  90.3124237  49.3918705  21.2457228  15.4401135
  48.6380339  21.3080502  16.0266960  49.1276455  20.6074452  14.7775292
  10.1050520  46.2596560  85.0782967  11.0619271  46.2591267  85.1032543
   9.8465627  46.8138695  85.8146858  12.6375294  39.6069622  23.0771184
  11.7509258  39.7233844  22.7356339  12.5312293  39.6182561  24.0283298
  31.8379140  22.9575396   5.2551013  31.0299206  22.4640441   5.1142401
  32.4046159  22.3562980   5.7384098  72.8422403  26.2473059  35.0680971
  73.4480762  25.5423713  35.2967024  72.0554352  25.7967949  34.7611666
  83.7170219  11.7763972  54.3514156  83.6031723  12.2008610  53.5010624
  83.3798313  12.4115264  54.9831963  44.3817711  91.1345482  93.3794022
  44.1771030  92.0227337  93.0870438  45.2820301  90.9882736  93.0889416
  91.8644714  86.0481071  80.7874966  91.3805294  86.8176174  81.0872746
  92.2278595  85.6672668  81.5869617  83.1654167  40.6528234  90.9630489
  83.9218998  40.3376818  91.4576721  83.5278702  41.2987804  90.3567505
  84.1670036   6.8150502  31.2364626  85.0273705   6.8357551  30.8174586
  83.5503197   6.7090029  30.5121040  58.7687111   4.9412373   9.7077274
  59.4592905   4.6153936  10.2849281  58.8502932   4.4121349   8.9142370
  66.1662054   9.5253384  28.6205244  66.8590260   8.9087468  28.3837914
  66.5299654  10.3858709  28.4122181  81.8480587   1.4254859  37.1432996
  82.1043873   0.5197464  37.3169851  82.6757622   1.9040920  37.0976615
  34.3815899  24.3092179  27.3603630  33.9134717  25.0017023  26.8939257
  34.9209166  24.7737861  28.0003142  41.7364120  56.1361122  41.3954544
  42.1129513  56.7757034  40.7909966  42.4405432  55.9501791  42.0166302
  25.4567695   6.4148915  47.5681734  26.3505936   6.5239131  47.8928614
  25.5557537   5.9166741  46.7568684  94.5206261  23.2773685  19.9747801
  95.4440784  23.4119296  20.1877761  94.4465637  22.3367143  19.8137939
  58.4408617  20.4745483  16.5648735  59.2896175  20.8657217  16.7718232
  57.8366041  21.2162423  16.5333426  23.0721760  94.6178532  33.3591700
  23.1120944  95.3346443  32.7260447  23.8029528  94.7834206  33.9548063
  78.8361359  28.7569094   9.8733222  79.2593670  28.1216335   9.2958021
  78.8058472  29.5642638   9.3600059  95.9910870  66.2924671   3.9146397
  95.7012749  65.4420137   3.5845384  96.8600655  66.4143562   3.5322070
  47.7951241   6.1503035  46.6141987  47.2275496   6.9119185  46.7326498
  48.6699820   6.4660746  46.8403625  57.5413036  15.7505238  33.4861183
  57.2122478  15.0219858  32.9596329  57.5902939  15.4002929  34.3755960
  62.5490475  58.2159662  17.1595967  62.4034262  57.6425266  17.9120553
  62.1306896  57.7620602  16.4280355  14.9018073 102.5743771   7.4365830
  14.1910863 101.9850636   7.6892114  14.4728267 103.4170628   7.2879767
  25.7859921  40.5817747  65.1710320  24.9969435  40.1657248  64.8238420
  26.4645362  40.3848362  64.5252562  51.8022346   6.9302064   4.9677840
  51.3622189   6.1556989   4.6174204  51.3232565   7.1350741   5.7708031
 104.8344135 103.1907177  63.5094976 105.2877140 103.8246727  62.9537487
 104.7220516 102.4207497  62.9520512  38.7553501 107.1015549  27.1279263
  39.4547415 107.7356625  27.2860026  38.2028127 107.5148106  26.4644885
  45.4995155  56.3837814  33.7283778  45.9392643  56.8718386  34.4245458
  44.8858118  55.8109856  34.1882801 101.1232471  77.8947067  76.6601467
 100.5166721  78.1088781  75.9513283 101.0421371  78.6249542  77.2736502
  11.7697978 104.5456696  20.6872582  12.4392843 104.1738892  21.2615395
  11.8745720 104.0743351  19.8607647  55.8025312  27.3686171  12.1812630
  56.4782953  27.8330803  11.6874588  55.1904726  28.0530643  12.4517214
  99.9661636   0.8294559  24.6773338 100.5594730   1.4939108  24.3270421
  99.2409611   1.3294576  25.0519228  88.9212894  17.9941881  33.6729383
  89.8533916  17.8306782  33.5291266  88.4800148  17.4655902  33.0080366
   7.4485832  64.7696924  90.4383755   7.6002169  65.6825256  90.6832790
   7.1954960  64.3412066  91.2560368  44.1816711  44.6167469   3.2981420
  44.9048424  44.0073395   3.4460568  43.5066891  44.3426609   3.9190319
   9.9898130  28.8638091  41.7204809  10.6639004  29.1310549  41.0956478
   9.3720329  28.3493996  41.2009048  73.4517574  21.9663811  48.3339882
  74.3877077  21.9818878  48.1340313  73.1476259  22.8497076  48.1254911
  55.6544352  10.0658858  12.5787878  55.4153728   9.1969758  12.9013956
  56.1941051  10.4398572  13.2753026 115.3298473  69.1293430  91.1024761
 115.7477856  69.6462488  91.7912197 114.4227982  69.0326595  91.3925743
  99.5417786  63.5658264  92.9952145  99.1307640  62.7287149  93.2109547
  98.8938522  64.2231798  93.2488155  55.3161049  13.2136583  34.7874308
  55.9635258  13.8613713  35.0658941  54.4824314  13.5529780  35.1131368
  62.4056816  53.0900240  26.4140964  62.5861454  54.0157175  26.2505054
  62.9459667  52.8712082  27.1733332  72.9712105  80.5662251   9.5012993
  72.0638990  80.3032780   9.6558261  72.9598427  81.5205288   9.5747793
 110.4678345  32.3996854  14.4818699 110.2259636  31.8204904  13.7591946
 110.3110600  31.8785071  15.2692866  86.4472198  52.4652576  33.8169980
  85.6695938  53.0211973  33.8664412  87.1552277  53.0130577  34.1559315
  57.5034332  30.7241464  27.1840739  57.3590279  31.6187239  27.4924731
  58.3708286  30.4932594  27.5165677  88.2076931  69.0908766   4.8297131
  87.8395653  68.7754107   5.6550580  88.9964294  69.5686388   5.0863522
  85.3129578  90.8616352  84.3842506  85.7980347  91.4136314  83.7708759
  85.3260708  91.3496685  85.2075863  78.9407825  49.6562624   7.3362845
  79.7981787  49.9971199   7.5910747  78.3486366  49.9583149   8.0250239
  60.8312702   9.0921450  31.4571285  60.0997829   9.0603632  32.0736861
  61.1357069   8.1864607  31.3997865  23.5056520  54.1121292  92.9143143
  22.7521586  54.5985651  93.2487679  23.3399272  54.0298367  91.9751644
 115.7274342  25.4955578   0.5219070 115.8631516  25.1448107  -0.3583147
 114.8362064  25.2313328   0.7502390  86.5567684  18.7812102   2.2613569
  86.5973091  17.9358983   2.7086091  87.3643303  18.8200510   1.7489547
  14.7722757  90.7561398  90.1087856  14.0194964  91.3238525  89.9436760
  14.3890691  89.9294567  90.4020023  73.7147379  58.2437086   4.5656329
  73.9309406  57.5140858   5.1462650  73.3400631  57.8286457   3.7887308
  84.5748329  38.2854128   5.3519058  85.1153946  37.8319168   5.9987158
  83.6752319  38.0715871   5.5993640  67.5420046  36.8671155   6.7404181
  66.8537378  37.5167632   6.5973139  68.1396532  37.2841001   7.3610413
  82.0319748  39.7560906  46.4340687  81.6827965  40.6342649  46.2820148
  82.6011467  39.8535156  47.1974707  92.3286533  92.1597862  87.2502518
  92.9994106  92.1679211  87.9330826  91.8595886  92.9861927  87.3654175
  63.9224815  19.7714293  24.2174602  64.7043085  19.3119347  24.5237923
  63.6822939  20.3462052  24.9442172 102.5968552   2.4681844  37.5018978
 102.7328491   3.1405193  36.8342876 102.8101063   2.9035926  38.3272314
  63.7337589  48.3505774   1.3593821  63.0858183  48.2061577   0.6697807
  63.5389614  49.2269945   1.6913205  40.1984644  50.8246756  16.9290364
  39.6771550  50.0232601  16.8821299  39.6309352  51.4538479  17.3743331
  61.2014532  28.4626007   4.9175119  61.5118504  28.9531827   4.1564494
  61.5840292  27.5914001   4.8132023  72.5143623  40.1655245  55.5641127
  72.0525312  40.3742647  56.3761282  72.8211737  41.0118198  55.2387238
  67.8566885   8.6314321  11.9442725  67.7907848   8.5984701  10.9899127
  67.9807472   9.5593309  12.1438825  49.9010468  55.3461647   2.1943110
  49.3116188  55.8778048   1.6593695  50.5492449  55.9674358   2.5261021
  72.8373289   5.4469901  64.9089146  72.7223110   4.6381861  64.4100761
  72.4730062   5.2500188  65.7718754  80.7370949  11.9410872  60.1855564
  81.1102390  12.0330739  61.0622120  81.2739849  11.2687802  59.7660542
   6.4218205  86.8273067  72.3068762   6.3029355  85.9920025  72.7589464
   7.2794187  87.1372318  72.5979185   8.5447174  92.8167725  87.5775337
   8.0952942  91.9763088  87.4887562   8.2960153  93.3054161  86.7929363
  79.3297005   8.9610106  12.7135181  79.5454693   9.8899382  12.6312387
  78.4721136   8.8764966  12.2968304  54.8614550  28.7778425  69.0766239
  54.0879869  28.3020115  68.7740326  55.5808115  28.4221315  68.5548687
  14.4150186  83.7571621  92.2155190  14.8261130  84.2901134  91.5349293
  13.6432517  84.2584705  92.4787617 101.0346222  53.4524775  78.9385748
 100.4934597  52.9234219  78.3525133 101.8931580  53.0296898  78.9186573
  97.2608185  33.9680219  43.7658501  96.8819332  34.8196363  43.9836359
  97.3170948  33.5094690  44.6041775 112.3151398  39.5841575  18.1968665
 112.8080750  39.3792462  17.4023473 112.9860687  39.7715306  18.8533521
  72.5079679  13.5677052  13.1995130  73.4124804  13.8499749  13.0638051
  72.3968077  12.8258502  12.6049328  75.6387329  46.2512398   8.3808196
  75.6687927  45.9358406   7.4775743  75.5666733  45.4566717   8.9096892
  79.8787308  22.0858407  22.3455334  80.0358772  21.4303684  23.0251622
  80.3859806  22.8477049  22.6256967 115.7114697  67.6635599  45.1723289
 115.7288837  68.1830025  44.3685198 116.6123199  67.6909256  45.4947472
  76.8124294  74.4084978  58.2539082  77.5627565  74.4372940  57.6602650
  76.2613392  75.1413107  57.9791021  86.4874458  47.0811081  21.1432767
  85.8426094  46.6886234  21.7318106  87.3313904  46.7708158  21.4714813
   6.3489360 100.2932739  39.8566580   6.4437157  99.6969223  40.5993652
   6.0926718  99.7287178  39.1273808  82.8660774  20.8356500  43.8597679
  83.5921097  20.4549026  44.3538713  82.2486687  21.1296487  44.5295477
 116.0146427  86.3657284  93.8359165 116.0544205  85.8152485  93.0538559
 116.6723156  85.9943390  94.4239330 102.9957676  19.5574868  27.2534966
 102.6780224  19.0901601  26.4809203 102.8279781  20.4800391  27.0612073
  74.6978045  76.9059324  18.2179368  75.1238203  76.3877249  18.9007258
  75.4098845  77.1605873  17.6311457 104.7188568  51.7606974  41.4788055
 104.1836929  52.5342131  41.6563034 104.2471218  51.0415316  41.8989229
  84.5958233  36.3876820  45.3855610  84.8581314  36.6297388  46.2737226
  84.2140579  37.1868038  45.0223875 115.7618332  48.5971451  32.1324992
 116.4316368  49.2418671  32.3603630 115.1587868  49.0705967  31.5594316
  46.6098118  37.1759272  22.9348493  45.7271481  37.2926593  22.5834036
  46.9953251  38.0517054  22.9098511  96.4349461  60.4729319  23.4090185
  96.6555500  60.1387358  24.2784286  96.8863392  59.8839569  22.8043842
  54.2823696 104.6908379  21.7100978  54.3502235 105.6270695  21.8974495
  55.1673317 104.4335842  21.4514565  83.4468269  58.1580734  40.1642466
  83.0675220  58.2315588  39.2884851  83.3147049  57.2414684  40.4063463
  94.9063206  87.4582291  94.9681568  95.1622391  87.0135784  95.7762623
  94.9751759  86.7843533  94.2918587  87.8261471  78.1832314  92.7032566
  87.0970154  77.9195023  92.1419621  88.0754089  77.3822451  93.1642532
 108.6009216  95.3231907  88.8589287 109.4667721  95.7201958  88.9533520
 108.2793427  95.2336979  89.7560501  92.0222378  60.3493166  38.4953237
  92.0095444  61.2468624  38.8277054  91.4920998  59.8549032  39.1204166
  84.3223572  26.6220737  26.0941792  84.4930553  27.5168848  26.3881230
  84.5183468  26.6362143  25.1573658  47.2094059   4.1081676  41.5831709
  47.3981476   4.8443770  41.0012722  47.2584629   4.4801921  42.4637508
   4.8079947  64.9987555  80.3995705   4.2700198  64.6101427  81.0893536
   5.5954623  64.4551325  80.3750992  82.2092438  72.6326227  37.8181171
  82.3250961  71.6827869  37.8429461  81.8265629  72.8048277  36.9578099
 110.8310127  59.1931343   3.7114841 109.9709034  59.6087170   3.6503145
 110.8493614  58.8084364   4.5877841   8.3924657  59.4369268  23.1096292
   8.6691552  60.2014399  23.6147952   8.7023723  58.6882114  23.6191559
  90.0316143   3.1619859  23.8779378  89.6862411   3.2813641  22.9932380
  90.5540371   3.9476791  24.0391445  46.6848469  35.9184170  25.4096484
  47.6222277  35.9958148  25.5873084  46.5929508  36.1753225  24.4921589
  81.8303299  56.9310999  13.5782731  82.7786541  56.9765472  13.7000918
  81.6437721  57.5850487  12.9046404   2.5166714  95.8327293  79.4929123
   2.0657648  96.6690350  79.6091413   3.4054637  95.9937763  79.8096848
  50.2551174  28.8708639  15.3272367  50.4828405  28.6879706  14.4156861
  49.8892641  28.0482697  15.6523895  91.2693405  50.6775141   8.9146030
  91.4920807  50.6260490   7.9851019  91.2563038  49.7666645   9.2085612
  11.6436934  95.2764988  22.4670887  12.0351696  96.0317135  22.0281863
  10.7000816  95.4105186  22.3783898  99.2714310  29.8929286  34.8436260
  98.9298439  29.7659874  33.9585066 100.0591278  30.4231358  34.7226071
  85.0504589  21.2396097  13.5768473  85.4596996  22.0962715  13.4548557
  84.5798111  21.3150334  14.4069266  97.8534317  57.5800991  86.0813141
  98.5516930  57.5207710  86.7333317  97.0639896  57.3102903  86.5505791
  19.4199431  59.1033792  23.7728524  19.6673465  59.2348862  22.8575754
  18.4660590  59.0259552  23.7543726  79.5197725  27.0213223  22.7622795
  80.0167370  26.3676167  22.2704220  80.1036930  27.7781200  22.8125548
   3.6903745  74.0961075  23.7006617   3.1611446  74.8432064  23.9799333
   4.5946532  74.3988371  23.7835336  85.1740742  74.0157652  93.1302547
  84.7104836  73.4244680  93.7232780  84.4927311  74.5944500  92.7880192
  81.2453842  20.8322024  46.3343811  80.9328747  20.2313375  47.0107937
  81.5483761  21.6006422  46.8180466  88.4148979  52.8155184  90.4789734
  88.0706120  52.6259899  89.6061707  89.0413094  52.1116257  90.6473923
 103.2810879  84.7076225  93.2994652 102.8739548  83.8413429  93.3046341
 102.6747608  85.2601814  93.7926865  75.6500196  32.0942569  16.7604911
  75.0878525  32.7109694  16.2915909  75.6290197  31.2988305  16.2284303
 100.0967407  51.4900064  12.9297531 100.9572601  51.6701269  13.3083022
 100.2692509  51.3496923  11.9987416  88.6997223  33.5011911  35.9131002
  88.2145596  32.9660106  36.5411401  88.4018135  34.3954206  36.0799432
  71.0296726  50.2191448  47.4029112  70.2307558  49.7392797  47.1845150
  71.1235046  50.1100016  48.3492279 101.0702896   9.4871265  58.8068342
 100.6194973  10.0746870  59.4132900 100.5122089   9.4712710  58.0293226
 116.2795892  59.3624926  31.4979339 115.5542887  59.9735212  31.3682771
 115.8719861  58.4969568  31.4672780  63.2259655  17.6310074  31.5511203
  63.5689259  16.9122446  31.0200930  63.7729263  17.6306009  32.3366547
  57.7117252  40.1034594  48.2692003  58.1542063  40.4911566  49.0242672
  57.2617579  39.3363309  48.6231470  75.0399780  14.9239826  28.6425567
  75.3625774  15.3965282  27.8751826  74.6346235  15.5991530  29.1866755
  59.5358419  31.0542655  18.8714576  60.3665209  31.2180233  19.3179905
  59.1922903  30.2634478  19.2871571  63.2249641   2.4159771  53.5264444
  62.6694155   3.0448768  53.0659199  64.1044092   2.5784579  53.1852484
  79.8322821  27.1262574   8.0701900  79.4369555  27.5636077   7.3160869
  79.4377756  26.2541533   8.0752385  88.7748718  58.8744640  15.7388258
  88.5331535  57.9578257  15.8713889  88.2591152  59.1510391  14.9813712
  68.9912510  19.4081271  11.5032279  69.7828865  18.9125991  11.7129874
  69.2110634  19.8825610  10.7014632  38.0794692  54.3991470  18.3745432
  38.0817533  53.7718964  19.0975833  37.2857952  54.1927099  17.8808856
  97.5595665  30.4583979  41.6501808  96.8455601  30.0555444  42.1442795
  97.3498821  30.2757502  40.7342625  57.6013708  38.9156556  40.1176548
  58.3316088  39.5341730  40.1381826  57.8879023  38.1883764  40.6700993
 100.1744747  43.7003088  11.8293452  99.3546295  43.3979416  11.4386344
 100.5026531  44.3592596  11.2175333  91.7404175  35.4346585  23.3214426
  92.1063995  36.1971593  22.8732419  92.4990559  34.9966311  23.7072301
 104.6369362  35.6431770  25.7445073 104.8662567  35.6976700  26.6722345
 104.0763950  34.8698473  25.6813669  58.6977291  24.9530530  16.6493845
  58.3188009  25.2172995  17.4877274  58.7911367  25.7706308  16.1604333
 108.0236435  21.4191937  49.3487883 108.6889553  20.8937001  48.9044285
 107.3486137  21.5618801  48.6853075  84.5287323  71.2350321  29.7212911
  83.5985374  71.4594746  29.7456169  84.8118782  71.4824629  28.8410425
  79.7621822  27.1592736  17.3809218  79.5024490  26.2586355  17.1869528
  79.2341566  27.4023175  18.1414151  59.8835135  51.5796804  14.7188377
  59.3024349  51.5947580  15.4793334  59.8584700  50.6719112  14.4162393
  96.3134193  88.0668449  68.6165810  97.1679878  87.9036522  68.2174444
  95.9933376  88.8575649  68.1823683  80.0306702  71.3259506  47.1215630
  79.4392204  72.0388651  46.8803740  80.0170231  70.7376432  46.3666201
 105.2873230  64.6984577  43.2569313 105.9129810  64.0650129  42.9054451
 105.4904270  65.5145979  42.7998734  65.6996679  97.5797462  28.7759399
  64.9998760  98.2212543  28.6535144  65.4133320  96.8147755  28.2768631
  81.0578537  21.7941117  29.9223471  81.7296028  22.4630952  29.7902584
  81.3953590  21.0226393  29.4672132  49.4114017  10.9652984  90.7949829
  49.9177551  10.5289924  90.1098061  48.5775185  10.4956484  90.8123970
 106.2004375  48.8827038  17.8633916 105.5776119  49.5471382  17.5686979
 106.9706345  49.0144110  17.3105109  39.2962527   7.0976138  77.6482439
  38.8871884   6.2428951  77.7837133  38.8884759   7.6647365  78.3027029
  70.1007605  75.9197426   5.3997749  69.7324800  76.5768814   5.9903425
  71.0375547  76.1151505   5.3783190  65.0858450  59.2657852  23.7067866
  64.4863892  58.5591984  23.4667468  65.1978445  59.7691774  22.9003811
  37.6048326 109.8255062  28.9692330  37.8387547 108.8973331  28.9735579
  38.1180167 110.2051640  29.6824884  84.8112202  65.4571915   9.8301369
  84.2856693  65.5014229  10.6289339  84.2044544  65.1393175   9.1615319
 106.9351864  42.5498581  40.0374556 106.3084412  43.2720137  40.0811720
 107.7915287  42.9769564  40.0148773  34.8832896 109.9967103  12.8926873
  34.3185237 109.2289049  12.9806828  35.1566461 109.9891035  11.9753802
  68.0907440  30.5977893  35.6171083  67.7160788  29.7286463  35.4741073
  68.2163906  30.6515288  36.5645027  31.4549589   2.4658011  77.0897675
  30.9939313   3.0667284  77.6750612  30.8648491   1.7173007  77.0017338
  77.2107649  32.0246410  18.9840829  77.7537537  32.8090954  18.9064288
  76.9724417  31.8081188  18.0826676  81.5527439  15.1455295  36.6119790
  81.9146061  14.2689061  36.4822912  81.2649250  15.4171896  35.7404304
 102.4858570  49.1425323  18.1320381 103.0728626  49.6085596  18.7274218
 101.6269684  49.5361567  18.2856703  16.7908490  45.6977797  15.8626342
  17.4621069  46.3786077  15.9086502  16.7409670  45.3500414  16.7530394
  56.0656595  35.3087425  26.9438171  55.7185602  36.0928941  27.3690963
  55.3279018  34.9618483  26.4422154  96.6765976  17.4441850  66.3972235
  97.5317097  17.3907936  66.8240404  96.8206310  17.0760453  65.5254650
  98.5394096  38.6458206  32.5751257  97.9445934  39.0449762  33.2100272
  99.0848160  39.3705726  32.2693610  67.8457642  22.8655195   4.7151279
  68.0089521  23.6870670   5.1784438  67.2163725  23.0967236   4.0320146
  18.2158518  94.7226334  86.3294411  18.0087852  95.5943394  85.9925842
  17.3874712  94.3999863  86.6842937  53.9626503  89.9125099  18.7530649
  53.1543779  89.4286251  18.9227057  54.5746469  89.5971775  19.4180918
  63.0377769  22.4370527  -0.1025025  62.7306223  22.7849531   0.7346669
  62.6445818  21.5661502  -0.1586999  81.1598682  42.1798897  46.9441032
  80.2184963  42.3351431  47.0211458  81.4858341  42.2338772  47.8424692
  54.0183926  34.1412282  51.9787025  53.7177801  33.8666034  52.8449869
  53.9887619  33.3432984  51.4508200  37.7790427   5.0392216  92.1177101
  38.5091925   4.4431543  92.2844887  37.8149271   5.6691933  92.8374958
  98.3013916  57.8248692  17.6689053  97.8111839  57.7447414  16.8506682
  98.9322853  57.1055269  17.6415706  77.4273205  13.8396001  27.6171422
  78.0517483  13.2129371  27.9826784  76.5687037  13.4699309  27.8229403
  53.1566143  13.8561451  93.5770130  52.6564026  13.1601608  94.0031910
  53.8954115  14.0144217  94.1646862  54.2013168  16.5233719  21.9616270
  53.9741707  17.1402287  22.6574183  54.1177845  17.0312595  21.1545944
  38.3444405  44.6187353   6.5960199  37.8541446  44.0247536   7.1643728
  38.7145901  44.0517759   5.9194279  59.9422503  18.6241019  19.6910858
  60.8573580  18.4343803  19.8980045  59.5204592  17.7653670  19.6611583
  20.2432084  95.2609539  84.3191147  19.3952441  94.8851585  84.5556831
  20.7030249  95.3583908  85.1529694  61.5904617 105.9070969  16.3399220
  61.2463617 105.0332355  16.5248513  62.5397635 105.8120728  16.4175379
  15.8808577  91.5806961  69.4004250  14.9314809  91.4853477  69.3241024
  16.1167753  92.1935749  68.7040329  90.3193855  41.0512352  23.2613444
  90.3036976  40.9287786  24.2105484  89.4397736  41.3607454  23.0452061
  56.7559958  60.0194502  26.7817235  57.4299192  59.6576309  27.3571706
  56.8804121  60.9671164  26.8334651   2.4583569 101.9619846  33.0495667
   2.9714626 101.2096882  33.3445334   1.6187197 101.8706703  33.5000157
  44.8283052  44.5758486  30.8805394  45.1718903  45.2364445  30.2790451
  45.4415035  44.5790911  31.6155267  78.0495071  51.4405060   9.3536526
  77.6999712  51.1398363  10.1924932  78.4815979  52.2699070   9.5576781
 103.5546589  30.3113961  40.6308270 103.2254124  29.5316315  41.0778093
 102.7676868  30.7625175  40.3252220 109.5771885  46.9603825   6.0387266
 109.5782375  47.8774691   5.7645333 109.6287918  46.4657974   5.2208298
  46.3824272  53.8503504  24.4921708  45.7988024  54.4392824  24.9704742
  47.2263432  54.3020153  24.4864678  68.5165405  19.0407252  44.3477058
  67.9060698  19.7214556  44.6308374  68.9982986  18.8060844  45.1408529
  94.5993137  28.4209561  50.9565067  93.9594078  28.7536287  50.3271627
  94.6448994  27.4816656  50.7779408  88.8942623  48.5155487   6.9217139
  88.4276390  49.3482780   6.9928908  89.4850540  48.6348486   6.1780989
  69.1976213  29.2525911  19.4151819  69.7017431  28.9474630  20.1694942
  69.4830704  30.1571083  19.2863607  77.9509354  41.7174911  28.3671951
  78.7168264  42.2834396  28.4638643  77.3916292  41.9422913  29.1107488
  52.2365379  50.0740671  29.4190478  53.0890083  49.7599649  29.1176105
  51.9430161  50.6693029  28.7292814  63.4963942  55.7295370  12.7005184
  63.6956787  55.4830027  13.6037016  63.0161476  54.9802589  12.3481262
  51.8239689  46.2215519  19.5953310  51.3737202  46.2830925  20.4377794
  51.7365313  47.0945740  19.2126846   6.7591822 103.2758999  28.1384063
   6.7228478 102.9437542  27.2414160   7.5778878 103.7702656  28.1777716
  59.6897507  38.2777643   7.2293681  59.5337915  38.7271333   6.3987195
  58.8151026  38.1253672   7.5871438  93.7438011  53.6966133  35.1277733
  93.0319691  53.3964729  35.6929588  93.9525795  52.9382277  34.5823431
  61.8277121  33.4760809  46.5400743  61.4353132  32.6172948  46.6973495
  61.7625093  33.9270043  47.3818874   3.2593170  43.7685537  44.7802496
   3.0964234  43.0221128  45.3569031   2.4015853  43.9767313  44.4098568
  69.9329233  43.0109644  13.3904183  69.5470858  42.5386763  12.6526475
  70.7848167  42.5948143  13.5220468 110.5122471 109.5012093  86.5206623
 111.0279083 109.2012787  87.2692394 109.7316456 108.9473152  86.5301991
  98.4251881  67.5440264  83.7097454  98.2866192  68.0278683  82.8955460
  99.3766975  67.5061607  83.8068867  15.2106845 105.4886913  38.5646296
  14.3935072 105.9865856  38.5410261  15.0267065 104.7019386  38.0514002
  99.8331833  77.4026632  66.0571575  99.1835403  77.9213619  66.5316582
  99.8119831  77.7498960  65.1654100  41.3235712  26.0044050  11.2458813
  40.8859921  26.8454814  11.1141706  41.2087917  25.5420899  10.4156268
  20.1126456  40.7640505  12.2785068  19.8838413  41.4386606  11.6391456
  19.6793211  39.9731541  11.9576585  82.3548126  15.7422197  15.0116551
  82.9132652  16.4370334  14.6629560  82.6666641  14.9458647  14.5817745
 101.6408348  43.2549095  64.2139912 101.9506454  42.7462578  63.4646416
 102.4180984  43.7174129  64.5273399   8.2988441  70.7112169  84.8383617
   8.7687093  70.3390312  85.5846405   8.4378052  70.0824928  84.1301060
  19.3361497   7.3262656  67.6047850  18.6611450   6.6615403  67.7416849
  18.8497627   8.1171173  67.3719501  89.1666412  22.4105144  28.3673048
  89.2978477  23.3178377  28.6425972  88.2698536  22.3888421  28.0333376
  89.0920258  44.0106010  24.7350621  89.7649670  44.3827677  24.1650867
  88.7321758  43.2784462  24.2343712  96.1404800  33.7970591  55.4711056
  97.0630169  33.7316537  55.2243662  95.7482338  34.3423533  54.7891712
  81.2980843   5.8159602  41.8356848  81.9416428   6.5078068  41.6826677
  80.6710529   6.2029773  42.4466562  85.0958157  42.9503107  18.0216515
  84.6307755  42.1597004  17.7479637  85.0700951  43.5212278  17.2537816
  64.7085619  45.7280493  23.6536407  64.0928125  45.0729418  23.3251286
  65.3351116  45.2271795  24.1759443 107.2403049  66.3197994  30.1779413
 106.9381809  66.0974121  29.2973185 106.4371014  66.4146614  30.6898904
 100.0078869  76.3933754  73.8248110 100.4565048  76.6782713  73.0286884
 100.5723667  75.7100868  74.1863489 106.1171055  98.0890369  67.5657988
 106.0438538  98.0827141  66.6114283 105.2146626  98.0133247  67.8757954
 107.5183722   0.3934945  57.2632074 107.2353789  -0.1461707  56.5250301
 107.1043012   1.2430466  57.1114349 100.8701229  76.9283009  88.5432339
 101.7722225  76.6506386  88.7024498 100.4687500  76.1885214  88.0873108
  60.0164557 109.8084068  33.2479501  59.0836191 109.8875427  33.4474134
  60.1609087 108.8675308  33.1473994  65.5498791  15.8097351  70.5815983
  64.7402573  15.3166795  70.4487801  65.4477453  16.5894413  70.0358343
  42.0746279  59.1231728   9.5031548  42.3267698  60.0464821   9.4905472
  42.0812607  58.8604879   8.5827279  28.7010336  51.1932468  23.8585830
  28.0983615  51.0402727  24.5863295  28.7307072  50.3577137  23.3924961
 109.5573521  48.1489325  24.7741365 109.7510910  48.9435768  24.2769074
 110.3627205  47.9671144  25.2584434  88.5583401  39.6865058   2.0577087
  87.9076958  39.0249443   2.2927396  88.1506443  40.5189133   2.2967002
  68.4647369  31.5032506  46.2613535  68.3260202  31.7132020  45.3378201
  67.5872803  31.3287950  46.6017342  44.9393272  23.8549137  30.1151991
  44.0778637  24.2303777  30.2972293  44.9228525  23.6608648  29.1780186
  89.6757984  66.7588377  74.7141361  89.9321651  66.7945337  73.7925959
  88.7283039  66.8944550  74.7045851  88.7424660  38.3184195  16.2217462
  88.1905746  39.0620303  15.9794772  88.1467628  37.5691819  16.2253928
  98.9399147  11.3533974  13.2024848  99.0556431  12.2991228  13.1106186
  99.8223782  11.0184264  13.3614624  46.7939138  39.5124555  30.9643126
  46.2555933  38.9358521  30.4221201  47.5921774  39.6454787  30.4531217
  75.8736420  35.0325155  27.7664661  75.6950855  34.9519777  28.7034082
  76.0442019  35.9650970  27.6344419  76.2255239  21.9736600  25.9048414
  76.2744617  22.5273800  25.1255894  76.6121674  22.5049686  26.6008639
  95.4258537  46.3204193   9.2229939  95.8630180  47.0047760   8.7162691
  95.0989342  45.7069874   8.5649204  67.1658325  32.0928621   4.4733781
  67.1187353  32.7142119   5.1999706  67.9416609  32.3594475   3.9801690
  55.5846930  29.0350318  28.9915800  56.2610960  28.5199285  28.5518312
  54.9718618  29.2701507  28.2948804  88.1635761  52.6178360   9.0644842
  88.8202000  52.4159241   9.7310472  88.6076450  52.4520874   8.2328826
  66.5464640  48.0529976  19.9269950  66.2901545  47.9514599  20.8436346
  66.8762779  48.9496708  19.8684335  88.2901859  30.9613943  21.8006563
  88.7212944  31.2755394  21.0058641  88.2658577  31.7247629  22.3776364
 104.8184204  44.4582176  48.5115147 105.7452297  44.6916389  48.5641766
 104.5665455  44.2720652  49.4160271  45.0768280  12.7810740  59.7649765
  44.9720430  11.8296337  59.7683620  44.4466257  13.0891216  59.1136789
  71.7720318  12.5594151  47.2061348  70.8814669  12.2334421  47.0762491
  71.6552496  13.4327435  47.5801516  83.1596088  86.2593174  89.3962097
  83.5584641  85.6266689  89.9936199  82.6474571  85.7253456  88.7889194
  12.8686643  94.0610218  61.3699150  12.3916280  94.4322300  60.6277084
  12.1880615  93.6852360  61.9283009  83.4035110  41.2071037  51.3762760
  83.2509232  42.1519518  51.3617182  84.1768074  41.0978651  51.9297314
   3.6150315  63.9790010  77.3284912   4.3055981  64.1039801  77.9794407
   4.0753910  63.9718056  76.4892960 101.5050316  18.5521853   8.2541442
 101.9464588  17.8504074   8.7325561 102.1861839  19.2090511   8.1099778
  81.5620899  47.8220510  47.9096317  81.4325142  48.5624409  48.5023069
  82.2693348  48.1015205  47.3283100  66.7459154  44.0743399  11.5457594
  67.3747540  43.5799217  11.0200727  67.2872734  44.6137285  12.1221519
  66.7438886  72.7372860  -0.1690518  66.7096540  72.7125107   0.7872070
  66.3964412  71.8885575  -0.4432332   4.9875844  81.2884140  27.1580601
   5.2616429  80.8224869  26.3681030   5.6054962  82.0155144  27.2337937
   0.7624787 101.0509396  88.2245445   1.0011169 100.1325798  88.3506584
   0.0822725 101.0313797  87.5513649 110.4264164  78.5048676  46.3377523
 109.9237442  79.3165159  46.2686014 110.8965778  78.4427404  45.5062962
  40.3128958  43.6608076  86.4419460  40.7282686  43.1646585  85.7365799
  40.9822464  44.2851305  86.7219925  67.6225424  75.6281519  27.8065848
  67.0619774  75.9254169  28.5232711  68.1670189  74.9441147  28.1962872
  91.3248920  70.5812740  37.8728795  92.0926380  70.7571411  38.4168124
  90.6557560  71.1815405  38.2017756  71.9216442  46.2178755  24.4530487
  71.4680815  46.7165327  25.1326466  72.2274494  45.4281759  24.8992419
  13.7084496  55.3450012  17.9539979  14.4744349  55.9031630  18.0880034
  13.4457338  55.0829554  18.8363492  92.9394150  29.9081016  24.7332025
  92.6803875  29.4399452  25.5269074  92.1421051  30.3538013  24.4470453
  93.4356880  35.7874846  13.7149584  93.0864906  35.1792192  13.0635726
  93.7632370  35.2248788  14.4166827  85.6987858  94.0947151   1.4808656
  86.0649109  93.4754086   0.8494841  86.4586830  94.4268608   1.9588402
  42.3312950  40.0809002  31.3122606  41.7599058  40.7253075  30.8945441
  43.1943512  40.4948092  31.3190722  95.0911045  30.8876514  22.2608423
  94.2790222  30.4234838  22.4640679  95.5645752  30.2968097  21.6752076
  24.2002511  83.0727959  89.4050121  24.5411277  83.5930347  90.1326084
  23.8096452  83.7157536  88.8131905  78.7504864  63.4727049   7.2737354
  79.2209005  63.0698681   6.5438980  77.8419924  63.5202456   6.9760549
  66.9527864  64.8586988   8.1396973  67.4614573  64.5103168   7.4074990
  66.0669756  64.5256948   7.9958707  99.1425514  61.0540819  23.1698608
  99.9899292  61.3712883  23.4822273  99.2182159  60.1003313  23.1991839
  88.6164570  48.0990791  24.3428683  88.3041286  47.2239828  24.1128969
  89.4504833  48.1847668  23.8810277 112.1511650 107.9993343  88.2514858
 112.5312233 107.2902298  88.7700939 112.8150082 108.6887836  88.2656097
  54.4226265  31.6444731  73.3153629  55.1798868  31.5320301  72.7407837
  54.7880411  31.9962573  74.1271210  86.5956593  55.2459526  26.1754799
  86.5508747  55.5867195  27.0688462  85.7215595  55.3989935  25.8166528
 103.0140972  71.3089609  29.9745750 103.6118317  71.3594007  29.2286515
 102.9728413  72.2047281  30.3094363  66.4910603  92.8671932  84.4042110
  65.9293222  92.3178959  83.8574409  67.3457575  92.8385258  83.9742184
  59.6633673  21.7957067  35.1109338  60.0540829  21.7857790  35.9847021
  59.9154949  20.9562421  34.7262716  80.5112934  46.6319323  14.6212435
  81.4304543  46.6867590  14.8827291  80.5399132  46.4148808  13.6894166
 106.2112424  71.1730431   0.4645885 107.1315953  71.1675809   0.2016128
 105.7448623  71.5046416  -0.3027283  93.4684849  85.8993053   3.6577877
  93.9842987  85.9351349   2.8522569  94.0988350  86.0833359   4.3542236
  81.5327930  68.3991909  39.7331238  82.0824146  68.9906502  40.2472448
  82.1475887  67.9319000  39.1675329  83.6579132  74.0360832  34.3836069
  83.9288616  73.4527969  35.0925493  84.2358112  73.8112831  33.6544085
  82.1051502  45.1833773  42.5239134  81.2043381  44.9602795  42.2894287
  82.4276161  44.4146109  42.9942846  95.0968170  58.6716986  46.1238623
  95.3373432  58.9614344  45.2438450  95.5522633  57.8370333  46.2340593
 101.9595528  22.6632428  42.1109390 102.6393414  22.8896308  41.4762163
 101.1568832  22.6071477  41.5924740  73.0558729  42.0153713   3.6511585
  73.4519577  42.5999928   4.2973489  73.0547762  42.5217724   2.8388867
  98.8189030  53.6841202   4.9618524  99.1749191  54.3367815   4.3589303
  98.0508614  53.3344650   4.5100847  78.5909843  90.2627468  28.1192064
  79.3465471  90.8341503  27.9818845  78.9661360  89.4424629  28.4395552
   4.7147706  52.7251577  18.7301469   4.2122212  53.4852076  19.0234065
   4.2685872  52.4355507  17.9343593 100.4373932  88.2551193  32.7409744
  99.6114159  88.7386608  32.7280998 100.2008343  87.3695660  32.4651623
  56.3509512  86.9906521  18.6289489  57.1557570  87.5056648  18.6862230
  55.9251308  87.2998333  17.8293788  85.7492256 109.0503502  82.5441456
  85.8188152 108.1178284  82.7485752  85.5280018 109.4627380  83.3791447
  66.0316563  63.9265633  33.7176800  66.1817837  64.7567558  33.2654905
  66.5105820  63.2808352  33.1981659  33.1819987  82.1496582  21.7103481
  33.2195902  81.6650867  22.5349760  32.3399282  82.6039696  21.7376828
  53.7475634   5.9576488  66.2017155  53.8349295   6.1229539  67.1404791
  54.5549870   5.5025995  65.9624863 100.4113770  55.3467131  39.0643024
 100.8236980  56.1702013  38.8033581 100.1445770  55.4896498  39.9723887
  64.9991894  54.6425486  20.2431273  65.7797003  55.0417662  19.8588681
  65.3397608  54.0292645  20.8943748  45.0683451  81.4471912  21.6262579
  44.8027134  81.8845367  22.4352050  44.3175983  80.9019184  21.3911223
  93.7732792  82.4550629  94.9050045  93.5679817  82.7021503  94.0033245
  94.6735859  82.7526665  95.0358295  62.1571255  22.9654741   2.6558194
  61.5719318  22.4227619   3.1842548  62.9463339  23.0567789   3.1897163
  81.6687775  49.4611692  30.0383973  81.3417244  49.7417116  30.8931255
  81.9515800  50.2705288  29.6127319  72.5880432  65.6804943  22.0087266
  71.8570089  65.4983568  22.5991869  73.3444405  65.2738428  22.4314928
  47.7049923   2.2659045  93.4814739  47.1470785   2.7195215  94.1132927
  48.0734253   1.5309089  93.9716530  78.0802298  50.6060076  47.8053474
  78.1293964  50.5329800  48.7584877  78.2547808  49.7200012  47.4879265
  10.0738585  51.6694307   7.7833658   9.8287952  52.0548248   8.6245823
  10.6353414  52.3271704   7.3730636  64.0165615  66.5765381   8.7823784
  64.1020823  66.0045624   9.5451140  64.7244501  66.3044071   8.1983632
  11.4374983  54.0183878  52.1163702  11.8310654  54.7594595  51.6557693
  10.7264864  54.4045210  52.6278353  88.6144638  35.2833652  51.0417700
  89.5469379  35.1575208  51.2175035  88.1757355  34.6547723  51.6150236
 100.6986618  19.0339172  29.3395185 100.4318523  18.4186780  30.0225449
 101.6548252  18.9892828  29.3371654  40.8858728  23.5299087  28.0032587
  41.3904524  22.8160310  27.6133704  41.2083864  23.5878205  28.9026260
 112.3539925  47.2727728  37.2921419 111.7050838  46.7186689  37.7258563
 113.1767082  46.7913628  37.3794293 101.4175129  75.8054733  24.1261935
 101.3407707  76.6304064  24.6055961 100.7189369  75.2560234  24.4816160
   4.6680266  43.9518499   5.3186154   3.7908465  43.7721491   5.6569856
   5.1857877  43.1899214   5.5786556  97.4980354  41.3532639  39.3244410
  98.3663368  40.9595919  39.2389202  96.9035912  40.6072378  39.4038916
  92.8456783  32.9112196  19.5162559  92.5661469  33.6174345  18.9337111
  93.5865116  33.2779193  19.9988794 100.7135105  76.4964485  14.3384087
 100.3334141  76.7609739  15.1761353 101.6395092  76.3495970  14.5312560
 105.9245014  36.7899203  38.4607124 106.2579536  36.6947842  37.5685310
 106.3653374  36.0996103  38.9560556  87.6958656  27.9151440  45.3865862
  87.8672886  28.7404323  45.8401728  88.5049915  27.4137998  45.4875278
  53.5776138  27.9015875  26.1869979  52.8780365  28.0619764  26.8203259
  54.0535688  27.1503377  26.5409994  88.3500576  88.3905506  48.4021378
  88.3466339  88.4321594  49.3584251  89.1471863  87.9065704  48.1863070
  84.5969486  58.2377625  -0.2184508  84.6263027  58.3042336   0.7359870
  83.7048531  57.9491663  -0.4111155  94.3845749  64.5532656  21.2712908
  94.4108200  63.9638281  20.5175614  93.5636520  65.0350142  21.1701417
  80.8625889  65.6175041   1.7833814  81.7506123  65.2648258   1.8404596
  80.8921337  66.2219238   1.0417360  70.0434017  47.8661823  20.2458024
  70.1682472  47.3496389  21.0419345  69.3454361  47.4127388  19.7730815
  10.8284020  62.0065928  23.5712504  11.7108536  61.9046164  23.9277792
  10.8916199  61.6729450  22.6763105  97.1522522  39.6142244  25.5230927
  97.5691700  40.0455952  26.2689686  97.0690536  38.6991811  25.7914352
  96.7189407  84.5072651  82.1084213  96.4743233  85.3426361  81.7102528
  97.6456547  84.6078587  82.3259354  75.7185411  30.3103614  20.4745388
  74.9134922  30.6008744  20.0459051  76.3875532  30.9222984  20.1676345
  58.8501358  16.9760120   4.5507541  59.2024040  16.6642356   5.3843820
  59.5174599  17.5763154   4.2182627 106.8059063 103.8072681  11.8650579
 107.7561283 103.6978340  11.8286741 106.5721416 103.5737514  12.7634215
  77.0353127  58.2840729  10.1782584  76.3212919  57.6648855  10.3299558
  76.8219423  58.6951542   9.3405730  62.5573492  89.5345020  14.8322761
  63.2695198  90.1525593  14.9967182  62.4575138  89.0591526  15.6570840
  58.8575459   0.3345184  91.2259769  58.5053205   1.1398342  91.6049671
  59.5838642   0.6266988  90.6752205  76.0351706  98.5374546  24.7405529
  75.2826357  98.5481167  24.1491055  75.9703112  97.6978302  25.1955795
  77.0065117  13.7542188   9.1291702  77.8345633  13.3376944   9.3680537
  76.3915443  13.0270112   9.0331501 104.2919636  71.8845749  17.1267855
 103.8317108  71.0455465  17.1475625 105.1504993  71.6777229  16.7575085
  63.9202833  72.6818323  23.2477856  64.5533800  72.3466921  22.6128817
  63.7417507  71.9381714  23.8233995  19.8581469  49.4627428  12.5434530
  20.4374552  49.0806198  13.2027054  20.0161266  48.9427710  11.7554784
 100.3412247  82.0274353   7.2723943 101.2017441  81.6113472   7.2214270
 100.5080509  82.9481506   7.0706928  68.5372162   6.5357393  94.5339489
  68.9894104   7.3200047  94.2230129  67.8400946   6.3916528  93.8940334
 113.3671379  67.6523924  43.6064863 112.5738716  68.1104326  43.8842773
 113.9964581  67.8157187  44.3089867  96.1188316  33.7318063  79.8121357
  95.9554577  32.8127837  79.6001482  96.9351959  33.7208915  80.3117847
  78.1090069   4.7076148  36.9832277  78.3583689   5.4240972  37.5669265
  78.3689976   5.0069207  36.1119914  79.3314457  82.8775787  73.6743879
  79.3967533  81.9619179  73.9455414  78.7521219  83.2785130  74.3223619
  78.5763264  20.2729559  16.3825130  78.9444399  20.4712510  15.5214667
  79.3384790  20.0953579  16.9337082  15.0647116  36.6056371  42.1221161
  14.5033717  36.6391134  41.3475132  15.1272833  37.5157166  42.4120712
 101.2902355  82.5253105  27.4395061 100.6468010  83.0970860  27.8582072
 101.6979122  82.0520115  28.1647730  63.9041328  45.0218582  14.0202522
  64.1645384  45.2894354  13.1388760  64.6311617  45.2970982  14.5787323
  68.4983492  55.3613424  21.5026093  68.9008522  56.2007952  21.7252016
  68.0023956  55.1187038  22.2845221  77.2291851  89.5792866  75.8183575
  77.6966143  90.4003525  75.6647635  76.8082619  89.3831158  74.9813557
  93.4570885  52.4625301   3.2650474  92.7801991  52.6842499   3.9045009
  93.6340714  53.2850981   2.8086549 104.9522686 109.3335247  34.4617295
 105.8613777 109.0624046  34.5891762 104.6693325 109.6360493  35.3246641
 107.1916294  66.1264133  70.0636005 106.9266605  66.7064333  70.7774639
 106.4055157  65.6182480  69.8635387  87.0978546  62.9951906  20.3857183
  87.6048279  62.2424221  20.0814986  87.2569084  63.6725330  19.7283411
  78.7657595  67.0880604  39.3177629  78.7802076  66.1325121  39.2634511
  79.6862221  67.3371696  39.4010115  99.4324207  53.8320732  22.3590207
  98.6231995  54.3312168  22.4697399  99.3809319  53.4870148  21.4676642
  25.1065165 102.7533460  94.7898986  25.0280386 103.6266160  94.4058733
  25.4893213 102.9051996  95.6539755  70.7538605  43.9144278  51.0494757
  70.4074764  43.7766361  51.9311047  70.4604244  43.1494379  50.5545807
  69.2741394  89.5881081  39.6928453  70.1986980  89.8041630  39.8143029
  69.2583513  88.6335564  39.6234822  68.3896112  65.6926680  35.5894876
  68.8299704  66.1386490  36.3129640  67.4580288  65.7574558  35.7996941
 111.1447716  31.1834216  57.1588373 111.1348915  30.8250785  58.0463743
 111.9058704  31.7637038  57.1432924  11.2720275  63.0743504  18.0335498
  12.1327043  63.3084774  18.3808982  11.2550354  63.4582376  17.1568668
  94.8596287  33.1747985  28.0270529  95.0657845  32.2401190  28.0374312
  94.8901939  33.4370399  28.9471221  63.2312441   2.8240934  93.7120724
  63.9637756   2.5261167  94.2513657  63.2658005   2.2687757  92.9331875
 108.0889702  72.4403763  18.0099797 108.0249500  72.0599413  18.8859951
 108.4953117  71.7545414  17.4801230  85.3540707  35.6284785  47.9528570
  85.8591557  36.1507463  48.5760403  84.7795582  35.0926256  48.4996891
  80.7450104  71.2491846  17.8721261  80.9983063  71.2285709  18.7949753
  80.0088692  71.8601274  17.8393900  83.6258602  79.3685675  23.2006621
  83.3862782  78.4834099  22.9262018  83.8646698  79.2769337  24.1230536
   6.7265761  92.4277687  92.6373291   7.0314032  91.5917873  92.9901028
   6.6394079  92.9938602  93.4042549  84.5545197  45.1513863   3.6279115
  83.6723709  44.8031712   3.4983119  84.4406033  46.1017370   3.6188832
  89.8523808  74.7180939   5.6398982  89.2654133  74.5399618   6.3747180
  89.5812607  74.0997124   4.9614221  15.7827711   7.2740752  89.6610165
  15.0101852   7.1013051  90.1990604  15.6883347   6.6870975  88.9108372
  74.2651510  72.2432089  57.5942373  75.1222801  72.4195385  57.2063255
  74.3642187  72.4864292  58.5147047 112.2789478  82.2602844  94.3095207
 112.4202824  83.1363106  93.9505768 113.0744362  81.7779255  94.0842152
  60.0998783  67.5742340   1.9949150  59.8082352  67.3433018   2.8768715
  60.9451485  68.0035639   2.1268971  72.9717970  94.6910954  75.7980299
  73.6669302  94.0351677  75.7453203  73.3752823  95.4946041  75.4696894
  64.4240904  51.3488626  18.8693416  64.2797136  50.8690834  19.6849406
  64.1630316  50.7363033  18.1816983  96.8066597  23.3090448  16.8874288
  96.3464832  23.7975121  16.2048864  97.4788952  22.8159022  16.4171672
   5.9869003  84.8073673  67.0388460   5.7558787  85.6690407  67.3858023
   6.3769889  84.3467522  67.7817440  43.6537600  73.6872244  13.2258642
  43.6966705  74.5173168  12.7511668  43.0000877  73.1735325  12.7514565
  94.2962170  20.0035024  19.6618593  94.7332478  19.8567355  20.5007243
  94.1792011  19.1267037  19.2961216  18.1242549  95.8786583  92.2164822
  18.4515047  96.7520332  92.0011806  18.7217820  95.2813530  91.7665672
  80.9461498  50.7315540  32.3427868  80.6583214  51.6300726  32.5042152
  81.3290119  50.4497814  33.1736016  15.8014035  12.3650098  88.4671688
  15.6036985  11.4498949  88.6664486  15.0591874  12.6611447  87.9402447
  95.6952095  68.7223291  69.7713280  94.7970390  68.4133863  69.8899889
  95.7193947  69.5668745  70.2212000  89.1531658  64.7670650  26.1545396
  88.3218575  64.4513845  25.8002663  88.9046097  65.4551220  26.7718172
  79.0590429  74.9378586  21.2613797  78.5226202  74.6512270  22.0005178
  79.9286413  74.5821142  21.4443517  84.7309208  84.7268867  16.6655767
  84.9684429  85.5762005  16.2934291  84.9075985  84.1001320  15.9640145
  76.5408182  58.6477757  44.7667360  77.0207453  58.3408689  45.5359650
  75.6352282  58.3829880  44.9280548  73.7701941  29.1493845   1.4331827
  74.6854448  29.3791986   1.5935919  73.7926388  28.6177993   0.6374777
  62.7286434  41.6664362  36.7155218  62.9942799  41.0626650  36.0218859
  62.4609566  42.4602938  36.2525225  96.1524773  70.2961016   6.8307662
  96.7682934  70.6973457   7.4439609  96.3722801  69.3646002   6.8456692
  72.3545790  50.0357628  36.3846064  71.5293312  49.7817230  35.9714961
  72.7514791  50.6512213  35.7682323  78.2086468  55.5531931  25.9168744
  78.4971380  54.6587467  25.7352972  78.7158394  55.8172655  26.6845036
  90.2985096  71.6720390  32.3054862  90.5389214  71.0976171  33.0324483
  91.1186028  71.8173265  31.8337059  88.4511662  22.3616743  49.9853325
  87.9860497  21.5333104  49.8682356  87.9693985  22.8107524  50.6799316
  18.2187366   1.7120992  81.6570950  18.2511437   2.5343895  81.1681938
  18.6082006   1.9225322  82.5057793  93.2239342 100.6444931  83.6468983
  93.4781456 100.0463200  82.9441833  93.9107323 100.5451298  84.3061924
  91.3828850  41.3350773  53.7107992  91.3342476  40.5554247  54.2639828
  90.8765411  41.1074495  52.9310322   5.3939915  76.7047644  78.1422901
   4.9997842  76.1231184  78.7923050   5.8298218  76.1154985  77.5266171
  60.7900620  15.4218090  91.6196156  61.4261055  16.0603523  91.9420147
  61.1251974  14.5771241  91.9203186  91.4004993  47.2533274   0.9166334
  90.9043312  47.9568434   1.3350983  91.9885063  46.9347906   1.6014813
 100.9674358  16.4883769  33.9332700 100.7068062  17.2886848  34.3891287
 100.1443005  16.0297489  33.7649035  96.1287880   7.2159725  28.9705992
  96.7654705   7.2097784  28.2558727  96.5249252   7.7745533  29.6394014
 104.2579174  52.7979231  52.4165154 104.3980217  53.7406540  52.5051451
 103.6108303  52.5876093  53.0897713  83.9016724  76.8792534  79.9600601
  84.5382690  76.1697006  79.8733997  83.8886261  77.0762634  80.8966732
  71.6320181  63.3389473  29.9906707  71.8538046  62.6668358  29.3462276
  72.2845507  63.2318115  30.6827331  64.8458433  65.9431267  15.4654431
  65.2745199  66.7859745  15.3168714  63.9226675  66.1066341  15.2724600
  58.8036728  25.4479337  10.4188025  59.6984386  25.7682967  10.3048062
  58.7059164  24.7681069   9.7520852 105.5180550  45.7388449  14.9937510
 104.8312473  45.6682825  15.6567371 105.4602909  46.6428137  14.6843314
  10.4163122  94.0300655  75.5093527  10.0650108  93.9256096  74.6250963
   9.6449459  94.0217304  76.0760593   6.1679393  46.6111422  32.7918029
   5.3647453  46.9586658  32.4040699   6.5477407  47.3535395  33.2617331
  64.8213911  91.1142445   1.8294114  64.8023129  91.4702702   2.7177325
  64.7154045  90.1702690   1.9473794  83.4364033  25.2095699  77.7230644
  83.5586452  24.8809505  76.8323898  83.2374382  26.1390376  77.6102257
 100.1830387  89.9137211  41.4492893 100.0202560  88.9802361  41.3138580
 101.1193752  89.9683094  41.6404200  74.2314625  74.9070311  38.7325454
  73.7337399  74.8188305  37.9196954  75.1141691  75.1442957  38.4483480
  85.8161163  38.3782816  20.7833004  86.6913891  38.7623978  20.8341026
  85.8992863  37.6774240  20.1366854  12.5328648 106.6929436  89.8406696
  12.5952935 107.5274181  89.3759251  12.8606379 106.8832207  90.7196426
 109.5315742 108.3493042  92.0465565 109.9516678 107.6908398  91.4932156
 108.9420509 107.8479767  92.6099014 101.3704681  78.2846928  27.4171424
 102.2541809  78.6495781  27.3708797 101.0411644  78.5623121  28.2719636
  81.2883568  73.2598495   2.3967105  81.8648624  73.2689476   3.1607744
  80.5660057  72.6845026   2.6485351  99.6909523   3.9637849  51.2222242
  99.8667336   3.0296248  51.1096382 100.3864193   4.3994558  50.7295370
  33.4996057  14.9441910  92.1824837  33.2392788  15.7404792  92.6455021
  33.0012417  14.2461956  92.6075363 114.0188694  87.0971107  39.9354815
 114.3383312  86.1964226  39.9896884 114.5369244  87.4932194  39.2348075
  79.5068932  53.0234528  32.9219437  78.5630894  52.9388666  32.7866149
  79.5945024  53.2939959  33.8359237  20.4592133  89.2774677  82.7624607
  20.8460712  89.8373699  83.4355640  19.5226574  89.4719028  82.7983952
 110.9255314  67.0652676   8.2402933 111.0332775  68.0075026   8.1106347
 110.1052856  66.9826889   8.7267214 114.7424889  53.9596605  37.0658517
 114.8319721  53.6393356  36.1682916 115.3689384  54.6808624  37.1263433
  73.3427572  35.1430273  11.3790536  72.7732944  34.8338389  12.0835698
  74.2241859  34.8934102  11.6565526  10.1105618  95.0092888  81.6004753
   9.8511362  94.5672798  80.7920456  10.3938973  95.8787823  81.3177490
  28.2944155  32.1092844  42.8873682  28.9556646  31.9812441  43.5675049
  28.5097957  31.4592934  42.2185230  87.0678520  50.3578329  35.4235959
  86.9219208  51.0457182  34.7741723  86.9779968  49.5414209  34.9320412
  75.7030392  47.9786015  29.0627289  75.0302458  47.5739002  28.5151935
  75.3589439  48.8496590  29.2604256  61.8639517  67.1403503   7.3424238
  61.2695742  67.3711872   8.0563301  62.7121544  67.0150805   7.7679801
 106.7325497 109.5875454  86.5288448 105.9463787 109.6116543  87.0743656
 106.7229939 108.7159348  86.1333370  14.3102133  47.1010685  40.5193901
  14.5568097  47.1334171  39.5950675  14.9975574  46.5784550  40.9325075
  95.2806091   1.6158549  35.8935905  96.1034870   2.0705625  35.7137489
  95.5244827   0.6918467  35.9480309  86.6616917  58.4510469  30.1843119
  85.8370972  58.1644630  30.5769229  86.4246368  58.7153244  29.2953849
 107.6835251  94.7724247  83.6747837 108.0298710  94.1520405  84.3161869
 107.3091602  94.2219162  82.9870224  81.8476391  74.6901321  67.0787001
  81.1608791  74.3963909  67.6772881  82.6396084  74.7135067  67.6157951
  18.4685087 103.1984234  68.9106131  19.2853868 103.1492996  68.4140968
  17.7843606 103.2413483  68.2425356  68.0733538  37.9150915  12.6303124
  68.6953068  37.6709628  11.9448888  68.0541515  37.1588039  13.2167363
 101.3608360  22.1799803  15.7722926 102.2496319  21.8275094  15.8173394
 101.4152908  22.8853250  15.1275003  87.3264313  62.1996689  24.5242524
  88.0159760  62.4988127  23.9315677  86.6704750  62.8963375  24.4995427
 102.0439243  34.7307301  22.5253987 101.4826965  34.4767737  23.2580423
 102.9350471  34.6264482  22.8589559   8.0954432  96.9329643  76.0897303
   8.4906489  97.5401497  75.4641438   7.1630985  96.9390297  75.8731031
  57.9193783  35.0415921   7.7257377  57.1767187  35.6303549   7.8600681
  57.5307798  34.1671062   7.7034581  73.4959459  35.8460236  19.9137282
  74.1474104  35.2919841  19.4837666  73.4532547  36.6321397  19.3692744
 110.9338474  29.6709180  18.0842745 111.8316269  29.5912290  18.4065711
 110.5331516  28.8238716  18.2796812  71.7275047  49.4542742  18.7931490
  72.5379753  49.2214918  19.2461216  71.0477638  48.9564371  19.2473972
  78.8228369  30.3015208  22.8383684  79.5774651  29.7166181  22.7701092
  78.2635069  30.0579262  22.1007752 107.2224140  58.3787870   9.9851692
 106.5287113  57.7658844   9.7415358 107.2241497  58.3703995  10.9423304
  72.9992533  72.6851416   4.5942661  73.0929375  73.0159903   3.7009621
  72.0593357  72.5361538   4.6971580  70.5466604  65.1899099   3.4175211
  71.3534117  65.5476332   3.0468222  70.4229116  64.3568039   2.9627115
  97.9764938  62.9189825  57.8262472  97.9281044  63.8211870  57.5101519
  98.8249969  62.6019621  57.5167704 104.2810154  56.0502625  42.9787588
 104.1818523  55.9871531  43.9287186 103.6272526  56.6965818  42.7121162
  68.8306379  76.9346046  46.7207003  68.2273960  77.6504326  46.9204998
  69.6828842  77.3595238  46.6240120  72.6899910  44.4320440  20.2893829
  73.0208445  44.1695786  19.4303823  71.7384768  44.3638468  20.2106261
 111.7569637  49.6730852   9.0277213 111.6591835  48.7824917   8.6908019
 111.4489841  50.2337122   8.3156264  63.5658073  33.7612081   6.4322722
  64.5096016  33.8705683   6.5485579  63.1966019  34.6162796   6.6531163
  97.4869251  82.5495625  13.7976754  96.6804028  82.8000641  14.2482293
  97.4055576  81.6046143  13.6685336  85.8085823  66.9336653  24.2106199
  85.8913422  66.7128801  25.1383257  85.0563335  66.4241600  23.9093447
  73.0108118 104.8270798  45.4455185  73.3659220 104.8742390  46.3331556
  72.5133038 104.0094757  45.4297066 107.0711136  79.4220543  89.2062759
 106.8346405  78.5259867  89.4458103 106.4671230  79.6482229  88.4989738
  61.8157339  83.7860394  92.9384136  62.5538254  83.2428074  93.2147408
  61.0853291  83.4927464  93.4831333  73.1910086  29.2120194  15.5208814
  74.1170740  29.4071865  15.6642318  73.1028223  28.2870054  15.7506776
 102.8648281  73.9688015  31.0140896 103.2288742  74.0982437  30.1383352
 102.6178074  74.8472786  31.3030410 109.5757294  77.8866100  79.3715286
 109.6226788  77.3770046  80.1804352 109.6894455  78.7942886  79.6533394
 113.2230663 101.8467045  89.3375492 112.9247379 102.1327591  90.2009106
 113.0021477 100.9159565  89.3040371  79.9986315 105.8344269  47.8591824
  80.6791592 105.3996563  47.3452806  79.3831778 105.1357841  48.0813456
  57.0728827 105.4302311  21.0194325  57.7329111 105.8948040  21.5339923
  57.3834562 104.5252132  20.9926128  89.5123291  78.3363676  21.5387583
  89.9860668  78.5131931  20.7260203  89.1338825  79.1806984  21.7839456
  85.5717942  73.3894704   0.3367961  86.3126513  72.7839159   0.3109134
  85.6831214  73.8691948   1.1575855  91.4932632  76.1718893  36.6878605
  92.4125957  75.9230185  36.5923572  91.0468292  75.7183266  35.9728718
  76.7629671  78.4638262  34.6366119  77.4025917  77.7517986  34.6253133
  77.2120094  79.1959000  34.2139316  91.6274834  83.3996964  12.9681039
  91.2433624  83.9774036  13.6276031  92.5712681  83.5366440  13.0502117
  78.9419031  67.4645853  23.4446836  79.2828083  66.8043327  24.0480757
  77.9914856  67.3584032  23.4855080  97.5188446  65.1622391  56.2037182
  97.0835114  66.0036278  56.3407660  96.9148445  64.6674442  55.6500006
  55.1620436  74.2868757  87.1080303  54.3132448  74.0893602  87.5039673
  55.3107214  73.5707855  86.4904976  46.0958531  41.2708630  94.6044104
  45.9283021  40.8794178  95.4616890  45.3467801  41.8474544  94.4538586
  80.2511597  34.0035009  38.1327200  79.3288708  33.8952398  37.9005814
  80.5469704  34.7421384  37.6006079 112.0013142  58.9735556  36.7628026
 111.9366646  58.4849501  35.9422445 111.1190033  58.9389324  37.1323347
  32.2253728  11.2513506  86.3563919  33.1346107  11.4245391  86.6003609
  32.2274780  10.3433740  86.0533905  95.0944328  50.8098936  28.1059265
  95.5167389  50.0508833  27.7036810  95.4391956  51.5602827  27.6218939
 110.5970860  61.1128950  33.2466149 110.3752708  61.8213701  32.6423836
 110.5946159  60.3249788  32.7030969  88.7848377  53.7066889  51.8192482
  88.9243221  54.6436787  51.6820669  89.4273090  53.4639835  52.4859953
  90.7292938  81.3560677  20.0489378  91.2354755  80.5444336  20.0845265
  89.8858833  81.1297226  20.4409313  83.6554527  63.9243793  32.1200633
  83.9653969  64.4102097  31.3557768  84.3781281  63.3362150  32.3392296
  41.3331366  23.9449215  43.6600208  40.6269169  24.1390824  44.2762899
  40.8876657  23.7839603  42.8282261  58.4081554  72.4711609  28.2934761
  58.2516050  73.2764626  28.7866497  59.1150522  72.6946783  27.6880217
  71.6207027  77.0984221   9.5857245  71.0206842  76.3555622   9.6518415
  71.3987637  77.6528835  10.3337538 100.9316921  72.7808475  33.1028795
 100.8529377  72.1448326  32.3918843 101.5022659  73.4640884  32.7509403
  95.3532696  37.9360485  36.2698388  94.4066143  38.0464196  36.3586760
  95.6639290  37.8025866  37.1653342 113.4441376  91.0270691  51.4213037
 114.0195751  91.7084122  51.0736322 112.7265167  91.5073967  51.8342638
  98.2775211  72.5853395  38.4229827  98.9871883  72.4876595  39.0578508
  98.0608463  71.6890526  38.1661773  67.6894093  79.6470118  27.5627756
  67.7426243  80.5884361  27.7274561  68.3015728  79.2594624  28.1883097
 108.0294228  68.4020615  28.2841945 107.7561855  69.3150854  28.1949806
 107.2096348  67.9094458  28.3231878  84.0983486  27.2538161   7.2438818
  83.3198833  27.1527386   7.7916116  83.8448048  27.8992558   6.5840685
  99.4995785  68.2587004  11.0703325  98.6086369  68.5791111  10.9296620
  99.5026779  67.3825550  10.6848478  12.8252423  33.5610986  12.5330126
  13.4709513  33.6755562  11.8357384  11.9857347  33.5100675  12.0760071
  71.0856199  37.5117564  28.8594627  70.3470278  37.4080682  28.2594943
  71.7068100  36.8335772  28.5940790  70.6935167  14.7340596  88.4553909
  71.4164543  14.3217647  87.9825306  69.9380207  14.6285594  87.8771782
  96.7577267  89.0731335  11.9018626  96.5642548  88.5828400  11.1028600
  97.7113533  89.1555595  11.9072998 106.9809055  73.8276291  29.1114044
 106.7761040  74.7305441  29.3543625 106.8848801  73.3329535  29.9252248
  71.7349243  85.9747028  51.6743565  71.7082214  86.7652035  51.1352682
  72.3500109  86.1846733  52.3770714  58.8940048  73.6108160   4.6384841
  58.0712175  73.1316757   4.7368810  59.5071363  73.1548071   5.2149928
  96.3572693  66.4589214  33.2070565  96.1793423  65.6012106  33.5929489
  97.2570515  66.3954496  32.8867507  69.4907665  66.7081451  31.7655969
  68.6725998  66.5574789  32.2390246  69.9516869  65.8704758  31.8113041
  77.8183556  49.2272186  17.4129999  77.5743866  49.9968576  16.8988347
  78.7709808  49.1781521  17.3334301  99.5961857  14.0103877  43.8330317
  99.2159462  14.8757899  43.9837837 100.4028225  14.0101171  44.3483639
  38.9661622  91.3576984   8.1495857  38.1377268  90.9006596   8.0045164
  39.5592022  90.9928417   7.4927616  66.8205786  79.7685051  38.8019085
  67.6768589  79.7724009  39.2296910  66.8831301  80.4518414  38.1345463
 109.7713470  63.0607605  43.8837433 109.0180779  62.6516342  44.3096924
 109.7995758  62.6631260  43.0135012  87.0825005  94.3035984  14.2289865
  87.7228928  93.6001396  14.3351376  87.3574734  94.7598076  13.4336889
  75.1711988  40.9609079   9.2569274  75.7170200  40.3662586   9.7714216
  74.3839025  41.0828638   9.7875154  79.6050882  62.0830011  61.9517279
  79.5496225  61.6276598  62.7918530  80.5332184  62.2965956  61.8558836
  83.1070709  78.3041954   6.8314493  83.5725307  77.6569748   6.3016552
  82.3498440  78.5491800   6.2996310  65.7879877  56.3087082  65.2113962
  65.0543165  56.8305206  64.8863268  65.3847122  55.6655598  65.7944536
  67.5076866  52.3362112  16.4726388  68.2406998  52.9302549  16.6339898
  66.7441320  52.7986097  16.8181837  80.4024315  64.6843433   9.1947252
  79.6204090  65.1528788   9.4865364  80.0783730  64.0561152   8.5493237
  88.6252975  69.7157574  40.4712677  88.9461040  70.4130411  41.0432053
  88.1300449  69.1382980  41.0522175  68.1136942  38.4291840  28.3083892
  68.2246208  38.6045408  29.2428303  68.4141111  39.2292428  27.8772426
 102.9080772  59.7166204  37.1984196 102.5721836  60.5010414  37.6321197
 103.8597870  59.8133039  37.2320151   4.4660717  15.1035094  26.5272665
   3.9692876  14.9021745  27.3202991   5.3585863  14.8198819  26.7252684
 111.6390419  86.0911179  33.2180762 111.6664886  86.0432243  32.2624707
 112.5581932  86.0787773  33.4850049 108.4094906  84.7890091  21.0224414
 108.8646698  84.0000248  21.3166404 108.8232613  85.0068665  20.1872420
  61.8378782  76.8601274  33.4853554  62.2768736  76.9593239  32.6405668
  60.9890318  76.4735699  33.2702422  28.5804033  46.6633129  27.7828979
  28.6781859  47.3396683  27.1126652  28.7367463  45.8412266  27.3181748
   8.7814385  93.0856800  38.4077549   9.0869647  92.5306511  39.1252685
   8.6503947  92.4816895  37.6768231  94.9323177  74.5862198  26.7645574
  95.6591225  75.0186253  27.2129059  95.1968002  74.5650911  25.8448625
  65.7304573  75.2958202  40.2392578  65.4249191  74.9516344  41.0785532
  66.6602707  75.4756355  40.3783369  64.2665195  10.4282117  92.9649544
  65.0762177   9.9465632  93.1341743  64.3348217  10.6971800  92.0488644
  37.7132154   1.7786300  73.9741516  36.7890692   1.6525064  74.1892815
  38.1173253   0.9280566  74.1457701  54.0119314  44.3324041  20.1049924
  53.2312489  44.8405790  19.8847091  54.0088463  43.6062050  19.4814062
  33.9410281  70.0291252  93.1309223  33.2888079  70.7297230  93.1298923
  34.2810392  70.0171041  92.2362232  98.4029484  48.1404638  19.9607706
  98.1983948  47.6065779  20.7284665  97.6217747  48.6773205  19.8273528
   0.9295303  42.9031181   3.7865913   1.3021879  42.8639555   4.6674001
   0.9914710  43.8262415   3.5411465   1.7405352  81.0490799  18.7873232
   1.1730653  81.0131168  19.5573342   2.4714155  80.4691315  19.0011334
  23.8292933  14.1079843  19.6203375  23.9707351  13.6609268  20.4548216
  23.9047885  15.0385785  19.8313546 110.9251785  46.2745523  34.6169949
 111.8107510  46.4049816  34.2778873 110.4501820  47.0635605  34.3560934
  67.2369862  79.8329115  33.3106518  66.8346930  80.6992435  33.2485104
  68.0038404  79.8834467  32.7400255  91.7904663  55.8968115  12.7250016
  90.9604549  55.6043243  13.1015015  92.4373055  55.2755356  13.0594337
  84.7677898  84.9479866   3.6597848  84.8864746  84.8892021   4.6077782
  84.7751713  84.0387630   3.3606416  11.1702621  75.0379181  24.5988846
  11.0019517  75.0698280  25.5406308  12.0679629  75.3566122  24.5050812
  66.1062002  58.6185837  15.0265718  66.7763376  59.2306995  14.7225070
  65.4109144  58.6798620  14.3715489  72.9193497  71.7444181  17.6770937
  73.4542179  71.9876432  16.9214523  72.7556992  72.5712252  18.1307864
  70.5006170  67.7189159  12.3083413  71.1697674  68.3499813  12.5733459
  69.6711111  68.1424665  12.5291443  14.9937391  40.9233427  25.4737616
  14.4224119  40.6225777  26.1804128  14.8463929  40.2981281  24.7640944
 100.4221821  78.7561512   6.7035538 100.7950592  79.4508553   7.2463065
  99.7102261  78.3954334   7.2319782  94.8384571  56.5174150  38.6430240
  95.5722618  57.1308136  38.6041641  95.2116680  55.6798029  38.3685184
  31.4337087  40.8796406  17.9878426  30.9261823  41.0265875  18.7860000
  31.0304594  40.1102114  17.5858498 114.0311813  89.7200966  23.6115885
 113.3195686  89.0857792  23.5251284 114.4770908  89.4709396  24.4211054
  20.3611755  55.6053257  23.1546068  19.7283733  55.6179190  23.8726830
  20.5221415  54.6756124  22.9934883  74.3979788  74.8752308   7.6821160
  73.8282204  75.1269484   8.4089220  75.1233673  74.4084215   8.0969995
  98.4405327  56.2018156  13.5960031  98.1217003  56.8191290  14.2544150
  97.7817822  56.2302732  12.9021239   0.4654252  60.8246660  17.3009980
   0.6027358  61.5042067  17.9609978   1.3481316  60.5496979  17.0530975
  91.1248016  78.3927393  38.1599140  91.4513397  77.6106024  37.7150965
  90.1801014  78.3787632  38.0064058 104.9704742  52.7490616  36.9360638
 104.3978119  53.2989454  37.4707747 105.3066254  52.0907879  37.5442696
 113.1855011  63.3377028  18.3858383 113.6383915  62.8454685  17.7011287
 113.3494854  64.2555523  18.1692946  97.7241135  72.2239637  47.5261259
  96.8811703  71.9552708  47.8914785  98.2410431  72.4896336  48.2866716
  83.5540673  92.6978265   0.6753600  83.8933989  91.8990861   0.2715076
  84.2932126  93.3058606   0.6615318  86.7115066  81.3017641   0.0613273
  87.1477744  80.5019818  -0.2323567  87.2270724  81.5935694   0.8131755
  78.9071989  72.7496433   6.6404808  78.6130571  71.8525887   6.7986202
  79.6272039  72.8779888   7.2580147  73.6717796  40.2243185  20.1499629
  72.8262281  40.6704044  20.1976705  73.5415554  39.5329618  19.5008862
  60.1075220  68.5801935  12.0056605  59.6376181  69.3498564  12.3266602
  61.0281372  68.8422632  12.0107603   5.1925176  71.6733027  45.9374332
   5.2238369  72.6246929  45.8369112   4.4564128  71.3987875  45.3906012
 115.5683804  45.0513744  33.5273886 115.3141975  44.2613649  34.0043712
 115.8889008  44.7296953  32.6847601  59.2867661  92.7731419  21.9665909
  59.7637606  92.7141953  22.7943802  59.4193459  93.6759758  21.6775322
  79.3009901  71.1118460   2.4095948  78.4928560  71.5810061   2.2021458
  79.0643549  70.5376339   3.1379610  62.4223471  64.3599463  14.6187043
  63.1271505  63.7312031  14.7741652  62.7910042  64.9830055  13.9925134
   5.4557014  58.7972593  46.5309668   6.0542768  59.1670561  47.1799564
   5.8802909  58.9661407  45.6898737  79.4270277  60.6864834  50.0192308
  80.2345848  60.6531954  50.5320406  79.2789078  61.6196585  49.8659945
  55.1963186  46.8512106  22.7739215  55.4560375  45.9299183  22.7758265
  54.3374681  46.8570614  22.3513460   5.8734405 102.6037121  93.0399609
   5.2149808 102.8678131  92.3973751   6.6500765 102.4020576  92.5180340
   0.7809459  46.8653059  22.0982575   1.2207930  46.2317562  21.5313530
   0.9017908  47.7060223  21.6568756 107.3234940  35.2929664   4.6873042
 106.4171982  35.3174424   4.3802863 107.4313641  34.4118452   5.0453836
  86.3899231  37.2351623   7.1912479  87.0122623  37.7741671   7.6795119
  86.7770767  36.3597631   7.1946001 109.4023037  55.2159452   0.4444328
 108.4739304  55.3335619   0.6457410 109.4727612  55.4192448  -0.4882705
  78.6772490  75.1340580  15.7357216  79.5220804  75.0372267  15.2962720
  78.1064796  75.5247450  15.0740421 104.8542595  36.5757537   1.7254582
 105.4179382  36.9031906   1.0245417 104.4852352  35.7643175   1.3767117
  92.3324203  41.0996532  21.4914823  91.4719582  41.0765982  21.9101667
  92.6497078  41.9895983  21.6449881  74.5533514  50.2097559  10.1875842
  73.7542439  50.0545645  10.6911504  75.2614641  50.1002455  10.8222604
  65.1753712  61.0434198   6.3205415  64.7899914  60.9802294   7.1944523
  64.4721270  61.3931036   5.7733667  29.0235543  57.0721340  16.2967074
  28.0919075  57.0831633  16.5161252  29.3903518  56.3778830  16.8441617
  82.3720551  27.3525739  19.9419010  81.6203308  27.6376700  19.4224119
  82.9813385  26.9866371  19.3007350  41.1626959  29.8164201  91.9431210
  41.6137028  28.9724803  91.9187832  41.8526125  30.4612732  91.7868614
  93.5899067  52.7362967  38.5409760  93.7984753  52.9743767  39.4443297
  92.6648045  52.4916840  38.5652423  24.7806263  50.3477907  20.0138688
  24.0356421  50.6960726  20.5036950  24.9449801  50.9995461  19.3323743
  71.1963367 100.0756454  13.3485889  71.3872290  99.1377831  13.3631897
  70.9444284 100.2828312  14.2485034  47.0972824  43.1317043   8.4274811
  47.6658487  43.0253983   9.1901499  47.6698685  42.9705143   7.6775509
  93.8642979  35.3763080  44.1815472  93.3702183  35.5806875  44.9754953
  94.6904850  35.8483791  44.2854071  99.7535133  75.0735140   9.9789441
  98.8710213  75.4287863  10.0848246  99.8732185  74.4999695  10.7358801
  78.0730867  43.6486053  53.4503555  77.2764635  43.5426092  53.9703465
  78.7452412  43.8887310  54.0881491  48.0627346  66.7984343   3.8135448
  48.5514927  67.1285629   4.5674413  48.0264664  67.5392962   3.2085326
  76.8538904  47.8042221  15.2654254  75.8984566  47.7520370  15.2398586
  77.0553112  48.0701685  16.1626065  45.6498909   4.2053494  79.0754271
  45.4253006   4.2164701  78.1450129  46.3584948   4.8434925  79.1584110
  95.3075600  40.3590679  22.6355791  95.6115627  41.2331152  22.3909497
  95.8092785  39.7657943  22.0765281  85.7923317  78.1007624  36.9010830
  85.9473610  77.2916889  36.4136434  84.9929333  77.9307508  37.3993659
  78.7466860   7.1909493  83.7361240  78.8090515   7.2056115  82.7810669
  77.9717255   7.7169281  83.9336491  77.2429991  71.4334965  34.5645380
  77.4177408  71.3646364  33.6259460  76.3027430  71.2735033  34.6454835
  76.5191221  44.0480089  37.5052190  76.4625025  43.5455894  38.3179927
  76.5695667  43.3849001  36.8167591  56.1339188  31.3062024  69.5010090
  57.0217609  31.0444331  69.2571926  55.6607580  30.4806137  69.6046877
  53.3934402  20.2426648  88.0344296  52.6409864  20.2681398  88.6255264
  53.8069963  19.3973434  88.2094479 101.9157791  87.1153641   9.3317240
 102.5892925  87.6416111   9.7626317 101.1601257  87.6993942   9.2675292
  71.0793209  66.8584061  61.9149351  70.2304459  66.7827082  61.4791441
  70.9528208  66.4304638  62.7617502  98.9572525  63.3409786  33.8740444
  98.6161900  63.0195618  33.0394173  98.8634777  64.2920828  33.8207817
  36.2879562  88.2674503  86.1403275  36.3642335  89.2209911  86.1745262
  35.3985810  88.0872440  86.4449120  70.1984978  29.1970587  11.1766279
  69.8887253  28.3558655  10.8409655  70.2367258  29.7631431  10.4057074
   4.4164121  53.8103390  43.5159492   5.0565714  53.2175589  43.9096975
   4.6096915  54.6636772  43.9041376  97.3339939  70.1987314  36.6666412
  96.9237995  70.5168629  35.8624220  96.7871189  69.4619274  36.9391823
  70.8877993  71.2853527  55.7059765  71.0114813  71.9644642  55.0428438
  71.7217970  70.8160400  55.7266283  11.2663794  91.1593533   8.9702636
  11.0332584  91.8083858   9.6340710  12.1861172  90.9589195   9.1438687
  19.0485942  25.2893162  14.6748972  19.9483216  25.1821637  14.9835098
  19.1336310  25.7677627  13.8502228   7.8323847  61.8032217  12.2548246
   7.7968681  61.4205837  13.1315005   8.1971896  61.1095333  11.7053246
 106.7204189  36.1742139  49.2643309 106.4057446  36.5691066  48.4511423
 107.0733452  35.3254056  48.9974976  80.0989914  79.5483732  19.0195394
  79.3789005  79.0164661  19.3583167  79.7419834  79.9622107  18.2337189
 104.7993660  56.1086082  65.6783342 105.3284073  55.8520937  66.4336777
 104.7219944  57.0598269  65.7520342 100.2817822  48.7208700  11.3345277
  99.6424866  48.0574751  11.0748231 100.0467777  49.4938660  10.8212209
   0.5839310  81.8926144  41.5442276   1.2160931  82.3387623  40.9807014
  -0.1998748  81.8043804  41.0019302  18.5791206  72.1776199  19.4639421
  18.7404597  72.4706078  20.3608012  18.6893117  72.9651976  18.9312041
 110.4056931  60.6989670  46.6190958 110.0409412  59.8456192  46.3846016
 109.6494293  61.2132359  46.9016361  88.3123970  81.4276791  40.6722450
  87.7100086  80.7159901  40.8887148  89.0675831  80.9908199  40.2784300
  70.9570980  62.1917915   8.8394290  71.0269260  61.4528465   9.4438380
  70.3552008  61.8890381   8.1595075  98.5999775  88.6397362  46.1106682
  99.2389011  88.0032063  46.4313507  98.6656475  88.5855007  45.1572609
  93.6009026  36.5316129  82.9748058  93.8570309  36.5259194  82.0525265
  92.7465248  36.1002374  82.9887772 110.3650475  98.7347984  16.6902709
 109.8603344  98.8979340  17.4870646 109.7049999  98.5479832  16.0226917
  71.7276907  57.3062229  19.7869527  71.0387135  57.8525400  20.1652074
  72.3962069  57.2565889  20.4702210 103.1258678  64.8477888  40.7287312
 102.3824215  64.5108652  41.2287331 103.8753414  64.7447348  41.3151598
  27.1156955  60.9316063  19.6546209  27.2380638  61.2364578  20.5536866
  27.3745394  60.0103331  19.6767747  21.7222524  75.4596663  23.3303761
  21.4508772  76.1834192  22.7657771  22.6381516  75.3056479  23.0987740
 114.5528603  45.0129128  38.1091976 114.1788197  44.1637897  38.3443832
 115.4148674  44.8035812  37.7495313  16.6154683   6.6448879  20.0817919
  16.5666831   6.4431101  21.0162115  17.2032177   7.3986048  20.0298834
  22.8848863  90.8150959  91.9869995  22.5098777  89.9523067  92.1636295
  22.5447083  91.0520458  91.1242294  84.3110371  76.7036343  33.2791138
  83.9085579  75.8557796  33.4672356  85.2515507  76.5457726  33.3611679
  58.8983822  14.5042503  89.6652126  58.6927223  15.4046750  89.4138718
  59.5157433  14.5933104  90.3912640  89.3210888 105.9795952  43.4645319
  90.2565384 105.8427525  43.6143208  88.9411831 105.1019382  43.5047388
  59.6410799  32.9428935  85.2176571  60.0307369  32.7060342  84.3760490
  60.2825260  32.6562238  85.8677292 101.6546535  53.5008574  63.4805012
 102.2229481  52.7435303  63.3400488 101.1311245  53.5589552  62.6812649
 104.1708851  99.9418354  15.6029177 103.7155342  99.5037556  16.3219213
 105.0307274 100.1608086  15.9620261  78.8400602  31.0621047  38.1997681
  77.9080915  31.0292006  38.4156013  78.8692951  31.4421201  37.3217225
  66.2074614  74.9309874  17.3207235  66.8450975  75.2856970  17.9402661
  65.4011965  75.4130697  17.5044823  99.2682457  79.4670630  51.2805271
  99.0905380  79.9987364  52.0563936  99.2382145  78.5641527  51.5968847
 111.5140408  14.1375994   0.5071128 112.1514505  13.4572339   0.7239974
 111.7869061  14.4558978  -0.3533875  85.9362411  83.1263828  14.6953142
  86.5029144  82.3564816  14.7438991  86.4310074  83.7551689  14.1698849
  91.8507385  54.4026852  30.5209899  90.9024143  54.5013094  30.4362321
  91.9643688  53.5805941  30.9979439  93.8123131  60.0384283  24.1240883
  93.9585876  59.7658205  25.0299120  94.6830654  60.2677345  23.7993836
  50.9488153   8.5978377  66.9916296  50.4980659   9.4324762  67.1198416
  51.0597181   8.2472908  67.8753996 110.6909752  77.9268694  33.1047440
 110.1658630  77.3873806  33.6958814 110.5288696  78.8252020  33.3927608
  91.2100315  62.0457029  16.5343153  91.0015965  62.6197529  17.2713721
  92.1098232  62.2734356  16.3003469   1.7221761  70.4451704   9.2313510
   2.0740360  70.7595444  10.0641751   2.2007240  69.6340704   9.0600616
  84.9076366  52.4328136  17.0967269  84.0187550  52.4576521  17.4510038
  85.4511261  52.1519423  17.8329074  23.1742215   3.1446210   8.7746739
  23.4274578   3.6100894   9.5718199  23.8919711   2.5312027   8.6172432
  33.4453535  15.9053779  89.3902969  32.8900194  15.4513133  90.0240612
  34.3391395  15.7029307  89.6666813  16.2993872  24.3696165  82.3757172
  17.1728396  24.7304106  82.5278378  15.7276154  24.8746157  82.9538918
 102.3277283  19.1254282  17.4573076 102.9534817  19.0828371  18.1803977
 102.2738266  18.2261229  17.1339273  77.4234915  43.5360193   4.7857919
  78.0508137  44.2505503   4.8960122  77.6193428  43.1766987   3.9204818
  22.8416920  23.7202311  94.1313934  22.0238781  24.2162848  94.0947819
  23.3084846  24.0831971  94.8841190  44.2455673  21.0193729  94.4250488
  44.6504879  20.2517319  94.0213203  43.7080908  21.3998723  93.7303734
  80.6605530  87.8066921  37.4071193  80.1672935  87.8048611  38.2274342
  81.3489914  88.4576988  37.5430584  89.2086506  71.1785460  28.6821365
  88.9418793  72.0577908  28.9504528  90.0697708  71.0570240  29.0820551
 106.7477989  49.1015530   7.2985512 106.8124866  48.9468956   6.3561457
 105.8156204  49.0054750   7.4936068  66.2006855  12.9426181  88.9018250
  66.2731552  11.9916785  88.8200092  66.8602037  13.2858384  88.2989407
  95.2858067  91.7363167  10.6669307  95.1991749  91.5607643   9.7299618
  96.0462189  91.2218285  10.9377015  14.5467663  92.3713589  22.5847435
  13.9312613  92.7399635  21.9510913  15.3796268  92.7995205  22.3866081
 105.5946636  52.8704500  17.5918579 105.4793358  53.8057327  17.4239743
 106.5434647  52.7480698  17.6239192  79.5439148  94.1982460  25.3809595
  79.9408674  93.8902092  26.1956835  79.7351837  93.5083961  24.7455454
  63.9749432  11.2306619  86.9305611  64.2478848  12.0961118  86.6260338
  64.7636700  10.8544850  87.3212433  52.5762224  34.5555615  88.3638668
  52.4161959  35.4620171  88.6264801  52.9939318  34.1554356  89.1265297
  98.7985039  67.7916002   2.0639768  99.2213345  67.9907560   1.2286434
  98.4982967  66.8874741   1.9709095  78.8495445  79.1898251  30.7746363
  77.9790449  79.5412302  30.5876064  78.8041210  78.2757139  30.4943323
 107.9340172  59.4200659  22.1850467 108.1801319  60.1872635  21.6682577
 108.0736542  59.6882153  23.0932474 102.9436970  65.4989100   6.9495326
 103.8496685  65.4391909   6.6464186 102.4214268  65.2068996   6.2024087
  76.2890291  90.3740215  37.3160863  76.7475653  90.1848412  38.1347370
  75.8617496  89.5492935  37.0847845  36.9684577  21.4080787  85.7667351
  37.0772338  20.4619479  85.6706429  37.4994922  21.7828178  85.0640297
  87.3140526  25.8387756  39.4905615  87.4337673  24.9148655  39.2708039
  87.0880127  25.8363962  40.4206848 105.4431057  50.7954693  38.8852048
 105.2678394  51.3341141  39.6568084 104.8856640  50.0256824  38.9988351
 111.7686844  87.0330143  10.7991111 110.9216118  86.7533016  11.1461949
 111.6150570  87.9224300  10.4804063  52.3066616   3.1144723  16.6197014
  52.0227766   2.9462624  15.7211769  52.0155334   2.3460901  17.1106827
  90.9726334  63.4195709  63.1576109  91.1069489  62.5797081  63.5967302
  90.7363224  64.0230513  63.8620186  60.8833838  73.8939381  30.6236315
  60.2267742  73.2240534  30.4329658  60.5066442  74.4007015  31.3429999
  57.2312164 103.8912201  69.4774437  58.1744623 103.8977528  69.6401548
  57.0600843 103.0305862  69.0950251  53.4785604  14.1126311  81.9124603
  53.3729744  13.5742617  81.1280823  53.9158154  14.9054110  81.6017437
 114.6348763  97.9343700  30.1907063 114.0427780  97.6057625  29.5141935
 115.0862694  98.6701775  29.7771192 111.3479805  80.9628773  10.8416903
 110.7217026  81.6681862  10.6787300 112.0195580  81.0788631  10.1695645
 112.8468609  86.4362621  46.1535168 113.7777996  86.3449192  46.3565779
 112.4340343  86.6163731  46.9981289  14.6487188  49.7117186  34.0120292
  15.5029714  49.9806976  33.6741900  14.7001851  48.7571478  34.0607715
   6.0993230  76.4033937  20.9678054   5.7477933  76.0010719  20.1735783
   6.7693186  77.0100212  20.6526256 102.7193737  95.1335526  33.8069248
 103.4065151  95.6630516  34.2115140 102.7483463  95.3711319  32.8801298
  92.4653244  89.7638798  32.5879049  91.6564560  89.2553520  32.6458216
  92.4667072  90.3026199  33.3790994  45.0051832  51.8091059  93.2713223
  44.2426872  52.1793747  93.7160015  45.7009983  51.8339729  93.9281750
 112.2462749  88.8461494  28.6305356 112.7679443  89.6476173  28.6722875
 112.3242092  88.4638405  29.5046043  76.4909315  85.5873775  13.7643147
  77.1978378  86.2301540  13.8222110  76.6831779  85.0909328  12.9688203
  83.5477448  70.5293322  23.6712575  84.3653297  70.5794907  24.1665053
  83.1209946  69.7353363  23.9932585  76.2252569  39.2482471  88.5423565
  76.6421700  38.8219333  89.2911434  75.3742981  38.8169360  88.4644222
  93.4338093  94.9789143  45.6257343  94.2319202  94.5627880  45.3000164
  93.4308815  95.8443451  45.2167749  66.2008142  25.1511312  86.8209171
  65.5084372  24.6136045  87.2055149  65.7761478  25.9871840  86.6288090
   5.8713531  73.7417841  19.9583101   6.4789516  73.1816912  20.4413748
   6.1524045  73.6693096  19.0461755   1.5227827  85.6421280  13.3947742
   1.1705695  85.9894562  12.5752985   2.1815951  86.2826920  13.6628783
   9.4247228  75.8534002  22.6866269   8.5022801  75.8868217  22.9400325
   9.8737919  75.5149508  23.4612370  61.0290289  32.1098423  87.3380089
  61.9594145  32.3260903  87.2759342  60.9997749  31.3377309  87.9030037
  67.5427198  59.6254158   5.3560388  66.6822433  59.9744606   5.5883712
  67.3763227  59.0608120   4.6012112   1.2074689   1.6773127  37.5805163
   0.4671834   1.3645169  37.0605469   1.5579352   0.8895928  37.9963303
 101.5173912  65.6607533  47.5864458 100.7058144  65.1829863  47.4152279
 101.5328407  65.7737684  48.5368252 108.7740517  64.3059015  21.1588264
 108.9739895  64.9018574  21.8806982 109.5013905  64.4184971  20.5468345
 110.4555607  63.4003448  18.8454449 111.3773346  63.3151770  18.6019063
 110.0411606  63.7975550  18.0794609 111.4963245  88.8236237  89.4404602
 112.2785282  88.3932209  89.7856331 111.1870289  88.2391548  88.7483978
  91.5582561  78.2744741  19.6255481  92.2368145  78.5082626  18.9921963
  91.8427563  77.4327469  19.9816263  65.9732485  86.2465954  15.8764112
  66.8998718  86.0113239  15.9237707  65.9476662  87.0020866  15.2891982
  86.0334110  86.0601521  39.2095804  86.8696785  85.6793976  38.9414001
  85.5977058  85.3614902  39.6977091  47.2767735  27.2800303  70.9832573
  47.3722792  28.2250381  70.8646441  46.7610025  26.9948840  70.2290010
 105.3731155  65.2802563  47.3955822 105.9581757  65.7486963  46.8001842
 104.8269176  65.9645891  47.7823400 102.9925919  87.7032089  50.5299950
 103.5350037  88.4854794  50.4295874 102.6563740  87.5303936  49.6506071
  67.0506287  34.3848801  88.9816856  67.6152611  33.7083220  88.6079407
  66.7538881  34.8931217  88.2267952  13.2323217  95.2003384  87.4395180
  14.1687155  95.0200653  87.5225925  12.9229248  94.5666695  86.7922306
  85.1262093  89.5829678  35.1595616  84.7122192  90.2548695  35.7012296
  84.5537281  88.8205433  35.2445078  70.2525282  87.1520042  37.8580308
  70.2720070  86.4914322  37.1655703  70.1780176  87.9849815  37.3923969
  98.4279346  95.0597382   6.3487035  97.8938866  95.0908089   7.1424627
  99.2005634  94.5534039   6.5995216  97.8778934  83.2090378   4.9447781
  98.4332561  82.4304867   4.9855456  98.0433369  83.5760498   4.0763521
 113.4514713  68.7875080  35.8050776 113.7545395  68.9728689  36.6939116
 113.3487988  69.6497631  35.4023314   2.2561154  36.6989851  46.6468382
   2.2668420  37.4166942  46.0135841   3.0699423  36.2225652  46.4827013
   5.9691411  54.9925518   7.1329963   6.1349475  54.2594242   6.5403211
   5.0560522  55.2297306   6.9709885   6.1529642  37.3700857  13.4855759
   6.7727667  38.0743194  13.2954943   5.5906177  37.7252626  14.1739416
  94.1049385  74.1233444  14.4278204  94.0527248  74.2485332  15.3753614
  94.4437790  74.9543047  14.0947568  22.7816367  80.0389194  29.9275589
  23.3793664  79.5732594  30.5124569  23.1183600  80.9346485  29.9046040
  79.7826767  14.3991113  11.8158042  79.9103308  14.0300834  10.9418738
  79.8775387  15.3436673  11.6931438 106.2867737  72.3371935  31.1279249
 105.5729961  71.8351030  31.5211821 107.0672512  71.8048620  31.2818956
 107.0174980  72.4732971   6.6945386 106.5856266  73.1138134   6.1293250
 107.2843933  72.9750156   7.4647826 109.8215485 106.3414764  82.3424435
 109.1815758 107.0301437  82.5224304 109.9330044 105.8930588  83.1807423
 101.4709187  92.7126598  21.6802788 101.1916637  93.5450363  21.2989855
 101.2800598  92.0631886  21.0035253  89.5108032  89.9335575  44.1267776
  90.2587032  90.0579262  44.7110796  89.8798561  90.0062084  43.2465744
  15.1268923  61.5348339   2.6271087  15.6729364  61.3349199   3.3874393
  14.9890125  62.4809217   2.6733539 106.2581253  92.7561283  16.6191232
 106.7188168  91.9177246  16.5865481 106.4502811  93.1012917  17.4910033
  67.1185732  65.4634619   0.4316268  67.3932838  65.9527445   1.2071064
  67.3864937  64.5619726   0.6098650  10.3999567  72.7291250  30.8602643
  10.1406920  72.7165461  31.7815971  10.9934759  71.9837999  30.7682705
  32.9223442  37.4200368  84.9070740  32.9067826  36.8225360  85.6547260
  33.1191897  36.8594933  84.1565609  39.3691230  26.0144877  91.8680763
  39.7125888  25.1360869  92.0314026  39.1769719  26.0260153  90.9304333
   5.8892119  96.1269283  54.6544504   4.9365517  96.1476231  54.5636654
   6.1829162  95.5341816  53.9626312  61.6668606   8.7889594  93.6588001
  61.4673853   8.6213064  92.7377510  62.4608183   9.3232316  93.6385155
  11.0119247  92.8172779  10.8454669  11.2412155  93.6646652  10.4639113
  11.6652620  92.6786900  11.5311599 104.9490929  51.2431002  15.6557488
 105.1903439  51.7259121  16.4462709 105.5906773  51.5192699  15.0012743
 109.4040585  42.9545212  50.0472212 108.6132336  42.4332714  49.9089241
 110.0471401  42.5780869  49.4464064  85.6811047  68.9875460  11.1893773
  85.9414768  69.8794556  10.9593046  86.4972305  68.5586166  11.4466584
 108.1978416  75.7164907  56.6693258 107.7435207  75.7428169  55.8272266
 107.5341320  75.9773731  57.3078060 103.5056019 102.3753643  34.9816132
 104.1291332 103.1011581  34.9556899 102.6465988 102.7976322  34.9864006
 109.3459129  89.9638271  39.5534110 108.7747669  90.3348732  38.8808370
 108.7541771  89.7333145  40.2696085  86.5929890  69.6128035  20.9057617
  86.0418987  69.8691559  21.6452336  87.1463776  68.9122343  21.2510061
 100.1822090  67.9433584  13.8678420 100.8796978  68.5937881  13.9495182
  99.7783756  68.1303501  13.0203819 104.2544556  65.9415817  69.7104025
 104.4134331  65.5575180  68.8481665 103.6794090  66.6871595  69.5381689
  20.8038712  57.3844767  39.3280840  20.9799218  57.6139069  38.4156156
  21.0442638  58.1679249  39.8227072  29.7920966  10.8144867  15.6183112
  30.3473616  10.8683133  16.3961387  29.2569518  11.6074562  15.6507123
 111.5597439  52.5076485  68.0322790 111.5643692  53.1888628  67.3598480
 112.3071098  52.7184677  68.5919380  91.6153717  77.3460388   8.5835946
  92.3936653  77.6302958   9.0628600  91.4247227  76.4749241   8.9315015
 113.9218807  88.5870743  36.3436198 113.2853508  88.3353329  37.0127153
 113.3968830  88.9950562  35.6550288 107.3407936  58.6146259  76.3290405
 107.7402020  57.8302765  75.9528780 107.3747063  59.2619610  75.6247425
   1.1603344  84.0099049  34.9974179   0.2048485  84.0208721  35.0536156
   1.4543959  84.2995453  35.8610559  94.3113041  32.3062491  93.9633656
  94.8975468  31.8682289  93.3463669  94.5822430  33.2240272  93.9408302
 110.4482365  74.1161108  19.2820394 109.5149517  74.3281603  19.2666650
 110.5280590  73.4346581  19.9494839  89.1275597  68.4858274  34.5588994
  89.9641705  68.0240536  34.6144295  88.5955143  67.9478693  33.9725900
  97.0313454  71.2208796  20.6483459  97.6625252  70.8324957  20.0425410
  96.3182259  70.5838728  20.6921864   8.4075952  99.0259743  22.7737784
   8.0649102  99.9181938  22.7213836   8.7128806  98.9393044  23.6768413
  30.9437585   0.3215338  23.3180475  30.2226639   0.7158026  23.8087678
  31.3495612   1.0558218  22.8572035  54.0182590   5.8055860  90.6981754
  53.6444950   5.1943773  91.3329601  53.6402798   5.5408549  89.8595524
   4.0189591  92.6827335  33.8447595   4.1077235  92.1395016  34.6278667
   3.9346474  92.0556164  33.1265354  74.0361977  57.3646593  33.8326526
  73.3105087  57.9768467  33.7108850  74.0994120  57.2537899  34.7813058
   4.4397032  92.5587273   4.4181502   4.5956692  91.7081833   4.8286283
   5.1969272  92.6919556   3.8479814 103.6228848  49.0231514   7.2363311
 103.0139923  48.3639431   6.9032913 103.0765724  49.6132708   7.7554971
  87.2055149  44.3640089   3.8924006  87.8055954  44.9316835   3.4087896
  86.4115524  44.8883677   3.9967859 109.1605186  98.5511494   2.9346216
 108.4749222  99.2191124   2.9400718 109.3688965  98.4293652   2.0083506
  99.7698116  92.1013451  35.4826379  98.8762379  92.1680355  35.1460004
 100.3219318  92.3867512  34.7546744  94.7106171  87.3138618  33.3715963
  94.0916348  86.7893028  33.8794565  94.6342945  88.1951237  33.7373734
 102.6373577  82.1833038  54.0704203 101.9502640  82.5815582  54.6047735
 103.3835220  82.0985889  54.6639681 103.4508324  96.5738106   1.8879324
 104.2042828  96.6531944   2.4729498 102.7385902  97.0117664   2.3539120
  97.8987217 105.1927948   6.6272742  97.7167797 105.0525284   5.6980491
  97.7602100 106.1306381   6.7595512 104.2612743  81.5938282  71.2237120
 103.3999825  81.2264538  71.4223242 104.7084904  81.6265678  72.0693779
  90.4704762  94.3480206  12.9094911  89.5978165  94.4722939  12.5363219
  90.3420925  93.7103844  13.6117470 104.8208427 104.7750568  34.4676113
 104.6844292 105.2261734  33.6344743 105.2159977 105.4361057  35.0360250
 106.7271900  85.3505421  32.0383334 105.8332729  85.6847191  32.1123028
 106.9522667  85.0702190  32.9254556   0.4250185  97.8267288  27.1490073
   1.0024209  98.1102657  26.4401746  -0.4571718  97.9092979  26.7868567
  76.2256002  87.9849911  55.0967073  76.0378742  88.4916973  55.8867979
  75.3877735  87.5847340  54.8641634  -0.0778331  88.3571339  27.8907275
   0.1365147  89.1958237  27.4822187   0.3837262  88.3741856  28.7291241
  86.8473339  70.0204754  49.0253925  87.6937580  70.4674149  49.0190458
  87.0078087  69.1970491  48.5644770  22.8217864  65.6750202  21.1948824
  23.6492467  65.6394339  20.7150126  22.7941871  66.5596485  21.5594435
   3.4411722  87.8342915  34.3698597   3.3934709  88.2977295  33.5336876
   4.3708909  87.6354122  34.4807768   1.6522646  90.3158569  40.7464457
   0.8898234  90.5324459  41.2831068   2.3990050  90.4289341  41.3345146
  13.2406712   9.1486794  74.6124411  12.9784751   9.6010751  73.8106775
  12.5914276   8.4533405  74.7183609   5.3525025  98.9275646  76.4575768
   6.1794728  99.3425560  76.2123489   5.2973610  98.1536961  75.8969307
 112.6964378  93.3817768  16.0183179 113.4741211  93.7609959  15.6088722
 113.0305958  92.6461887  16.5316331  92.0485783  42.4432850  94.1970444
  91.4614201  43.1447315  94.4789124  91.7855453  42.2585773  93.2954216
  21.2327456  99.9627209  53.8818121  20.4421258 100.4251575  53.6037779
  20.9185863  99.1091251  54.1799927  42.9144955 100.7478619  64.6330547
  43.3446169 101.1466312  63.8766098  43.6344957 100.4323673  65.1792145
  34.6084666  20.5024981  39.2582345  35.2712035  20.2725053  39.9094772
  35.0339794  20.3410387  38.4161520  98.9610386  52.5435877  81.2643719
  99.3561459  53.3945704  81.4539814  99.6318531  51.9074392  81.5124607
  96.1134434  29.2061043  20.1928973  96.9200706  29.5234299  19.7868264
  96.2570477  28.2668543  20.3087473  49.4823503 105.8228207  13.4943354
  48.7181139 106.1758614  13.9498937  49.2978001 104.8877335  13.4061337
  28.0304098  97.8499222   5.3016639  27.9647088  97.6143074   6.2270844
  28.2729745  98.7758636   5.3068906  33.3189321  96.9098949  15.3177917
  32.9594088  97.7221012  14.9610102  34.2669392  97.0084572  15.2294517
   4.6092477  56.4370155  93.3258533   4.2285478  55.6584692  93.7322617
   3.8998431  56.8024349  92.7972221  48.4868574  19.5689011  13.4821022
  47.5771379  19.8612952  13.5381937  48.4276104  18.6178112  13.3918166
  91.6386700  44.5812321   5.7708573  90.6865311  44.4942617   5.7250959
  91.9719791  43.8064718   5.3182191  58.2734966  16.8701231  30.0555182
  58.5897875  16.6892731  30.9406638  57.3670387  16.5626156  30.0575924
  53.7768173  20.9092736  25.6882906  54.5903921  21.2720776  26.0385799
  53.5697174  21.4662766  24.9378967  38.7090468  23.6417770   5.6916940
  37.9280663  23.7377524   5.1466340  38.5584664  24.2300224   6.4316440
  14.5888209  52.4389982  84.9529839  15.1515877  53.0279589  84.4503307
  15.1843750  51.9973040  85.5583286  55.2666998  13.1894636  19.6268511
  55.9493637  13.7634778  19.9742866  55.6668949  12.7776539  18.8610256
  82.0046806  29.3545175   2.9215300  82.2268486  30.2167082   2.5701079
  82.6893711  29.1747999   3.5658425  42.0651245  93.2411385   7.1346724
  42.1386909  94.1014290   6.7215008  41.7815876  93.4286404   8.0294812
  24.1881800  98.3841705  70.0122118  25.0756145  98.2268143  70.3345966
  23.6349273  98.3150291  70.7902622  51.8267298  23.1014705  36.3086629
  52.4328566  23.8202548  36.1292386  51.0081816  23.3683467  35.8903456
  58.5570431  91.2681007  34.6838808  57.6582527  90.9592915  34.5696735
  58.4647846  92.1249294  35.1004887  55.4373837  16.0369766  10.7610989
  55.8314466  15.1723659  10.8768356  55.0516033  16.0091066   9.8855257
  29.1237712  59.2774391  89.0250397  28.7412500  59.8475838  88.3580780
  28.4456658  59.2062807  89.6968651  95.2697659  12.9036212  53.5482025
  95.6461048  12.5119233  52.7600622  95.4084873  13.8442636  53.4378433
  38.9344120  87.5591946  22.7157259  39.5134068  88.2648087  22.4274564
  39.3277264  86.7643738  22.3554587  87.0441437  51.1357784  31.0427737
  86.6754818  50.2796412  30.8251786  86.5669346  51.4100218  31.8259001
  83.6819744  37.7613497  22.3572850  82.8364944  38.1119204  22.0771122
  84.2931747  38.0347562  21.6732430  68.1149673  97.5728035  26.3199735
  68.6706924  97.9163265  25.6204081  68.1571674  98.2373810  27.0075631
  92.8379250  35.4177451  41.4417219  93.2629681  35.5418658  42.2903442
  92.5352669  34.5097661  41.4559555  96.5524006  89.1713524  83.5510826
  96.1915493  88.2940102  83.4234524  96.1519432  89.4790840  84.3642044
  91.0239601   6.8640941  39.7851944  91.7831993   6.4957082  40.2369452
  91.1944962   7.8056103  39.7588444 101.3393974  48.2275534  14.5401061
 101.2555504  49.1483545  14.7877526 101.5972900  47.7846384  15.3485298
  89.6464157  32.9423022  23.2726908  90.3866959  33.5317230  23.1284833
  88.9376450  33.5151553  23.5654569  92.8222179  27.3071337  81.9144917
  93.2577038  27.5402713  81.0945988  93.0613422  26.3919187  82.0608902
  43.5733557  31.4611626  12.0327401  42.8513575  31.8326497  12.5396454
  44.0749598  32.2212243  11.7378998  93.4748840  38.5453582  10.4737031
  93.0837345  38.2451582  11.2941349  93.7603092  39.4402766  10.6577969
  31.2333846  99.9258518   4.4446513  31.3426805 100.8256912   4.7521853
  31.8970490  99.8235989   3.7625057  66.2470627  35.9534264  36.7153573
  66.9591475  35.4495525  37.1094131  65.5911636  36.0239100  37.4089432
  50.9105253  20.5629253  25.2983952  50.5646992  20.0027347  25.9932470
  51.8611431  20.4839015  25.3778648  14.9015164  65.6449556  83.9445591
  14.4341588  66.4769316  84.0195274  14.8039961  65.2370691  84.8049927
  93.0302525  11.2257743  57.7277088  93.0141735  11.3876629  56.7844343
  93.3264637  10.3192985  57.8101349  76.4681578   9.7768199  30.6466532
  76.7023134  10.6554282  30.9457326  75.5311441   9.7038466  30.8280802
  94.2452049   0.5269559  24.4360709  94.8543167  -0.0382023  24.9112749
  94.0780830   0.0627816  23.6158013 106.1517239  50.2438450  77.1482944
 105.7918739  50.6560755  76.3629246 106.4819622  50.9738207  77.6720476
  33.7130499  34.5826054  17.7120483  33.3239365  34.0402746  17.0259714
  34.4832349  34.0912771  17.9977787   0.9053582  91.7405796  76.3960981
   0.5637246  91.4263535  77.2332239   0.1873890  91.6039944  75.7779598
  38.7056017  11.9413483  17.5122881  38.1692123  12.5149167  16.9649875
  38.8646626  11.1705470  16.9674969  89.9996853  25.3820133   1.7039417
  89.9324989  25.6569099   2.6183531  89.5597267  24.5323634   1.6763225
  63.0883598  17.9827070  14.3420923  62.8746033  18.2873690  15.2239776
  62.2731113  17.6013422  14.0162706 104.8033714  81.6932487  87.6312447
 105.5095005  82.3370934  87.5757790 105.1435757  80.9245968  87.1733570
  50.4368925 106.2523556  41.1414671  49.5367336 106.1260509  41.4414501
  50.5165720 107.1977234  41.0143423  24.9036002  35.8377481  27.0683026
  25.1653838  36.7568135  27.0133615  25.5324721  35.3760195  26.5137243
 111.7722416  73.1660795  62.4992800 112.4927521  73.1621027  63.1294203
 112.1935081  73.3261061  61.6547871  88.2439232  91.2752438  77.1822214
  88.5181618  90.4128551  77.4941587  87.3945999  91.1213398  76.7684555
  10.6096327 106.6559029  35.7021427   9.7433180 106.2754250  35.8469439
  11.0516024 106.5737534  36.5472150  96.8909454  28.1755233  59.4582653
  97.3577499  28.5629845  58.7178612  96.4091301  27.4403095  59.0793943
   0.9608923  64.9371862  78.2577991   0.7658564  65.8421421  78.5012150
   1.9151853  64.9079609  78.1892252  56.7848206  56.7294931   1.3236584
  56.1441755  57.0493937   0.6884618  57.6131153  57.1209812   1.0463569
  40.3767490 105.3790760  31.7181849  40.1393223 104.9383831  30.9023094
  41.2960339 105.1502705  31.8552542  56.8134880  34.3400049  10.9540057
  56.6275597  34.0747809  10.0532722  56.0734892  34.0045261  11.4600611
 111.7273998  46.8927002  21.4481592 111.3361454  46.1422110  21.8952751
 112.6648903  46.8147945  21.6250038  66.5442133  25.9445739  33.2046199
  66.7876577  25.5538416  34.0438414  67.2400522  25.6761718  32.6046205
  11.5707457   3.8176540  74.9534178  10.8171296   3.2336760  74.8681831
  12.1957731   3.3259019  75.4861021 109.9298573  63.4374380  91.6926003
 109.8804951  63.2703924  92.6338196 109.1379833  63.0348921  91.3360500
  64.5604801   5.8696228  28.1914210  65.1532888   5.7182300  27.4552894
  64.3845224   6.8102127  28.1677198  64.9381351   3.9657384  39.5944524
  65.4793739   4.6441543  39.1906619  64.9066830   3.2651442  38.9429832
  13.8900661   8.6908305  29.5871091  14.5029676   8.8973516  28.8814664
  13.9623928   7.7427548  29.6973538  51.3162374  97.4523735   6.7452604
  50.8907890  98.3074760   6.8088269  50.5933905  96.8249130   6.7413306
  76.2060785  30.0465608  14.8514712  76.4215326  29.6876955  13.9906430
  76.8260288  29.6268749  15.4479241  87.5308514  69.2505884  91.4421368
  87.2059727  70.1126623  91.7019558  87.9262543  69.3928623  90.5821037
  80.7320786   2.3686993   5.8174467  80.2074242   3.0506575   6.2368530
  81.6357136   2.5881112   6.0444528  63.9689112 107.8988075  40.4820061
  63.1775475 108.4074783  40.6587219  64.6503973 108.5565090  40.3433132
  13.0545115  54.8223972  90.8810425  12.1493280  54.5120668  90.8571625
  13.5014260  54.2124176  91.4679241 115.8175564  63.5078716  79.6480989
 115.4124928  62.8344679  79.1015816 116.4322472  63.9523649  79.0643072
  99.7676086  83.2682896  75.8290720  99.3265343  82.4461746  76.0431242
 100.6167793  83.0001545  75.4780006 101.4609623  61.0817146  76.3967848
 102.2580147  61.4018154  76.8192482 101.7703533  60.4435587  75.7539272
  27.7729487   8.3824152  19.1657567  27.7290845   8.6265486  20.0902605
  27.2592473   7.5769436  19.1061020  69.7521496  18.5644948  47.1145344
  69.2591953  19.3239617  47.4250793  70.6513548  18.8812673  47.0289707
  82.4557781   9.2040062  76.6659307  82.2262955  10.0666225  76.3202953
  81.6476345   8.6956692  76.5971136  28.9757204 109.5828629  13.6593199
  29.0260172 109.7292614  14.6039200  29.8102093 109.9082851  13.3217430
  67.0152235  16.1483181  11.2062895  66.1102247  16.3677287  11.4278018
  66.9441271  15.5965567  10.4273570 103.2495975  62.9721498  19.5903742
 102.6811123  62.2172499  19.7426569 103.1900883  63.1306076  18.6482584
  15.8411610 100.5381584  68.0660439  15.7602167 101.3377857  68.5859251
  15.0890315 100.0062561  68.3260679  10.9495533 104.4035244  14.5814002
  11.0455072 103.4511471  14.5800126  10.3137231 104.5811939  13.8883030
 104.4811726  54.4058561   0.4219195 103.8563728  53.6860752   0.3337637
 104.0898895  54.9837971   1.0769854   0.3388081  63.2103157  91.1121082
   0.9985629  62.6584196  91.5320683  -0.2841672  62.5912905  90.7313919
  50.1330233  10.4135573  31.3224816  50.6349134  10.5634809  30.5213189
  49.2182970  10.4664564  31.0455108  36.3983893  91.2437439  25.8797073
  35.5988550  91.5481091  25.4503655  36.7293620  90.5519390  25.3069067
  11.1372352  79.7630739  90.4244423  11.9286549  80.2407932  90.6727600
  11.4297724  79.1482639  89.7516346  18.6303902  93.9960670   7.4215841
  17.7104104  93.8798332   7.6589864  18.8244188  93.2565212   6.8456930
  36.8773532  71.7500639  94.1558266  36.8030643  72.4125481  93.4689236
  36.2503767  72.0266294  94.8241329  81.1133003   9.7918952   5.5127364
  80.7469082  10.5104160   4.9972588  82.0264435  10.0409126   5.6555539
  83.7488937  30.3213191  23.0522609  84.4976807  30.0460672  22.5233173
  83.2310390  30.8726668  22.4656844  10.1271808  75.8942461  75.9695053
  10.1859617  75.1265430  76.5381908  10.0189972  75.5329037  75.0897551
  90.0033665  82.0549011  92.2063637  89.2216492  82.3628807  92.6649570
  89.6984768  81.8542290  91.3214874  89.3525505  66.5355158  19.2867243
  89.2415333  66.9675207  18.4398031  88.4922314  66.5973902  19.7017550
  25.9443498  97.8947353  20.1335692  25.6175256  97.4297905  19.3633449
  25.8343649  98.8210106  19.9187481  92.8462505  42.2673893  41.3898945
  93.3699608  41.7028189  41.9584179  93.0102348  41.9363689  40.5068541
  44.0974808  35.5731416  13.8705075  43.6507654  36.3523078  14.2015278
  43.7017298  34.8471403  14.3527269   8.3831102 108.0070972  92.9697704
   7.6169211 108.1268692  93.5308743   8.4382266 107.0605373  92.8384876
  82.3555946  58.1374550   6.9367409  82.5999641  57.8069115   7.8011805
  82.6762295  57.4730492   6.3268316  70.2608633  21.6633511  20.2403975
  70.9680176  22.2229838  19.9195004  69.8348761  21.3373756  19.4476116
   5.8505630   8.3491802  58.7690544   6.0151339   8.3498979  59.7119999
   6.5259409   8.9231634  58.4076118  79.0537596   4.9915206  26.4874578
  79.7321081   4.6179926  25.9248281  79.4929790   5.7044613  26.9511747
  56.3905716  59.8219252  19.8315501  55.6842709  60.3985929  20.1228023
  56.4103079  59.9288559  18.8805461   2.6336095  17.4023032  23.2611275
   2.4876267  17.0258558  22.3932528   1.7556500  17.5053072  23.6282921
  93.3966923  32.5903749   6.5715379  93.4424496  32.1404552   5.7279080
  93.1638718  33.4919715   6.3498324   2.0785335  80.4547501  80.2352905
   2.5863662  81.1597633  79.8336601   1.9488652  79.8210239  79.5297337
  62.9634380  26.3746524   4.6612230  63.4023571  25.5242300   4.6802962
  63.6300182  26.9810319   4.3384129  63.4347916  26.9221473  36.6070509
  62.9847956  27.1598673  37.4177456  63.4910583  27.7414155  36.1152530
  21.6267109 101.0588169  81.7292690  21.2752318 100.4353619  82.3648739
  21.2765384 100.7661533  80.8878708  93.0514336  52.1968555  41.4945555
  93.1208897  51.2667084  41.2795353  92.3407078  52.2424173  42.1341038
  14.3669116 102.1106052  86.2306881  14.1381538 103.0353165  86.3245773
  14.2293620 101.7401218  87.1024990   6.8238884  26.6365099   2.6448449
   6.2875843  26.0931516   3.2222271   7.0419735  26.0627294   1.9103748
  83.8526821  71.6103172   7.6905817  84.5789433  72.2193718   7.8241098
  83.9126778  71.3647652   6.7673600  66.5289354  19.9392974  10.3868163
  65.8795404  19.8223352  11.0802412  67.1244717  19.1968751  10.4886878
  29.8877549 108.3122253   2.9719338  29.7200322 108.7577438   3.8023612
  30.1418805 107.4243355   3.2235363 111.1204529  98.4409142  81.8543339
 110.4377556  97.7896786  82.0157242 111.8172359  98.2152367  82.4706078
  68.3963299 105.1307964  22.2212625  67.9180717 104.7625351  22.9641509
  68.9212132 105.8359241  22.6001096  26.8999434 106.0011864  23.4906411
  26.7501760 106.2611771  22.5816822  27.5103498 106.6559792  23.8295841
  13.7191713  84.0017033  55.8016014  13.9268196  84.7053528  55.1867914
  12.9466772  83.5774803  55.4280710  44.8711061  15.3190589  31.6013503
  44.1636801  15.1856709  30.9704852  45.6480694  15.4670167  31.0622144
  66.5787077  11.4654124  12.2594130  65.7728529  10.9561229  12.1730983
  66.3271570  12.2244287  12.7855778  69.3048620  29.3438625  29.9377751
  69.7763920  29.3191075  30.7704067  68.4310818  29.6606302  30.1666808
  76.5332556  23.4996819  19.7129953  77.4101782  23.2758212  20.0246429
  75.9764147  22.7908516  20.0350499  93.0625248   6.6780090   2.8383383
  93.1967735   5.7594705   2.6048946  93.1988907   7.1555042   2.0200270
  72.2831392  38.7732410   0.9334325  72.7255154  38.6176181   0.0989774
  72.9935408  38.9294100   1.5556635  99.8751736  80.5138969  17.1727169
  99.4728756  81.3510609  16.9413245  99.3051815  80.1539612  17.8522646
  37.2302222  92.6562500  16.3360262  37.0154691  92.6965046  15.4040968
  36.3903618  92.7714252  16.7805457  96.1682701  24.7022223  39.8948431
  97.0322037  25.0251675  39.6387911  95.7988358  25.4047632  40.4298067
  43.9362001  98.7331676  38.6341834  44.6326113  98.3364105  39.1574669
  43.5869265  99.4302559  39.1894317  91.0615730  79.1834354  90.1635838
  90.6655788  78.3393145  90.3800964  91.8197536  78.9607906  89.6233749
  72.8338623  42.5243807  10.3968990  73.1750154  43.4069633  10.5414438
  72.3711300  42.5804043   9.5608544  17.2145593 100.1489830  87.3639965
  16.7477441 100.6173706  88.0560398  18.0998755 100.5123615  87.3839569
  52.0165920  21.4014578  38.6721683  51.9274712  21.8998528  37.8598309
  51.3051939  21.7198992  39.2278123  35.7290721   7.6591140  89.4608498
  35.3128242   8.4526253  89.1242409  36.4559937   7.9783392  89.9955559
  34.5516992  84.1651726  14.7614121  33.7619305  84.5968056  15.0872827
  35.1110888  84.8824978  14.4634759 113.2465076  66.7979622  87.9627514
 113.6791325  66.2069082  88.5789680 112.8136539  67.4471188  88.5172462
 104.2420292   4.2957804   0.0954319 103.3412647   4.1269010  -0.1808560
 104.3876553   3.6890525   0.8213156  31.6692591 109.3577480  12.4744916
  32.0914030 109.9018860  11.8097019  32.1611166 109.5345497  13.2763958
  47.0856094  37.3950434  27.8513956  46.9881296  37.3168898  26.9023848
  47.9453754  37.7983093  27.9714513  81.9961929  21.5559602  34.9934101
  82.0511723  21.6977644  34.0483713  82.5408554  22.2464466  35.3713012
   0.7966362  96.2808418  93.2901096   1.5042672  96.0456562  92.6899624
   1.2247124  96.3711262  94.1414833 108.1121159  90.7414150  77.4934053
 108.0313969  89.9841690  76.9134998 108.7410259  91.3137150  77.0538902
 100.1251888 108.9616871  14.2901194 100.1418972 109.4877911  15.0896013
  99.5694637 109.4574261  13.6887527   6.6517442  94.1221142  63.8324118
   6.9042689  94.0820217  64.7548294   6.2273276  93.2809448  63.6634922
  20.8236790  43.5214663  18.3785582  21.6950679  43.7217188  18.7203348
  20.8587742  43.7905455  17.4606276  84.6285915  43.0639648   9.9459904
  85.4371166  43.5593414  10.0768459  84.8793316  42.3452139   9.3656844
  91.9903660  49.4525623  41.8099642  92.7099419  49.3238640  41.1920023
  91.2445927  49.6964931  41.2617397 101.4662266  56.4061832  32.1364403
 101.8039799  55.8305740  32.8226137 101.3035774  55.8241510  31.3941360
  57.1051502  44.7501802  17.1808136  56.2618065  45.1815224  17.3184752
  57.7543879  45.4122353  17.4183297 115.4994965  55.5893135  89.0523434
 115.9495449  55.2634239  89.8317623 115.5312920  56.5421247  89.1382313
  73.6864996  35.8509159   8.5025364  73.4160185  35.0206757   8.8946790
  74.5824289  35.9818220   8.8130170  87.5732994  32.9295826  46.1015987
  87.2566986  33.6491537  45.5555058  88.2065392  33.3377123  46.6920757
  80.5249214  16.7732918  47.4816227  80.1997852  16.4726067  46.6330338
  80.0275135  16.2651634  48.1224203  34.1685033   5.4725891  18.2934892
  33.2872772   5.2065474  18.5559630  34.0274310   6.1708719  17.6541674
   2.0113485  89.9718857  88.8637733   2.8031707  89.4480991  88.9858341
   1.9328730  90.4792213  89.6716595 109.2119408  78.8568735  75.6913853
 109.3933487  77.9375696  75.4959202 108.5357285  78.8288975  76.3682842
 107.7326107 101.7322254  78.4846926 107.9506779 102.0556736  77.6105881
 108.0257320 100.8210182  78.4829235 109.2119408  65.9265375  93.3611202
 108.8338280  65.5140400  92.5845146 110.0926399  66.1855412  93.0899620
  87.2551632  33.1652617   5.2910560  87.8851318  33.8636732   5.4688001
  87.0854378  33.2292867   4.3512025  73.8010502  55.2037144  19.4355130
  74.0762568  56.0856915  19.6857405  74.5277643  54.8654366  18.9123678
  21.3581729   2.1999738  80.9996128  21.9537759   2.6699716  80.4160118
  20.4905891   2.5401729  80.7810020  81.7044067  19.4797301   1.6310632
  81.0592651  19.9192476   2.1849972  82.3499107  20.1576447   1.4310844
 106.1427593  70.3422737  15.4508042 105.4503536  70.3673840  14.7903657
 106.7170143  71.0736322  15.2236998  86.9519901  43.8659048   8.3317047
  87.6371574  44.4127750   8.7160408  86.3271999  44.4895458   7.9616469
  72.1315956  33.9506340  13.6210716  71.8036079  33.7990189  14.5074511
  72.7533579  33.2385755  13.4706974 113.6545181  56.3785315  14.0659070
 113.3759880  55.5077267  14.3493700 112.8496742  56.8021250  13.7675405
  93.5308743  37.9535294  22.2540569  93.7934303  38.8100743  21.9169712
  93.6366081  38.0267429  23.2025766  21.2400365   2.6800162  76.9390011
  22.1873283   2.5711510  77.0227718  21.0007882   2.1300536  76.1929846
  49.7369719  26.0288405  26.6464925  49.7959423  26.1305737  25.6965423
  48.8221598  25.7967901  26.8061924 108.4831524  45.6145239  67.3290062
 109.4365597  45.5867100  67.2486019 108.2010651  46.2056589  66.6309929
  36.0656333  83.3495235  91.8552876  36.2234616  82.8466606  92.6543140
  36.7709303  83.0869484  91.2638092  13.9823532  78.7842607  81.4415073
  14.0060055  77.9116774  81.8342781  13.6748278  78.6361313  80.5472374
  70.4318237   2.4980724  33.4663534  69.9031544   2.9442948  32.8048229
  70.6956577   3.1922388  34.0703058  68.5416555  27.0422578  14.8268557
  67.7066612  27.0742321  14.3599629  68.3615637  27.4608326  15.6686354
  67.1692467  50.8507442  19.7827494  67.1807671  50.9004021  18.8269067
  67.5413513  51.6844320  20.0703955  82.4828148  57.5039911   9.9656409
  81.5377998  57.6527786   9.9335539  82.5791073  56.6762352  10.4365754
  63.3268595 107.5381565  18.6830544  64.0878773 107.1658134  18.2375789
  62.8273106 106.7775631  18.9800215   7.6226699  45.2588844   8.5069191
   6.6772532  45.1771212   8.6323571   7.7586108  46.1851740   8.3075869
  14.2805111  83.0722237  82.0888710  14.6083260  83.6949921  82.7376652
  14.6457815  83.3771038  81.2582970 104.5731068  58.6205196  66.6387463
 103.6940575  58.6476278  67.0165873 104.6575642  59.4502020  66.1689329
  27.2020984  75.3233910  85.6435394  27.1585822  75.1309156  86.5801716
  28.0933213  75.6444502  85.5061531  33.1656456   7.1551991  82.9638195
  32.6410413   6.6502345  82.3425007  33.7313962   7.6975942  82.4143028
   5.8438307  82.3342705  58.5013485   6.7725003  82.4195576  58.2856369
   5.6201982  81.4388847  58.2473803  96.2595081  16.9906032  29.2493224
  95.6233406  17.7037084  29.3041635  96.8579102  17.1467638  29.9799061
 106.3706970   5.7580131  29.2733669 107.1853924   5.5534559  29.7323513
 105.6931210   5.6893498  29.9459743  62.1145010 102.1161175  32.7543807
  62.6778316 101.5172863  33.2445860  62.7010441 102.5352669  32.1246934
  87.3975658  19.3991554  27.3699665  86.9178867  20.1687908  27.6762390
  86.9515228  19.1447341  26.5621638  13.6029387   6.9186771  65.5303669
  13.3345997   6.0444576  65.8131504  14.0902054   6.7692715  64.7201300
  96.6394901  36.7727399  25.1938868  97.0574284  36.6500950  26.0462475
  95.8022118  36.3150668  25.2696037  49.7931385   3.4476349  92.4110031
  49.0749884   2.9336983  92.7802753  49.3736935   4.0151748  91.7643166
  60.8551237   0.0498189  83.5138035  61.2589404   0.3779114  82.7103615
  60.1946399   0.7062806  83.7352562  34.9760079   1.5838315  92.3331356
  35.5964398   1.2905501  91.6658401  35.5257821   1.9362316  93.0329895
  56.5174866  49.7332430  14.7053480  56.8142653  49.1148663  14.0376902
  55.5783415  49.8260689  14.5452976  67.5162172  55.5222416   9.2520958
  67.3945761  56.0400867   8.4563124  67.3422909  56.1357117   9.9659836
  26.8743730 101.5157032  11.5740335  26.4052820 101.0484600  12.2653174
  27.5683093 100.9132862  11.3061070 110.5862713  75.6316996  78.1151438
 109.9052238  76.1788177  78.5063744 110.5264950  75.8094549  77.1764994
  84.6740627   1.4567338  88.3849621  85.3131008   2.1467312  88.5631847
  84.4889832   1.5375480  87.4493122  10.6172538  59.0672541  85.5927944
  11.2631071  59.5913219  86.0665607  10.8876884  58.1613111  85.7423496
  27.8456044  26.6533422  69.2898226  27.0974469  26.1379647  69.5912838
  28.1570411  27.1049190  70.0742435  18.9898276  81.4871597  90.7207489
  19.5419717  81.1693001  91.4351177  18.2801890  80.8473301  90.6636143
  21.9779897  69.8239708  38.5779858  21.3165641  70.4862499  38.7783217
  21.6361713  69.0188265  38.9667392  10.3532195  47.5423288  26.3023686
  10.0007677  48.1351137  25.6385803   9.6101099  46.9928980  26.5516591
   0.3833335  84.5487499  92.0652103   0.1428569  84.4122791  91.1488152
   0.8390936  83.7450790  92.3154736  88.9722538  19.1091609   0.9839178
  89.3601608  19.7276735   1.6029459  89.6844864  18.8947999   0.3814222
  39.1793346  99.4046402  23.8451314  40.1252842  99.3506527  23.7091231
  38.9869332  98.7055874  24.4700670 108.0950356  67.8443956  85.0298691
 108.1266785  68.6666918  85.5188084 107.8661251  67.1849585  85.6848335
  75.1191235  45.0070000  43.2543325  75.6068039  44.5879078  43.9633894
  75.6635332  45.7507801  42.9961777 106.7720032   6.2297910  18.7314582
 105.8434868   6.4381623  18.8348091 106.7871475   5.2920866  18.5398507
  89.3232441  35.5165553  24.4193149  89.5628929  35.2720046  25.3131795
  90.1571274  35.5611634  23.9514685  78.2075977   7.1313864  38.4255052
  77.9947710   7.6829857  39.1782832  78.8094330   7.6613015  37.9028058
   5.1954371 106.1603832  93.2416534   5.3003049 105.3773212  92.7012444
   5.0577891 106.8687439  92.6127625  76.0204172  72.8592396   3.9289138
  76.4388657  72.1298218   4.3861726  75.0842428  72.7337074   4.0840009
  65.8222103   8.3058381  46.2118912  64.9512386   8.6845654  46.3310814
  66.2484598   8.4131455  47.0622015  35.9826303  99.4209194  14.2723823
  35.6396008  98.7156963  14.8212242  36.0918498  99.0213108  13.4094691
  92.8340054 105.3865147  81.5332031  92.7274704 104.4850731  81.2294102
  93.3259869 105.8181000  80.8346939   3.3375353  51.4402103  89.9690533
   2.8557163  52.0019341  90.5761337   2.6599914  51.0394669  89.4244671
 110.1551914  90.3023148  92.2488117 110.6699181  91.0839653  92.0480537
 110.6210327  89.5898247  91.8111229  90.1581669  91.9201565  92.7018070
  90.2226639  91.9082069  93.6567593  89.5615768  92.6439953  92.5110817
  56.0153055  90.0203705  60.8588600  56.6956282  90.6917000  60.9109354
  56.3027668  89.4423771  60.1520967 105.5835629  57.8617001  92.8364849
 106.0115147  57.8093052  91.9818783 104.6589661  58.0030727  92.6330853
  84.4690418  25.2812004  11.3949251  83.9483833  24.4840717  11.4935815
  84.6423435  25.3393269  10.4553401   8.1424314  75.4711676  93.1129360
   8.8678467  76.0341501  92.8426456   7.3649246  75.8868170  92.7401733
  22.9550934 101.0879040  87.4234486  23.3806753 101.9221878  87.2257614
  23.3259273 100.4737854  86.7897606  73.6799669  62.2974777  13.0504501
  74.0981007  63.0917549  12.7180064  73.6535454  61.7074633  12.2971785
   5.0695235  66.0118151  13.5381567   5.7729453  65.6140471  13.0251181
   5.2791643  65.7890654  14.4451642 104.8306084  94.7187710  77.1040154
 105.7274437  94.4425964  77.2928572 104.3236256  94.4182873  77.8582764
  10.9100175  97.8100777  93.7221622  10.0178802  97.9844761  94.0220070
  11.0071099  96.8608856  93.7985229  48.2548094  84.2332363  92.1363926
  48.1079865  84.6502686  91.2874222  47.3760366  84.0864372  92.4863052
  29.1494203  48.8219118  91.7762089  28.6410213  48.6038733  90.9950447
  30.0174332  49.0476179  91.4417744  45.0049448  21.0603833  64.1200256
  45.1134539  20.4483557  64.8479509  45.2541113  20.5571675  63.3448315
  97.1539879  67.6269388   6.9437587  96.4704037  66.9922924   6.7288864
  97.9483604  67.1010590   7.0367855  94.0620136 104.2421150  84.2671585
  93.1574440 104.1093826  84.5506477  93.9864254 104.5726776  83.3720398
  37.3455358 101.5492058  71.6623497  37.8349733 102.2427654  71.2200212
  36.6093946 101.3658714  71.0786438  83.9141083  65.1263523  23.4060931
  83.1873512  65.7323408  23.2617283  84.1178322  64.7849226  22.5353742
  87.2048473  12.5129986  26.4623523  87.1994305  12.6565945  25.5159998
  88.0841255  12.7712417  26.7387629  83.4327984  10.7464135   3.3865175
  82.9205513  10.1790380   2.8103897  82.7808952  11.2910044   3.8277450
  46.7184114  93.2991600  91.6671753  47.4550486  93.8463688  91.9394970
  46.8569613  92.4678421  92.1209812  69.4853687  56.0062551  31.3795090
  69.1982746  56.9120026  31.4953923  70.1597118  55.8814430  32.0472789
  87.0124531  40.9252405  39.8852277  87.6736259  41.1899424  40.5247688
  86.5583324  41.7372417  39.6601510  97.8074074  55.7291842   0.7227916
  98.4488201  56.2180758   0.2072276  97.2386169  56.4016914   1.0975565
  75.5039072  41.2833786  37.0040417  76.4242601  41.3545847  36.7508483
  75.5267191  41.1239052  37.9475880  66.7187166  35.0103259  17.3371208
  66.4589167  35.8575296  16.9752038  66.8639326  35.1817346  18.2675850
 107.5304508  98.4619617  87.9350471 107.1826553  98.9798641  88.6610317
 106.7616653  98.0386353  87.5529575  14.0836811  89.7753239  79.6132231
  13.7665284  89.2216492  80.3267288  14.2423725  90.6259251  80.0225067
  88.1945515  38.0656934   8.7910491  88.6493397  37.5325346   9.4430828
  88.0149460  38.8917065   9.2401332 106.8858814  55.4566336   1.2915576
 106.4352417  56.0492706   1.8931715 106.1906242  54.9048281   0.9332792
  16.2308896  74.2430735  76.1375904  16.4153540  74.9194574  75.4858923
  15.8451986  74.7183657  76.8735075  69.9030733  15.8224106  90.9440327
  70.1626778  15.1784766  90.2851009  68.9745283  15.6474662  91.0970974
  72.7641630  51.9933891  27.6521802  72.9951906  52.6264429  26.9723988
  73.5848236  51.5407705  27.8468347  97.0264149  52.2510815  11.4142513
  96.3626766  51.9965172  12.0552516  97.8547287  51.9689465  11.8022370
 106.6869736  22.4888182  27.4527311 107.5347137  22.2443748  27.8239822
 106.7017365  22.1302056  26.5653682 100.3207207  69.6313477  37.2268343
 100.5877686  70.3531981  36.6577530  99.6199226  69.1926956  36.7444420
  43.3856392   0.6488495  79.6980333  42.8950500   1.0032037  78.9564228
  42.7225685   0.2261455  80.2438259  55.3953886  30.0197291   8.5768694
  54.6825933  30.3715277   8.0435836  55.2611971  29.0721154   8.5610139
  20.6216669   5.4892796  92.3929405  21.2375879   6.2219834  92.3882866
  20.8404994   4.9974564  93.1844330 106.3144875  59.2257023   1.0512415
 107.1506214  59.1740417   0.5881614 106.2623501  60.1332855   1.3509296
   2.8274494 107.1456051  88.1112289   3.7267730 107.1075058  88.4368038
   2.2850749 107.0647717  88.8957882  11.8039441 106.9600391  93.7796974
  11.3347340 106.1579323  93.5501289  12.6516581 106.8748379  93.3434010
   9.1080487 108.3436203  77.6595926   8.7347215 109.2144775  77.5237083
   8.4284848 107.8627586  78.1320286  87.1672440  92.7900791  56.2705851
  88.0106926  93.1030846  56.5974855  86.6591549  92.6025105  57.0598173
  75.4532051  51.8510866   1.7212917  75.3112841  51.6470718   0.7969180
  74.7653675  51.3697910   2.1811418  44.8356915 106.1345005  90.5128479
  44.9884033 106.9472408  90.9948826  43.8830090 106.0723877  90.4437828
   8.0856770  78.9318991  94.1157246   7.9648697  78.0674839  93.7227631
   7.7434790  79.5419836  93.4623337 111.4126587 103.7568569  78.6410999
 111.3873768 102.9123116  78.1912708 112.3193741 104.0497398  78.5499048
  62.8903675  23.8385057  10.6902015  63.7794638  23.9486980  10.3531647
  62.4037743  23.4539938   9.9610871  79.9885464  22.2406507  94.1950607
  79.8790455  21.3181281  94.4256973  80.3543568  22.2246337  93.3106613
  91.6295052  49.5623636  12.6371181  91.1450672  48.7922955  12.3395479
  91.0384941  49.9932814  13.2545698 101.9503307  81.8297768  80.0851822
 101.3654518  82.3962784  79.5819759 101.6879654  81.9632530  80.9959984
  10.2278209  79.6230125  83.1564045  10.1246488  78.6841059  83.0013371
  10.8078194  79.9193048  82.4549389 113.3009911  37.9510331  35.2001715
 112.7417946  37.5474787  34.5363402 114.1914654  37.7196693  34.9360609
  86.7315388  33.4658289  23.3423281  86.2143135  32.9358721  23.9488411
  86.1903000  34.2378902  23.1773782  37.6649666  18.8650239  38.7606144
  37.8721523  19.1681826  39.6445823  37.6886582  17.9101634  38.8231778
  41.6721821  32.9608035   2.2479494  42.1454525  32.2408891   2.6650432
  41.4254141  32.6191211   1.3885358  97.9889011  65.2567196   1.6418876
  98.7928867  64.7891712   1.8682520  97.2878170  64.6330357   1.8309347
 112.5953960  71.8260717  27.4874067 112.2091866  72.5816631  27.9302955
 113.0938721  71.3771963  28.1702471  82.4714947  53.5114861  33.6739945
  82.1405315  54.4042492  33.5756683  81.8104935  53.0682182  34.2058015
  74.4152117  51.0582638  21.2299728  74.6866941  51.1663103  22.1414852
  75.1515245  51.3947964  20.7192636  88.2570171  52.1056318  18.3740461
  88.1632233  51.1652899  18.2217801  89.1537189  52.2083807  18.6927915
   9.4558865  87.3096085  65.0609875  10.0611734  87.6668167  65.7108068
  10.0104272  87.0901203  64.3122959  74.7686577  17.5978816  22.3023057
  75.7030344  17.4177277  22.1987557  74.6856499  18.5365462  22.1342301
 115.0773144  34.8606086  36.2047100 115.9873581  34.6121287  36.3668680
 115.1320171  35.5555534  35.5487442  95.4359436  77.5069141   0.0009726
  96.3071918  77.4184942   0.3874276  95.3032780  78.4516621  -0.0770223
  44.6404266  98.1721401  69.0384245  43.9169025  98.2866287  69.6545696
  45.3802156  97.9061317  69.5844841  17.1345603  90.0818729  91.6417694
  16.5064692  90.5120373  91.0615158  17.2515130  90.6966686  92.3660564
  98.4512138  33.4509540  48.7057161  98.1286240  33.4775281  49.6065235
  98.1014633  32.6340008  48.3500576  92.8787899  95.4525185  10.8607066
  92.9249477  95.8353043   9.9845940  93.4183979  96.0283756  11.4024150
   9.2301798  31.1054254  13.5268009   9.4261801  31.9263577  13.9783394
   8.5337937  30.7057881  14.0479231   3.6090121  85.4589462   0.3045632
   3.0557007  85.4636955  -0.4764974   3.6803803  86.3805485   0.5531336
 102.8532982  59.6846533  34.3692040 102.8838825  59.5656681  35.3184891
 102.7917194  60.6322098  34.2484522 106.0165882  35.1410151  17.3848522
 106.7700195  35.6753087  17.1336579 105.2921009  35.4892111  16.8651259
  90.6643486  25.3522539  26.5032005  90.8643723  26.1268711  25.9776616
  89.7105885  25.2790594  26.4685392  96.9009781  27.0092988  17.2813928
  96.9777584  27.8340578  16.8016934  97.5729847  26.4457393  16.8979347
 109.2129421  54.5931816  15.6466997 108.9203835  55.1580524  14.9314642
 108.4692955  54.0142345  15.8141828   4.2245638  57.1838379  23.4346294
   4.1735920  57.8660488  22.7651358   4.1728765  57.6582193  24.2644000
 107.6100349  34.8907447  24.6257591 108.4154320  35.3329062  24.8942137
 107.8613853  34.3827462  23.8544011  36.0102177   3.4663674  89.7871399
  35.8792019   4.0058821  89.0074062  35.6830549   4.0041521  90.5082417
  91.0418320  95.2670670   3.2309964  91.5993500  95.9727383   2.9032147
  91.3361645  95.1277447   4.1311017  37.0496607  95.1996517  80.8679008
  36.7929220  95.5955219  80.0350761  37.6704741  94.5126724  80.6252575
  85.4733467  66.1763191   6.7833751  84.8999882  66.6852713   7.3564881
  84.9639988  65.3951740   6.5674818  11.9620752  98.6567783  86.7065716
  11.6282129  99.4966698  87.0217800  12.1381283  98.8026333  85.7770729
  58.8637400   5.0330549  76.8186522  58.5975361   4.9218220  75.9059668
  58.0825853   4.8099652  77.3248768  79.3421793  27.3315978  33.2191777
  79.6231699  28.0716491  32.6810336  78.9041471  26.7418814  32.6055050
  47.5853491   0.7073043  73.7810612  48.3068275   0.0855443  73.6855936
  47.3466396   0.6569260  74.7066450 111.9829273  52.3197365  21.5615129
 112.1526432  52.9247904  20.8394718 111.9178200  52.8810644  22.3341084
  92.8979301  76.8528605  -0.0203458  92.7286816  76.5503263   0.8718775
  93.7922096  77.1930313   0.0076804  93.5760975  29.6255517  13.0446017
  93.5766888  28.7509441  13.4335649  93.6170673  29.4682026  12.1013129
 104.1328430  99.9480915  93.7313652 104.2438412 100.8002758  93.3098316
 103.2326698  99.6950531  93.5266590  92.0079297  31.3230252   0.5176223
  92.8468532  31.6129136   0.1592887  91.4829022  31.1010384  -0.2513348
  22.4507427 107.5845814  68.2909679  22.7503562 106.7816925  67.8645515
  23.2143044 108.1616879  68.2784939  81.4010715  30.5465293   5.9050864
  82.2221088  31.0019732   5.7188272  81.3169956  29.9058962   5.1988637
 108.0932713   1.5024097  44.4119596 107.1499538   1.4923419  44.2498779
 108.1793308   1.2813105  45.3392935   2.6596972 108.0773544  85.4381466
   2.7539438 107.6405525  86.2846375   2.0752767 108.8149929  85.6130123
  84.2216682  24.8575044   1.5111797  85.1383781  25.1206803   1.5925035
  84.2436028  24.0841699   0.9475268  23.8020277  93.0743885  80.5450821
  24.4262123  93.4406185  81.1715794  24.0505672  93.4610653  79.7054768
 113.3251286  72.0678997  81.5171814 113.0052757  71.9436264  82.4107552
 112.6384926  71.6966009  80.9632015  18.9451504   7.3023993  13.8921881
  18.4962475   7.0769066  14.7069705  18.8830054   6.5108824  13.3575189
  83.3078003  34.3962407   4.4624078  82.7600574  34.8900890   5.0725979
  83.7702370  33.7644792   5.0130999  19.7385287  10.7526374  52.2928095
  20.1999211  10.0413525  52.7371359  20.4079199  11.1709380  51.7513561
  91.2782288  74.6925735  18.5884047  91.5359783  75.2575350  19.3168402
  90.9170055  73.9114046  19.0073526  65.1927042  16.0395181  87.6680660
  66.0456133  15.6332481  87.5140476  65.1616430  16.7719460  87.0525837
  78.7913084  24.2563725  26.0362339  78.5127449  25.1699829  26.0990500
  78.6442947  23.9003563  26.9125175  92.5353336  46.0777664  19.0805626
  92.1181583  46.5798903  18.3805180  92.2206974  45.1827192  18.9535666
  25.8033776  96.7600918  87.0419407  25.1182938  96.4010048  86.4780712
  25.9618735  96.0755157  87.6919174  19.5843065   5.9350330  74.3783331
  19.5114708   6.2974602  73.4953976  20.4882169   6.1145175  74.6370983
  95.7228184  25.9299779   5.2147394  95.1471424  25.3105164   5.6631875
  95.4804897  26.7841554   5.5723572 114.7020626 109.5527840  60.1192522
 114.3727684 110.3615284  59.7271729 114.1096210 108.8726997  59.7987413
  81.3269234  55.9102345  46.7761374  81.2882805  55.3329849  46.0135603
  81.0798073  56.7708778  46.4378119  87.1846390  40.5443001   9.7118390
  86.4154530  40.9025288   9.2688322  87.8443718  41.2342882   9.6418256
  88.3801460  59.0528965  10.9605944  89.2927170  58.9773464  11.2394071
  88.3287811  59.9106503  10.5388737  17.1447444  93.6621571  71.8846369
  17.6997042  93.7395096  72.6606989  16.3173246  94.0699100  72.1402693
 110.9111023  55.3527832  21.7772174 110.9626293  54.9621820  22.6495743
 111.6423988  55.9696770  21.7474365  89.7901535  81.4205837  88.9943790
  90.1287651  80.6656837  89.4757271  88.9085579  81.1592674  88.7284184
  98.0177307  45.4612780  17.4383593  97.4233341  45.1050043  18.0986619
  98.1162739  46.3829517  17.6771688  45.9395885   1.1230462  89.7443581
  46.7471695   1.5690790  89.4892120  46.0165262   1.0118085  90.6919575
 101.2001514  45.5672979  13.6689031 100.9984112  46.4542770  13.9669061
 100.3447151  45.1584816  13.5372615  59.3193102  28.9507604  89.0425682
  58.6385679  28.7206507  89.6749210  60.0256062  29.3180847  89.5740318
   3.7287501  71.9441366   1.1089216   3.1738839  71.4932823   1.7453846
   3.3564764  71.7104340   0.2586123   0.5705024  14.3412936  13.7502539
   0.4574632  14.1262269  12.8244030   0.1388312  15.1893592  13.8535810
  44.1017962   2.6237941  86.0804367  44.6327162   1.9062491  86.4261055
  44.5404577   2.8765285  85.2680779   6.4509195 105.9649372  76.9589806
   6.3205719 105.0631237  77.2521925   6.3450640 106.4919662  77.7509832
  66.5722799  30.5976892  17.7298462  66.9216347  29.7604012  17.4246728
  66.8370867  30.6472135  18.6483550 106.9240284  34.1546798  31.4697480
 106.8931103  33.3987761  32.0561647 107.7551651  34.5829725  31.6746879
  50.0288248  37.6811957  34.6927691  50.1401281  38.4055209  35.3085566
  50.5549812  36.9711685  35.0605369  11.6117394   9.2269129   8.3476877
  11.8672442   9.8888761   8.9901465  12.4391258   8.8431036   8.0572498
  80.4478264  34.0087247   3.4062451  81.4009094  33.9204788   3.4147441
  80.2516079  34.4057822   2.5576720 110.6029987  21.2580252   0.2441250
 110.1596928  20.7354903   0.9124556 110.0093460  21.9907928   0.0802315
   9.7097641  68.3888817  44.4986391   8.9537549  68.0817175  44.9989700
   9.3320280  68.7900686  43.7159538  52.5049877   9.2012846  63.1363535
  52.2600317  10.0708652  62.8200340  52.3799324   9.2472202  64.0842390
   8.9434206 101.1981201  92.1789837   9.8875493 101.0408592  92.1899700
   8.8416493 102.0102596  91.6826916  96.0812664  77.2550058  39.7124386
  96.6780758  77.9093456  40.0756025  96.4429760  77.0537329  38.8493705
  98.7536144 101.9647026  89.4521809  98.0412960 102.0138741  88.8146782
  98.3623314 102.2657776  90.2722263  70.8567429  27.7077103  17.4963784
  69.9835539  28.0997682  17.4886191  71.0409164  27.5149465  16.5770566
  91.2202930  16.5232074  32.2574663  90.4174709  16.0371625  32.0691347
  91.0750103  17.3856163  31.8683934 107.8569794  59.5607805  15.2913857
 108.5387897  59.2218637  15.8714795 107.0459843  59.1774464  15.6254101
  16.6365266  32.2905374  16.7405057  16.1834359  32.9662824  17.2447956
  16.1905420  32.2842717  15.8935761 113.7078285  13.6963570   6.7988420
 113.3086681  13.5573614   5.9400177 114.6208382  13.9103055   6.6068149
  11.4778519 103.5477066  77.2726011  11.7669058 103.9675331  76.4624023
  11.8641973 104.0790653  77.9687452 107.1046352  48.3517408  32.3274207
 107.8338146  48.6763763  32.8557611 106.8735218  49.0874720  31.7603970
   5.8452785  50.6100512   8.0006731   6.4745277  50.9540415   8.6346656
   6.3618100  50.0302458   7.4409825  89.8477936  47.7158594  35.0616074
  89.5893288  47.9437113  34.1685724  90.2381420  48.5174656  35.4098725
  10.6472564  68.8469028   5.2460319  11.2936294  68.2518673   5.6259865
  10.2666891  68.3544254   4.5188004 114.2468357  36.1805725  17.5389230
 115.1370239  35.8671832  17.6988685 114.3524456  37.1111250  17.3410559
 106.3700104  61.9842196   2.3217881 106.8855953  61.9695282   1.5154488
 105.9380436  62.8383732   2.3143426 111.8868923  56.7257833  18.7051070
 112.2268963  57.2855902  19.4031334 112.6488400  56.5360117  18.1577110
  57.8684235  25.6857514  93.3636856  58.0790281  26.5224099  92.9491043
  57.0132923  25.4490423  93.0045891 112.8148842 107.7281666  59.3104506
 112.8522682 106.8352699  59.6533585 112.6997280 107.6176453  58.3666515
 108.2120800  61.0958815  30.0036764 108.0973625  60.6793308  30.8578181
 107.3828888  60.9445095  29.5500755  37.6097107  20.4688168  77.0178986
  37.7079940  19.6646523  76.5081024  37.8442168  20.2164221  77.9109478
  94.7375488  67.6430082  28.6624789  94.8317337  67.4223185  27.7358437
  93.8376236  67.3972988  28.8769388   4.8737943  58.6882162   6.4967465
   4.2214245  58.6031437   7.1920222   4.8022589  59.5990705   6.2113369
  63.1842852  85.8613110  19.2412484  63.5121775  85.9512138  20.1360297
  62.2353077  85.9558487  19.3232810 100.2765465  70.5668736   3.3538195
 100.8779812  71.3093472   3.2969049 100.6319809  69.9232006   2.7409688
 109.4352055 102.6435184  84.0027905 109.6328545 102.9871845  83.1315517
 110.0511265 101.9202900  84.1203785 108.1392860  53.9952803  40.5627871
 107.7185535  54.7265100  41.0150194 107.9446316  53.2327604  41.1076736
 104.6923065   5.9814841  91.3266563 104.8266792   5.4977483  92.1416283
 105.5117321   5.8706826  90.8444786  23.5597444  80.0338840  92.0260620
  23.3497906  80.3057098  91.1326122  24.0919352  79.2456675  91.9177914
  76.9643402  61.7408466  19.1543651  77.4783897  60.9365749  19.2259848
  77.5149393  62.3321056  18.6410499 101.7618465  83.8238621   0.3401699
 101.6621208  83.0242252   0.8567736 102.2492123  83.5482216  -0.4361881
  34.6352291  96.1684513  90.7692719  34.7116375  96.7005539  91.5612602
  35.3318715  96.4896584  90.1967812  99.8507977  58.1106472   4.9023256
 100.5248070  58.7746572   4.7573093  99.9643707  57.8496885   5.8162355
  87.8614521  76.9598055  27.3509359  87.8640842  76.2858200  26.6712523
  87.3660278  77.6839304  26.9682717  31.7236233 100.2042007  77.5506306
  32.0862770 100.9466076  78.0338955  31.0321832 100.5854034  77.0094919
  87.7275372  71.6574430   0.3800453  87.2836304  71.0364580   0.9575898
  88.6584949  71.4646578   0.4913343 110.1558876  69.5745611  56.4679384
 109.3558884  70.0444698  56.7033529 109.9184132  68.6496019  56.5333986
  92.0151806  61.1816645   9.2352557  91.8249702  60.2831411   9.5049059
  92.6473904  61.0890865   8.5225314  91.1623764  92.3125362  17.3730505
  91.3599968  92.7198505  18.2164240  91.8257141  91.6293526  17.2757328
   7.8954655  57.4831486  18.6584544   7.6698625  56.7091799  18.1424057
   8.3455706  57.1349764  19.4281363  21.7142582 102.1173859  78.5239506
  21.0668421 101.4129353  78.5529566  22.2303271 101.9361973  77.7384090
 114.9770737  67.8633308  60.8068371 115.7629204  67.4848700  61.2011003
 114.5891190  67.1441841  60.3082848 109.3433189  28.9593506   8.5040921
 109.4089794  28.4969616   9.3396252 108.4069633  28.9632893   8.3054715
  88.6265659  39.1038251  21.4604163  89.4379520  39.1990972  21.9592214
  88.9093494  38.7942600  20.5999327  41.6778326  12.4720728  87.4160194
  42.3828888  12.1461201  86.8566704  40.9127522  12.5059223  86.8417931
  86.0884094  47.7322626   9.3009412  86.6741371  47.0362520   9.0030688
  86.5444374  48.1274223  10.0439870 107.2111034  46.2186241   8.1057954
 106.2901306  46.4759207   8.0629671 107.6726913  47.0205641   8.3508867
  41.3668680  91.6670704  78.0836344  40.5818367  91.5733814  78.6232471
  42.0666599  91.8542385  78.7093258  79.5128250  13.3148003  94.5608234
  80.1774597  13.0104578  93.9428711  79.8768997  13.1130159  95.4227829
  92.9671574  97.4504185  28.2308125  92.2260094  97.9973316  28.4912229
  92.6047516  96.5661621  28.1761098  13.6419404  82.8181171  75.4379177
  14.0391946  83.4970093  74.8924589  14.2948794  82.1186352  75.4631710
 107.5392914  65.7524061   2.2711115 107.2030067  66.5797520   2.6155531
 107.7534866  65.2382755   3.0495828  93.0915546  72.4461746  20.5985498
  93.1825256  71.6667080  21.1466241  92.1881771  72.4135351  20.2837753
 115.2395865  55.0450148   0.1633418 114.8522803  54.3359757   0.6766570
 116.1831614  54.9431112   0.2878917  84.1369343  77.0345449  20.8228469
  84.3671036  76.2748432  20.2879596  83.3637238  77.4029684  20.3954697
  60.3594255  52.6429176  21.9171906  60.9709454  52.7242517  21.1853075
  60.9014940  52.3538399  22.6512384 109.5682621  82.1123600  13.6576355
 109.4635868  81.2101078  13.9596534 110.2450657  82.0619869  12.9826355
 109.4235325  84.3706417  15.2791357 109.5765114  85.1069355  14.6869397
 109.2319107  83.6331367  14.6998179  80.6977654  79.3689442  13.0172348
  80.6282806  80.1260948  13.5987198  80.8154678  78.6241388  13.6068463
 109.0923405  60.4053497  25.0486588 108.7260246  61.2896776  25.0500512
 109.3319225  60.2439070  25.9612203  98.3014393  20.0114155   5.3073847
  97.6973152  20.7316613   5.1270747  98.3646011  19.9850965   6.2621367
 109.0185738  72.5081778  12.3541617 109.5447159  71.7799425  12.6844370
 109.6601772  73.1725168  12.1027172 110.7292271  26.6826653   6.4562351
 110.1392365  26.7269778   5.7037824 111.4876556  27.2059703   6.1970657
  51.8841457   9.1011512  93.0558205  52.2291088   8.9321166  92.1790886
  52.1187925  10.0118685  93.2340527 107.4916267  35.2756047   8.1999910
 108.2021809  35.0045133   7.6187360 107.9169559  35.4260397   9.0442014
  72.4053669  53.3014584   9.2754138  72.0804214  54.1789246   9.0736848
  73.3528709  53.4099007   9.3573242  84.0584564  61.9609594  35.7165170
  84.6841431  62.6701069  35.5686975  84.2485332  61.3260078  35.0259066
  95.1140881  83.3163166   3.9292261  95.8933353  83.2752323   4.4835940
  94.4152164  83.5991478   4.5189917  91.8041611  38.8279986  18.9578307
  91.5375614  38.2844996  18.2163680  91.3154030  38.4751844  19.7013819
  39.6464348 101.3899994  86.3891029  38.6958098 101.2787724  86.3759899
  39.9305320 101.1263180  85.5138969  84.6390915  50.5205822   0.4964130
  84.0900517  50.9409428  -0.1654713  84.4325066  49.5888758   0.4224262
  47.2272062  98.7817001  80.8645821  47.7746105  98.9460468  80.0967407
  46.9063234  99.6467209  81.1195469   9.3300754  16.3380349  15.0212455
   8.7175536  16.3721216  14.2864752   9.2826730  17.2100067  15.4132295
  74.7035360  23.1214261  57.3011351  73.9550304  23.4781957  57.7793407
  75.4029369  23.7600088  57.4400187 104.8760796  60.5364943  29.6993375
 105.0440693  61.4627600  29.8726630 105.1248646  60.0921965  30.5098534
  83.7783241  11.7518735  85.9669018  83.1722450  11.0145056  85.8948231
  83.2130718  12.5169921  86.0732937  91.7148304  67.1338797   9.5450449
  90.7698250  67.0741320   9.6851134  91.8058777  67.3622704   8.6199611
 100.7429409  36.9310832  33.4277344 100.9631157  36.7460084  34.3406987
 100.1124859  37.6498199  33.4743643  41.6711235  15.6006253  86.1776733
  41.1064959  15.5275941  86.9471455  41.9850492  16.5046990  86.1958885
 109.9377251  52.4800014  31.5924263 109.4814491  51.7664337  32.0383668
 110.2969742  53.0142498  32.3007703  27.0125246  49.5059204  25.3454089
  27.4819565  49.8450089  26.1075664  27.5035810  48.7251425  25.0895238
  45.6638956   0.3406046  25.4177070  46.3008451   0.8541344  25.9145117
  45.6407118  -0.5069137  25.8620143   5.9313768  55.7375050  20.6577277
   6.4415991  55.6146574  21.4582348   6.5802574  55.7155037  19.9543774
  39.7983289   0.8460701  62.0117617  40.5647707   1.4054690  62.1377325
  39.8668170   0.1868728  62.7024174  33.4595060 103.8671303  90.8128452
  34.1032696 104.5513725  90.9961796  32.8484201 103.9099407  91.5483570
  93.9159584  70.3009462  27.7164841  93.4105778  69.9004602  27.0090723
  94.1715050  69.5660591  28.2740426 110.2611160  39.9448037   1.8340139
 110.8097839  39.6506596   1.1069141 110.7214832  39.6451926   2.6179269
   5.0860876  67.8035212  26.6370416   5.1802772  66.8513441  26.6637897
   4.1433293  67.9488039  26.5574718  16.9070518  66.6852951  26.2779737
  17.0791471  65.8571720  25.8298445  17.7578390  67.1229219  26.3075852
  44.8346424  80.7835388  81.0808468  44.8503304  81.6166115  81.5519905
  43.9074278  80.5496025  81.0387611   6.1029679  69.4347906  20.0819921
   7.0151609  69.3787527  19.7973955   5.6632304  69.9185801  19.3828416
  10.4338610  20.7472777  77.6109076  10.9375560  21.2442064  78.2555628
  10.3832412  21.3250661  76.8494415  67.5722933  48.8477898  24.2517757
  67.7599812  49.5379400  23.6156154  67.1990967  49.3093109  25.0027418
   2.3949377  44.9796295  17.4680388   2.4102156  44.1033602  17.8529513
   2.7771336  45.5433655  18.1406152   3.8511038  95.3984451  70.8526278
   3.6322081  95.0136089  70.0039721   3.7477684  96.3410378  70.7219934
   6.2664187  62.4963140  21.9021702   5.3478825  62.7293396  21.7671847
   6.2779635  62.0477629  22.7476883  60.0260925  80.1810360   4.7087926
  60.6968927  80.4832268   5.3211164  59.2772722  80.7545948   4.8716423
 106.7596054  58.6310577  43.8536215 106.0529900  58.0167437  44.0525007
 106.3463116  59.3048906  43.3138323 115.6855297  39.9419212   6.7320490
 116.4590549  40.3245211   7.1461678 114.9483395  40.2907896   7.2331214
 104.7141933 104.9446678  87.6767349 104.1787434 105.1387787  86.9074249
 104.0802956 104.7945786  88.3780766  85.0637913  58.9437056   2.7519941
  84.8408699  59.8357153   2.4858144  85.6157970  59.0555906   3.5259506
 100.9217262  53.2797432  31.6625190 101.7882919  53.2641315  32.0687771
 101.0914993  53.1412792  30.7307267  14.6114671  87.4513817  25.0375748
  15.3128648  87.1070194  24.4846821  14.5047736  88.3586693  24.7517896
  20.5349469  94.2604828  94.7788620  20.5327082  94.0377235  93.8479424
  20.0390744  95.0775814  94.8307991  45.7640934  98.7568378  94.0225506
  45.6561041  98.1569004  94.7605515  44.8716688  99.0123367  93.7890053
 109.1160965  51.5665960   8.4640157 108.4658718  51.8736649   9.0958035
 108.6163139  51.0331345   7.8460586  86.6298199  50.2558994   6.0083801
  86.5068150  49.5887709   5.3330755  86.2318611  51.0450363   5.6407750
  12.6912642  49.4065809  85.6008911  12.6743770  50.1146841  86.2447262
  13.4362364  48.8645077  85.8605194  47.4646473  15.5059862  21.0389733
  46.6795063  15.1380122  21.4444017  48.0899048  14.7813237  21.0266328
  56.1826468  20.8807564   5.7117993  56.9133902  21.4956164   5.7765764
  56.3868618  20.1978803   6.3507134   7.9516524  59.7648430  92.2863579
   8.3170003  58.9932108  92.7191925   8.4655958  60.4967117  92.6276207
  56.5576172  11.0657585  15.0869250  56.4027786  12.0099843  15.0605595
  57.0275593  10.9229600  15.9085059   7.1402341  74.8827791  83.7556934
   8.0467850  75.1512909  83.6063576   7.1803367  74.3260050  84.5332623
  80.6701088 103.0377102  87.8125286  81.5144253 103.1948853  87.3898602
  80.4196453 102.1588326  87.5277996  91.6897297  98.2300854  76.9136381
  91.9194603  98.1585407  77.8401041  91.2194920  97.4191189  76.7201519
  94.9233818  55.7290030  75.7641172  94.2795086  56.1914968  75.2276850
  95.4421997  55.2267694  75.1357651   1.6482778  50.7064104   5.6275111
   2.5561392  50.8827686   5.8743238   1.1274733  51.1581373   6.2915415
  74.1801262   5.5009449  20.4253435  74.9446678   5.2821702  20.9581113
  74.4905138   5.4344785  19.5223081  73.7616301  25.0564575  25.1109862
  74.2591715  25.2761412  24.3233156  73.1814480  25.8059669  25.2446127
  29.2571926  63.7427473  57.0743752  29.8235202  63.9353609  57.8216410
  29.5590758  64.3354225  56.3860178  28.8356829  70.9868860  92.6635551
  28.4583330  71.5066195  91.9538212  28.0836415  70.5595446  93.0734825
  10.5954862 101.6341686  81.0794067  10.5045605 102.5834942  80.9972763
  11.5377462 101.4775467  81.0173607  76.4808702  39.6774220  13.5830760
  75.6612539  39.5109725  13.1175053  77.0770311  40.0040960  12.9092002
 101.4846134  92.5189495  77.4198675 101.2629986  91.6075706  77.6109409
 101.9796085  92.8106499  78.1854582  66.4006186  87.4156189  72.2457170
  66.7506456  86.5249443  72.2253609  66.8285847  87.8240013  72.9982424
  11.8692207  97.5013828  61.6899109  12.4860644  97.9452896  61.1079407
  11.0276663  97.9214668  61.5122843  10.9548461  59.9944067  82.6482487
  10.1268768  60.4484081  82.4914742  10.9089231  59.7221661  83.5647678
  91.3417053  28.3447170   0.8220203  90.4666901  28.0200481   0.6094810
  91.2322903  29.2921066   0.9039505  22.5612831  85.7373047  51.3188314
  22.7484775  86.1379433  52.1677637  22.8924704  86.3670635  50.6785488
  21.2632775  87.3540306  55.2868795  20.5501914  86.7210865  55.3712702
  21.1696410  87.9235458  56.0504961   0.9777411  66.3581133  65.8844900
   0.4897634  65.5984306  65.5667019   1.6743706  66.4820910  65.2398443
  99.3662739  51.7652893  77.7650642  99.4889641  51.5781736  76.8343830
  99.1641140  50.9151220  78.1556749  16.5132236  77.2446489  70.1387358
  16.1280155  78.1177378  70.0641632  17.1849382  77.3361397  70.8144999
   7.2607756  59.1826296  75.0237560   8.0317092  59.5288324  74.5742702
   6.8716824  58.5728836  74.3968248  95.9160233  71.0422897  88.7772369
  95.8483982  71.3040972  87.8590298  95.8525944  71.8630791  89.2656231
  86.4295006  28.2692051   2.3220673  85.4823780  28.1307864   2.3274755
  86.7792702  27.5137377   1.8496689 115.7132029 101.1454964  68.7034655
 116.5523685 100.7598209  68.9550304 115.8950565 102.0816135  68.6206675
   3.0241081  13.1137168  13.7689638   2.2615716  13.5546076  14.1436446
   2.8346968  13.0622983  12.8321016 112.6206207  64.9839401  83.2574081
 113.1480503  65.7557487  83.0516052 113.0104733  64.2816544  82.7367973
   3.8567549  78.2119274  49.4528341   3.7292060  78.1937408  48.5043430
   4.0549815  79.1273165  49.6503353  91.0812950  35.9479117   7.9518050
  90.9495163  35.2492690   8.5927159  90.2774143  35.9510136   7.4321860
  16.6077399  89.3012142  70.8720160  16.2244964  90.0362492  70.3933954
  16.9162679  89.6847343  71.6929626  72.9067469  10.4811370  80.7919025
  73.4945393  10.1818895  81.4855671  72.4082994  11.1940551  81.1913109
  98.4128380  91.9188023  93.0469608  98.4489346  91.0033035  93.3240795
  97.5355434  92.0231152  92.6785660  18.9780247  92.9963970  74.1019487
  18.3826828  92.6914883  74.7866631  19.5011020  93.6772442  74.5251131
  75.5898190  28.1673574  10.2821958  76.3502932  28.3645558   9.7353685
  75.9236431  27.5677443  10.9494722 113.7248707 102.8275490  74.8852158
 113.3879471 102.8413200  73.9893770 114.6461773 103.0722523  74.7983885
 105.6782246  45.0905514  55.5231476 106.6066265  44.8964167  55.6520700
 105.2255917  44.5183516  56.1427784  12.6719010  52.9270983  79.9585772
  12.7969563  52.0403671  79.6204901  11.9986033  53.3061171  79.3935537
   6.0203773  13.7018335  93.6307335   5.9348649  12.8169894  93.9856529
   5.9706414  14.2731488  94.3971252  36.0403180  51.3598347  52.8498363
  35.5670238  51.0153580  53.6071730  35.4426575  52.0010376  52.4652624
 113.5910797  87.2189140  70.3068256 113.5616589  87.9277515  70.9494066
 114.0597725  87.5918102  69.5601559  73.1125116  49.2677879  29.8290873
  72.8631020  50.1918697  29.8389626  72.8840494  48.9486980  30.7021379
  13.4003055  64.0389109  56.8954849  13.9598191  64.6641159  57.3562384
  13.9948142  63.5741711  56.3065815  68.5620975  32.2338605  32.9432750
  68.5365295  33.1279063  33.2842422  68.9916086  31.7269301  33.6323142
  17.9296064  68.2201815  70.4437685  18.6546814  68.8440847  70.4789734
  17.1540821  68.7424278  70.6488371  68.7029314  42.9930115   9.9970376
  69.4403219  42.3954582  10.1212049  68.6055899  43.0591679   9.0471005
  45.9647611  24.1553129  94.6969205  46.2612393  23.4455933  95.2666916
  46.3946107  24.9368204  95.0443446   3.1499392 103.1221104  71.1538982
   3.4150645 102.2067928  71.2441349   3.2772747 103.3179474  70.2256393
  88.8237953 103.3883476  81.3869381  88.5720921 102.8112316  80.6659603
  89.3293667 104.0860271  80.9699535  85.0618744  70.6131792  84.3245411
  84.3010139  70.2854776  83.8450241  84.8575974  70.4418516  85.2438641
  96.2541580  25.2707410  11.8809032  95.7860184  25.1944137  11.0494876
  97.1767235  25.3269935  11.6320264 100.3810406 101.5329170  22.9908204
 100.0345421 102.4072742  22.8128576  99.6364880 101.0481548  23.3470201
  13.0050540   3.7851581  78.7446260  12.6644862   4.6790916  78.7782097
  12.6011574   3.3466822  79.4935131   1.2535225 107.2122002  67.9998732
   0.5968212 106.7840576  67.4506283   2.0301220 107.2704506  67.4433374
  71.4282942   7.7889943  83.0782413  72.3743105   7.7224505  82.9484177
  71.0523653   7.5330573  82.2359753  24.7525573   5.9091514  67.5254822
  24.9057198   5.0718623  67.9633427  25.5701447   6.3932139  67.6415396
  54.3488979  12.8582597   4.3590456  54.7319984  13.1827128   5.1740283
  53.4405756  12.6575184   4.5846316  66.2530851  35.9769440  10.5886865
  65.7691336  36.7834353  10.7664335  66.8840694  36.2205839   9.9113905
  73.6305475   5.9632766  30.1768374  74.1882849   5.9947813  29.3995523
  73.2366037   5.0912070  30.1537704   0.7134821  24.9269772  11.1020720
   0.5936193  24.3546557  11.8599057   0.3481573  24.4325495  10.3683746
  68.8089848  25.7334304   3.4734839  69.3588829  26.0607958   2.7616709
  68.6084604  26.5090442   3.9973575  20.4913998  94.3810272  91.8148422
  20.3113174  93.9839935  90.9626865  21.4424253  94.4880486  91.8330383
 105.0561619  29.1137934  33.8328075 104.1336918  28.9195037  33.6669016
 105.0566196  29.5757413  34.6711612  68.7550354  54.1027737   3.7627086
  69.2647314  53.5118628   4.3170241  68.0464363  54.4099808   4.3281677
  63.4279871  42.3777676  14.6634793  62.8363562  41.8340349  14.1433311
  63.3902454  43.2388210  14.2470694  87.6338291  78.8486910  88.8519669
  88.4965706  79.0018988  88.4666920  87.7544022  78.0819225  89.4121170
  19.0100455  88.2549572  72.4041033  19.4697690  88.7710285  71.7418718
  18.5077691  88.8988686  72.9034233 103.8334179  26.5026402  69.1022348
 103.8859940  27.1771526  69.7793627 102.9416561  26.1619353  69.1722870
  82.3078823  51.8886042  11.7553115  81.6614151  51.7140055  11.0713315
  82.5470448  52.8069353  11.6300333 109.5504665  84.3101883  52.2871017
 108.6458397  84.4921589  52.0325994 109.4784260  83.6332989  52.9600430
 104.1244984  98.0893517  56.2524700 104.7101974  98.0212593  57.0064878
 103.3127308  98.4477901  56.6113472 108.4258175  37.1894336  17.1788204
 108.3541775  38.0935431  17.4849069 108.7490559  36.7044139  17.9380989
  79.1605043   9.1394395  72.1773052  78.7942696   8.2706070  72.3423433
  79.8462009   9.2396992  72.8376055  47.5185966  18.8379908   6.9588357
  48.4452963  18.9093256   6.7299879  47.0561981  18.9827454   6.1333251
  19.8453367  76.2279081  90.1736546  19.6968400  76.6999769  90.9929943
  20.6019378  75.6695652  90.3526592  46.0488081  82.7877140  18.7444615
  46.1128473  82.6710987  19.6923697  46.7331839  82.2220993  18.3867776
  24.0985131  58.3511639  81.4856720  24.3625021  57.6681137  80.8692455
  24.2674232  57.9732132  82.3487186  53.8792896   4.6147564   9.7740757
  54.1203928   4.5471656   8.8502073  53.7434387   5.5512321   9.9182624
 116.1769676  23.4214854   9.1023070 115.3438091  23.4676051   8.6333227
 116.0867786  22.6610231   9.6765864 103.7674618  70.8987999  88.8447666
 103.0632114  70.3159666  89.1285992 104.4880867  70.3109884  88.6180210
 113.4871387  95.6871605  65.2534771 112.6181221  95.8978367  64.9119186
 113.3182049  95.2781963  66.1022615 115.5556583  76.7673016  89.8823547
 114.8333836  76.6589355  89.2636395 115.2109814  77.3583651  90.5517387
 111.2109470  73.3233213   5.7839245 110.7058525  74.0961266   6.0367006
 111.5065002  73.5112143   4.8930967 103.2311440  93.8449478  79.2979336
 103.3065128  93.0467319  79.8208094 103.5329247  94.5421219  79.8802662
  82.1362495  21.6163754  20.4487681  81.2288857  21.6174698  20.7536054
  82.6212788  22.0689940  21.1387801 111.6563702  68.3994913  74.1306925
 111.3829899  67.6123953  74.6018410 112.5442314  68.2033443  73.8315916
  45.0585079  24.8355699  83.9880276  45.4956341  23.9900994  84.0896606
  45.7596111  25.4804802  84.0817070  93.9870262  68.8149738   0.3379427
  94.5640755  69.0551710  -0.3870115  94.5574665  68.8100052   1.1065865
  51.8362904   7.7688032  77.5902319  51.3926315   8.4919667  77.1470213
  52.5111532   8.1913871  78.1214666  87.3505592  90.0536442  62.4381447
  86.8950081  90.1979828  63.2675219  87.2867107  89.1099930  62.2908783
  40.6892490   5.7701933  68.6580658  40.6045961   6.2931341  67.8608227
  39.9749613   5.1352090  68.6049652  84.5381355  78.1126261  11.4883685
  85.4918575  78.0471182  11.5367174  84.2408848  77.9447508  12.3826241
   5.0974321  90.0821304  87.3967552   4.7352150  90.0484657  86.5113735
   5.0674146  89.1755581  87.7024555  89.9834919  40.6190252   7.9006445
  90.5071354  39.8236942   7.9979879  89.4400883  40.4551697   7.1298707
  77.9334021  22.3912239  90.6618023  77.1108389  22.6565695  91.0731602
  77.8325224  21.4517355  90.5087757  86.4386654  43.4968805  56.6762018
  86.2336159  42.8644228  57.3648119  87.3909569  43.5875463  56.7101049
  10.3208649 100.8076572  87.4078465   9.7179198 100.0643063  87.3968887
  10.0567377 101.3413525  86.6584206  19.9788976 102.6130676  71.6916990
  19.4745135 102.9926491  70.9721518  20.6993079 102.1519279  71.2620687
  31.8251061  78.3749008  74.4841909  32.5411725  78.5756493  75.0868368
  31.8158197  79.1091824  73.8702059  18.3163285  67.5893497  22.9980755
  18.4086335  68.0205631  23.8476443  18.6306894  68.2357645  22.3659658
  17.7660573  75.9302235  80.3031445  18.6613405  75.6042910  80.2111244
  17.4270988  75.4835463  81.0789108  45.0177622  89.8375988  76.3826418
  45.3941107  89.8531818  75.5026674  44.7662592  90.7455635  76.5516853
  32.1560478  93.2304096  80.7872009  32.2403479  92.8969288  81.6804600
  33.0562210  93.2869244  80.4666901  65.0186253  57.0768690   2.0488408
  64.4857645  56.7701912   2.7824891  65.3315496  56.2757349   1.6287360
 109.4467545  72.6111364  -0.0744242 110.2383327  72.4236774   0.4300552
 109.0571308  71.7520237  -0.2367492  53.8367844  13.6895120  78.9174366
  53.0793285  14.2254722  79.1524506  54.4958735  14.3202841  78.6276770
  29.7913194  88.8334656  84.8975945  30.4317498  89.2373276  84.3119526
  29.0868688  89.4781876  84.9633121  72.2839117   2.2882453  45.8685589
  71.7985773   2.2495671  46.6926861  73.0943775   2.7472627  46.0892010
 112.7863121  82.9683495  65.6816864 112.8147793  83.7620831  66.2159157
 113.0902481  82.2746372  66.2670279  65.4264212   4.7290534  72.9257250
  66.3777685   4.7405148  72.8206587  65.0945234   5.1849431  72.1522665
 104.8770523 109.8204899  89.0387821 105.7592297 110.1917362  89.0520287
 104.8667812 109.2013168  89.7686863  54.9416018   1.2824991  68.3080816
  54.2734337   1.4004391  67.6329041  55.5437756   0.6365079  67.9388714
   3.6422178 101.9528484  91.1598301   3.4514484 101.0231113  91.0356045
   3.5872787 102.3281288  90.2809811   7.9157317  99.4751358  71.8127060
   7.2532356  98.8253784  71.5778875   7.4125934 100.2399158  72.0923519
  69.8765326  47.2085047   6.8052340  69.6715403  46.8279314   7.6592678
  70.1157045  46.4588928   6.2601560   7.0871311  88.6518860  85.3864956
   7.6685435  89.0246677  86.0492325   7.2060680  89.2133236  84.6204185
 108.0527782  56.7814064   5.3483111 108.7789345  56.2980366   4.9542499
 108.4744740  57.4254084   5.9172231  10.2396095 104.6704769  90.1123047
  11.0071039 105.2198219  89.9529266   9.7858703 104.6426773  89.2699432
  95.6480694  85.7495785  86.0357285  95.3877163  85.7491779  86.9568443
  95.4662228  86.6402054  85.7358170  72.1005392  16.4119685  13.5864544
  71.2610006  16.4838850  13.1323195  72.4048567  15.5262947  13.3884537
   1.7263216  70.4561520   2.6169968   1.9430758  70.5711365   3.5422146
   0.8038013  70.7037210   2.5545603  14.8276830  93.7183380  52.8763437
  14.4671822  92.8381157  52.7691793  15.0005293  94.0167236  51.9834137
  59.2642355   3.6054143  85.9725189  58.4197903   3.7083983  86.4113045
  59.1249657   2.8922826  85.3493977  59.3371865  -0.2687274  45.7413292
  59.8983190   0.2127255  46.3492441  59.1555521   0.3547276  45.0380945
  35.0271177  75.9436321  82.0979595  34.8134494  76.3583851  82.9337502
  34.9674821  76.6519594  81.4569092  37.6592469 103.5030174  74.2946196
  37.0694327 103.5653400  75.0459290  37.8251171 102.5653172  74.1974640
 108.9218330  92.2126389  89.4442272 109.4994259  92.8783703  89.0708256
 109.4028091  91.8746758  90.1996613   2.5706398 104.7708321  74.1885519
   2.3092823 104.2429447  73.4340572   3.3613181 104.3433189  74.5176315
  69.7172689  94.0248203  81.6582775  70.1194715  94.7598457  82.1210957
  69.8876047  94.2021942  80.7332039  59.3740129  20.9592390  56.9690466
  58.4769154  20.7339740  57.2154236  59.8200703  21.1117363  57.8021193
 110.9117699  87.0594311  69.0193033 110.2028561  86.7581654  69.5875549
 111.6710377  87.1260262  69.5983648  56.5787458  14.7609949  26.3288116
  57.2638130  14.1198301  26.1395454  56.6342258  15.3901565  25.6095695
  84.7220135  95.3780937  88.4728241  85.1392555  95.9563160  87.8342342
  83.8015461  95.3567410  88.2110786  94.6559811  32.0494199  11.1582386
  94.2947865  31.3605547  11.7161250  94.5526123  31.7149353  10.2673590
  15.5150080 101.8962288  71.4006615  14.6808720 101.9518757  70.9344530
  15.8637977 102.7872467  71.3747168  54.3850183  47.6211929  12.2407329
  53.9994144  46.8324804  12.6221454  55.2851248  47.6292276  12.5662696
  49.1485596   8.6187321  53.3275080  49.5835400   9.3056607  53.8326359
  49.5119572   8.7030804  52.4460030  71.6098261  21.8664527  25.4322863
  72.4424601  21.4748240  25.1684952  71.3211250  22.3565912  24.6624517
  76.4164877  13.9098644  24.0007114  76.4697552  13.2193422  23.3399749
  76.6358757  14.7121358  23.5269380  64.6056461   7.7111775  79.8977327
  64.2719936   7.6805651  79.0010881  64.1732311   6.9802284  80.3392792
   2.4444078  69.7071743  86.6086483   2.2411230  70.5265522  87.0597839
   1.8824692  69.0563726  87.0292664  25.9125757  69.3185711  57.9056025
  26.0138607  69.9737215  57.2151327  26.3682818  68.5459900  57.5714254
  99.5157719  52.3625708   0.5691748  99.1921616  52.6763105  -0.2752630
  99.1862488  51.4662170   0.6339272  11.8504226  59.8290873  10.1326621
  12.2372162  60.6446886  10.4511273  12.2113121  59.7204065   9.2527878
 108.2511234  62.2690630  14.7571230 107.5265598  62.6369762  15.2629662
 108.2159042  61.3295364  14.9367952  65.2906322  81.8195438  10.3686750
  64.7205639  81.5186691   9.6610564  65.0380516  82.7322388  10.5080676
  40.2352619   9.4797164  68.8204479  40.6028080  10.3306723  69.0592337
  39.9762464   9.5792401  67.9043484   2.4375385 104.8679543  86.1937523
   2.4691816 105.4213619  86.9741154   1.6073588 105.0932121  85.7738781
   4.3239126  74.1724014  68.9742327   4.6268076  73.3460665  68.5978603
   3.6554831  74.4829893  68.3635187  57.0239162  28.0493283  61.3952398
  57.2563791  27.4250340  60.7078886  57.8000402  28.6015439  61.4897156
  35.4627562 101.4274502  91.4978504  35.6827736 102.3548985  91.5853596
  34.9111104 101.3848209  90.7167625  39.5979667  56.3584805  83.5921192
  40.1488495  57.1315336  83.4690571  40.1897097  55.6974268  83.9513969
  14.7085714  84.8944187  83.9601898  14.0126252  85.5473804  83.8857841
  15.5177307  85.3925896  83.8447475 100.6230831  60.1499605  16.4596593
  99.6688938  60.0840235  16.4970553 100.9171009  59.8623753  17.3239982
  55.3359127   8.0492121  81.9715595  55.3388262   7.1095288  81.7893028
  55.7454395   8.1273389  82.8331947  97.4147797   4.8659718   8.8687563
  96.7850304   4.1638717   9.0321648  98.2269096   4.5576230   9.2707425
  84.5269871   9.2757827  53.2040119  84.6360016  10.1599991  52.8539944
  83.5792446   9.1606206  53.2729197  87.9446220  53.4302664  15.5800164
  88.3385277  52.9329967  16.2968123  87.1857357  52.9099417  15.3162432
 115.0635529  73.9657402  82.8007793 114.4437122  73.3673048  82.3837757
 115.6651306  73.3936787  83.2773209  24.0008307  92.7680683  60.6796837
  23.5900712  92.0468235  61.1564493  24.2794800  92.3792076  59.8506069
 113.6103058  75.9222221  88.3510590 113.4661293  75.2471733  89.0141964
 114.2769241  75.5514288  87.7728081  27.6787567  83.5185146  92.1006012
  28.4793782  82.9987526  92.0292377  27.4115705  83.4225368  93.0147266
 105.8308983  62.2733068   5.0388235 105.0269318  62.7884960   4.9721146
 106.0602093  62.0687675   4.1322851  12.9391158  95.9037685  84.1688061
  12.5164950  95.2572918  84.7342300  13.7684059  96.0982037  84.6055031
  94.3249035  51.7487431   8.9127451  93.5978508  51.4569569   8.3627635
  94.0324688  51.5762424   9.8077071  81.3519478 102.4639893  67.8576088
  80.8995533 102.6208496  68.6864471  81.9809818 103.1821537  67.7884293
  28.7298417   8.2639396  65.4845285  29.5963073   7.9744458  65.7702923
  28.1915164   8.2249880  66.2750483  20.9540343  28.6226630  12.3131037
  21.8679214  28.6328340  12.0286036  20.5116749  29.2296124  11.7196715
  72.8570080  17.6564157  68.0752707  72.6826477  18.2729495  67.3641348
  72.9280519  18.2053864  68.8561773  84.8966789  57.6111555  22.0028949
  85.2326202  58.3184004  21.4522767  83.9706326  57.8210163  22.1238208
  20.3867912  70.2712870  48.3429527  20.8014870  69.5880461  48.8696766
  20.4061294  71.0487652  48.9009762 101.0082245  24.4780040  14.5187223
 100.1313782  24.6202087  14.8752928 101.5053272  25.2495337  14.7905004
  29.8244071  52.0160294  84.7180176  30.6155825  52.5414610  84.8371506
  29.1187668  52.6586962  84.6453571  35.3235507 100.5684757  78.4760714
  34.4453955 100.2144623  78.3355474  35.6603503 100.0819588  79.2284679
  40.6088114 100.0340366  79.4395876  40.1110554  99.2394447  79.6322107
  40.8188486  99.9652195  78.5082579  61.2150383   3.9990571  77.8853321
  60.9976864   3.3913141  78.5921812  60.4449844   4.5624012  77.8085661
  22.1296620  37.1462798  75.4417562  21.5142751  37.3064446  74.7263002
  22.0820785  36.2021065  75.5917549 101.5488434  76.2907648  84.5918846
 102.0477200  77.0575190  84.8737526 102.1315384  75.5504465  84.7610855
  19.5016265  52.2488260  51.8639851  19.9594033  52.4544191  52.6790953
  18.9227688  51.5211821  52.0913506  15.5080307  65.5202389  64.6654034
  15.6808424  64.8834705  65.3588629  16.3745344  65.7499123  64.3297625
  87.9226494  79.0441132  60.1216841  87.8720188  78.2426023  59.6008730
  87.0794582  79.4747925  59.9810648  15.6440103  76.8769264  74.4775295
  16.0663795  77.1088982  73.6504698  16.1957562  77.2780704  75.1490116
 101.1994171  57.1793079  53.7763119 101.7879486  57.0556164  54.5209980
 101.4067554  58.0549717  53.4500360  13.2233238  77.2763014  55.9125137
  13.4059918  78.1183577  55.4956198  12.7987909  77.5054407  56.7392540
 107.6839733  61.6214228  57.3775721 107.8759956  61.8056011  58.2970476
 107.5921917  60.6694508  57.3380899  11.3602149  68.5413647  81.7552376
  11.4067149  67.6361799  81.4474964  10.4851902  68.8356638  81.5023613
   7.2434407  70.5370188  38.5656953   7.5933808  71.3207769  38.9893746
   6.6230160  70.8715916  37.9181075   0.5744862  82.6592731  58.3664227
   0.0988813  82.6075459  59.1954899   1.4725970  82.8739452  58.6184978
  32.2392011  76.3033104  80.7437897  33.0739641  75.9390068  81.0382080
  32.2607422  77.2155762  81.0328197  30.4646873  40.0060797  74.7884703
  30.2775908  40.9009123  74.5047331  31.0809898  40.1086760  75.5136442
 116.0413074  64.1529369  65.0070286 116.6695118  63.4811544  64.7418880
 115.5565357  64.3565750  64.2071772 101.9323921  57.5557327  67.2228861
 101.6639900  58.1250238  67.9440689 101.6593647  56.6795826  67.4950027
  31.8813920 108.6991024  32.5405979  31.8939614 108.6867905  33.4976363
  31.0426736 109.1027069  32.3172545  15.0662196  94.3111324  63.2531023
  15.0254405  93.3672905  63.0990505  14.6653712  94.6983624  62.4748993
  45.3770971  87.9994392   2.5477806  45.4312992  87.1018982   2.8759935
  45.0742865  88.5109425   3.2980460 106.2146091  69.6376228  91.8254280
 106.9895649  69.9081421  92.3178673 105.4811096  69.8253107  92.4110699
  54.5964956  75.5502510  55.1542664  54.3954182  74.6595144  55.4412985
  53.7680387  75.8835983  54.8096371  26.2813997  87.1748352  64.4366217
  26.3947773  87.1434402  65.3865623  25.3914332  87.5046158  64.3123960
  37.4293876  66.7549133  64.3855286  37.0596099  67.3081493  65.0735950
  36.8751311  66.9189692  63.6225605 107.1395016  58.4854221  70.8008337
 107.6017094  57.6906633  71.0672045 106.5841103  58.2068491  70.0727081
   2.7674940  68.5567331  69.8006916   2.9659790  69.3297100  70.3292179
   3.3925465  68.5946417  69.0767431  70.4361391   2.9753575  14.9608064
  70.0060701   2.9654914  14.1057193  70.1290512   3.7822938  15.3740621
   5.4637152  78.1343365  64.7786808   5.0389218  78.5758829  64.0432739
   5.4292959  77.2049332  64.5522833  34.5396399  61.0891867  88.4281540
  34.4104266  61.5843344  89.2370796  34.4109440  60.1756525  88.6833572
  26.9455361  67.8083038  75.3817129  27.2369361  67.6567030  76.2807846
  27.3184729  67.0812035  74.8832417  10.4796469  83.3077621  68.8637304
   9.6251458  82.9822636  68.5806847  10.6856930  82.7927876  69.6438503
 115.2731514  62.8086996  55.6023264 115.0566769  62.4856567  56.4769745
 115.6633091  62.0556116  55.1586246   1.9151816  99.1974163  52.0964289
   1.7707047  99.6486092  52.9281616   1.0368851  98.9685535  51.7923737
 105.9094810  82.4758339  79.7859478 105.8452129  83.3794498  79.4768000
 106.7233562  82.1488667  79.4026327 105.3739929  38.0186987  67.8527451
 105.5224514  37.1024036  67.6190853 105.9474277  38.1702232  68.6040449
  26.1553407  53.0682039  69.6110392  25.8839655  53.6652613  70.3082561
  26.6576886  53.6164284  69.0082741   1.7494890  67.1126747  74.8551273
   1.6575630  66.1843157  75.0694466   1.5406971  67.1649837  73.9224386
  17.4008298  50.9712934  54.9108791  16.6886425  51.2255859  55.4976988
  17.4187911  50.0153351  54.9562502 115.4782200  54.2380428  51.1175823
 114.7400188  53.9825773  51.6707802 115.0927353  54.3756819  50.2523136
  16.5621638  24.6898389  58.1029463  16.0053504  25.4447508  57.9124165
  16.9052184  24.4238663  57.2498322  13.1609941  70.5654383  79.8980188
  14.0926349  70.3503990  79.9431086  12.7264440  69.8444700  80.3536510
  26.6617274  47.6262808  75.3296137  26.0123372  47.3133516  75.9593773
  27.2089624  46.8617535  75.1499748  81.6375637  74.5389843  52.6785994
  81.0897064  73.7613916  52.7854967  82.3679066  74.4022083  53.2820272
 105.2134037  23.9263892   9.3377000 105.7679176  24.6991944   9.2303425
 104.3265533  24.2773271   9.4187075  59.5885420  30.9301853   0.5800923
  60.0781441  31.5159249   1.1575247  59.5659781  31.3867235  -0.2609167
 103.2850742  75.6232691  88.2361698 103.7285614  74.9865913  88.7967014
 103.8482952  76.3968515  88.2602215  50.9296703  92.7968407  27.3372674
  50.0416327  92.5234413  27.5672126  50.8354902  93.2260990  26.4869118
  97.7910042  82.1042824  81.4925766  97.3353386  82.8520966  81.8790531
  97.1201706  81.4250660  81.4227009  19.0087104  81.3741207  71.0197353
  19.5276165  81.0901928  70.2671719  18.4468842  82.0682526  70.6751013
  14.1520452  90.2618599   7.8950071  13.8207066  89.4268131   7.5646228
  13.8923645  90.9017086   7.2321439  41.7784643  97.8824615  45.6703615
  42.1861029  97.0793438  45.9945202  40.9899902  97.5846004  45.2166891
   5.2040207  79.6091318  57.3881531   4.8501253  78.7972116  57.0251465
   5.5943060  79.3484116  58.2223797  26.2203765  45.0044966  52.3805285
  25.7283258  45.8057928  52.2015238  25.6663084  44.5137358  52.9874849
  29.8053479  67.0160770  70.8585024  29.0447235  67.0004082  71.4393950
  29.7552991  67.8660917  70.4212284  60.9486055  11.0218859   5.4566014
  60.7485104  10.2494216   5.9852719  61.4958477  10.6898427   4.7449106
  15.0774205  35.1528835  81.8003941  15.4892266  35.8224726  81.2542343
  14.4598687  35.6372476  82.3483467  10.7469475  59.2324924  27.8161979
  10.4092443  60.1166821  27.9590225  11.6001403  59.3657732  27.4032426
  74.0041685  84.1334152  85.5201912  73.1633377  83.8618088  85.1521301
  74.3255663  83.3583260  85.9808064  90.5790424  56.8281698  91.0640526
  91.2027931  57.5119829  90.8200073  91.0558701  56.2805223  91.6877079
   3.8757935  36.2218380  43.0230427   2.9731217  36.5387511  43.0543661
   3.8536772  35.3888726  43.4941196  99.4679642  69.1973639  70.4923391
  99.1709137  68.3714104  70.8741665  99.7271538  69.7294855  71.2446022
  93.8117218  75.1956224  70.3288651  94.4474411  75.3569221  71.0260630
  93.6999893  76.0465765  69.9050426  70.0018835  43.8180923  21.2329841
  70.3195763  43.4013367  22.0339918  69.9708271  44.7511101  21.4445257
  41.8719816   4.3259448  73.4198904  42.5991201   4.2304161  72.8047657
  41.1122417   3.9857605  72.9473352 107.8185844  67.2226524  74.8832178
 108.0714226  67.8048944  74.1667652 108.5110760  67.3304558  75.5351973
 116.0232535  68.6270189  81.7481327 116.4937567  69.4465065  81.9007778
 116.0051076  68.5351181  80.7955265  79.9813652  87.5665855  72.6311970
  80.2159595  87.9164886  73.4907150  80.1248360  86.6234207  72.7092600
 107.3080444  46.8820429  78.2555342 106.6784477  47.4446630  78.7064123
 106.7979527  46.1170769  77.9893303  17.0000982  86.3986683  71.7776680
  17.8013098  86.9127464  71.8777370  16.4204955  86.9569302  71.2593699
  89.6997356  68.8043022  67.8897381  89.6471214  69.1445398  68.7828827
  88.8356781  68.9776325  67.5161171  10.3811228  51.4317274  83.2909870
  11.0753763  52.0825815  83.1878662  10.8424497  50.5941010  83.3333492
  22.1983552  45.1897097  36.5707040  22.3404527  44.9971485  35.6439042
  22.5740981  46.0613203  36.6945839 112.2325897  98.7020874  77.0259190
 111.5153599  98.6720181  76.3927460 111.8489075  98.3718491  77.8383017
 111.8945312  80.5719852  86.9914341 112.3568535  80.0774574  87.6681423
 112.2155857  80.2072239  86.1667442  21.4085889 104.6221638  89.7618294
  20.6197333 104.0892506  89.8615551  22.0045805 104.2963409  90.4362679
  23.6939430  62.1837759  63.3430576  24.3549109  62.2973108  62.6600742
  24.1246629  61.6439199  64.0058279  51.9033527  11.6025460  56.8261242
  52.2265053  10.7406795  57.0887852  52.3218441  12.2110450  57.4350786
  28.6114001  59.9642134  61.6477776  28.0024290  59.2404985  61.7948341
  28.2823467  60.6707811  62.2033978   3.9402461  78.0254650  94.0665054
   3.2987773  78.3593178  93.4393787   3.4884694  78.0549288  94.9098682
   0.4857407  56.3162231  52.4918175   0.0174294  55.7063913  51.9217014
   0.3109608  57.1786213  52.1150398 111.6616821  28.2546329  86.3188553
 110.9138966  28.5558677  86.8348885 112.1990395  29.0372515  86.1964130
  18.4819973  59.8310518  90.8036900  18.8999617  60.1435566  91.6061115
  18.1278479  60.6207895  90.3948879  21.9404894  77.7395034  94.6404572
  21.1709314  77.2318030  94.8978424  21.7459684  78.6315942  94.9278032
  22.8993177  19.9947965  53.0853367  22.6163554  19.7826695  52.1958637
  22.0901871  20.0116515  53.5964680 107.4074078  84.1260433  34.4688797
 106.5627956  83.9223194  34.8705912 107.6962852  83.2978821  34.0855646
  96.3304901  65.7360601  74.7331429  96.6650105  66.6198874  74.5808983
  97.1150970  65.1964140  74.8301792  86.0350895  41.5413427   7.2232842
  86.3792038  42.3665047   7.5652307  85.5751991  41.7878389   6.4208043
  93.8923550  72.7380657  40.2461815  94.0680504  72.7027512  41.1864567
  93.3527088  73.5204315  40.1325750  19.8421156  40.0332737  84.2719173
  19.8936093  39.2208529  84.7754574  18.9150190  40.2704096  84.2940235
   8.0367595  27.9735541  65.3173256   7.6749289  27.3192906  65.9150267
   7.5705707  28.7807012  65.5350637  38.0940366  53.7874842  49.5400476
  37.6787233  53.4894514  48.7307739  38.5404229  54.5982027  49.2956924
  91.4076710  32.7498293  41.0374594  91.6820431  31.8332672  41.0669041
  90.7013512  32.7677798  40.3916931   8.5981923  52.1024847  75.6618071
   8.6087936  52.9070854  76.1802101   7.9960501  52.2895002  74.9416113
   9.0342838  96.6031361  -0.0761270   8.2211161  96.9689846   0.2719279
   9.1997850  95.8304405   0.4640479 108.0667782  58.4821749  67.7355385
 108.0777264  57.9454422  68.5280275 107.1812344  58.3774757  67.3875713
  86.1016941  45.6472301  93.1862450  85.9514332  44.7231579  92.9868793
  87.0139599  45.8001041  92.9400349  40.5998755  83.0684185  84.8018932
  41.2266064  83.6647987  85.2114964  40.7592964  83.1615353  83.8626671
  17.3901451  75.9966803  88.3016300  17.9229069  76.5576029  88.8653278
  17.1545362  76.5557766  87.5612640  89.7356892  48.8610888  56.7864370
  89.7667599  49.7846889  57.0359087  88.9818573  48.7965965  56.2000942
 106.7509174  24.0048337   2.7717564 106.2875652  24.7342491   2.3600656
 107.4658394  23.8038087   2.1678379  96.8101692  64.3107891  83.1312752
  97.5383091  64.3754768  82.5133228  96.7570686  63.3786154  83.3421230
 101.7387295  25.4018164  11.8897152 102.6891232  25.3488326  11.9905281
 101.3924026  25.1392651  12.7425671   6.5023047  52.8474808  47.9859209
   7.2447884  52.5051785  48.4836960   6.0478908  53.4243774  48.5998726
  30.1644349  68.5546255  84.8101711  30.8986640  68.1125116  84.3839455
  29.3861556  68.1482267  84.4289207   9.4160289  45.9869242  50.1529598
  10.2002800  45.8902931  49.6127367   8.9978838  45.1263618  50.1242399
  36.7935562  60.3695250  78.5857487  36.7601776  60.6464624  79.5014000
  37.0750999  59.4553900  78.6221123   6.2900668 103.7148762  80.6148911
   6.4023799 104.0393829  81.5083790   7.0644593 104.0277863  80.1473141
  21.8213844  59.0658569  41.3521051  22.0803595  59.3331432  42.2339916
  22.2832704  58.2401609  41.2067556  13.9637804  91.5244675  86.1572933
  14.1132414  90.9651756  85.3950119  13.5154641  90.9583092  86.7855453
 107.4267006 101.5358448  81.2451267 107.3581123 101.7488384  80.3144455
 108.1007195 102.1287060  81.5774727  55.2302217   1.3257003  71.2266636
  55.2559233   1.2876634  70.2705669  55.7102680   0.5476682  71.5103102
 113.1528854  60.3184891  56.5947914 112.4372482  59.7041368  56.7581034
 113.3674526  60.1958895  55.6700373   3.3573547  84.6080112  56.5830231
   3.1016293  84.2293835  57.4241400   3.8060376  85.4216290  56.8131113
  11.9218516 105.9272099  48.8648558  11.6869903 105.1517868  48.3551550
  12.7423215 106.2300777  48.4758377  80.2529526  23.0772424   1.2703291
  80.9232521  22.8222728   1.9043039  79.4760132  23.2533193   1.8009759
  86.9676650  25.8653569   0.6478275  87.8489477  26.0990834   0.3563750
  86.8730283  24.9433112   0.4088748  15.7777715  91.5914154  40.2642059
  15.7028878  92.0951271  39.4537115  15.9305918  92.2497177  40.9420776
   1.4548984  75.2333307  89.6810150   0.7411516  75.8150816  89.4195461
   2.1279946  75.3649569  89.0132904  11.2275755 103.1839943  65.8160830
  11.1882949 102.4210835  65.2393246  10.3949487 103.6344433  65.6744480
  17.7250612  69.5560122  40.7591581  18.0645287  70.4130220  41.0170984
  18.1384337  69.3790913  39.9141407  26.4522266  74.2864799  65.6143141
  25.7881379  73.8180065  65.1085997  26.1850333  75.2044725  65.5681324
   7.7367681  77.8653908  74.2220116   7.6092845  77.0005846  74.6119928
   7.7768701  78.4617376  74.9696684  20.8538723  56.3542223  60.3102446
  21.2716269  56.8212128  61.0338688  20.5790854  57.0444202  59.7066355
  19.7431362  49.1863394  91.5582561  19.9719083  48.3967972  92.0486832
  18.9546359  48.9460135  91.0716915   9.9331909  66.3106537  79.2036533
   9.8905981  65.4173088  79.5447636   9.0346557  66.6344118  79.2672634
 116.2805269  84.8382950  45.6191730 116.8858455  85.5421257  45.3858614
 116.0046266  84.4714165  44.7792244  80.6462669  83.6014462  60.6416750
  79.7421360  83.5131550  60.3400373  81.1507702  83.0387592  60.0542307
   3.6276972  77.6962614  89.6943092   3.6129403  76.8165255  89.3173695
   4.2022592  78.1958008  89.1141510  38.0626225  74.7979784  73.5499430
  38.6749005  74.3910599  72.9369497  38.4861183  74.7119665  74.4040442
  90.5440712  28.1768036  18.0818379  91.0794258  28.1217813  18.8734150
  90.8812332  27.4823332  17.5159144  38.8436031  91.9226551  68.1613874
  37.8997278  91.7968655  68.0638647  39.1823840  91.0495949  68.3594418
  76.1636257  21.7433882  83.6880016  76.0762119  21.9912314  82.7675819
  75.4767895  21.0912776  83.8267136  89.7977543  14.4607723  14.9886334
  89.5444107  15.3067183  14.6192765  89.0614605  14.2135239  15.5480790
  69.6913338 101.4067364  73.6461973  69.1938162 101.5999126  72.8515959
  69.9522018 102.2650623  73.9800501  82.4634552  31.3678432  21.0134220
  81.9892311  31.3816047  20.1820683  82.1821976  32.1648097  21.4628243
   7.1153790  69.5097446  92.5166512   7.4314493  69.6214581  93.4132290
   6.2006581  69.7899246  92.5485039  57.7291918  92.4993324   5.3258830
  57.0886326  92.7898312   4.6766353  58.4749889  93.0873108   5.2062619
  64.2356682 101.1859608   3.1831220  65.1515198 101.2297821   3.4579474
  63.7678909 101.7237473   3.8220304  22.9504061  59.8326588  56.8678474
  23.2290411  60.7159805  57.1093655  22.4082494  59.9571180  56.0888672
 103.0663967 102.1950912  58.0993605 103.6290836 102.3867798  57.3491144
 102.2801971 102.7201080  57.9494286   6.1816692  83.3331966  89.6670055
   6.8967193  83.9218426  89.9087429   6.2097633  83.3023071  88.7107182
  29.1142130  67.7259731  80.4368210  28.6047339  68.2451534  81.0590076
  29.7059321  67.2094393  80.9838963  16.0201943  78.6548901  58.4874964
  15.1100552  78.8904905  58.6674118  16.2530553  79.1708231  57.7156019
  24.0072441  78.2290792  66.8058634  24.7085381  77.8457880  67.3326540
  24.2918301  79.1290092  66.6465855 104.2614937  49.4173479  28.4421563
 104.3312740  49.3658495  27.4888945 103.5078144  48.8678312  28.6571741
 114.5530605  94.3357658  82.6019096 114.7073650  93.8025761  83.3817482
 113.6410141  94.1616631  82.3693562  97.7635384  87.7873802  87.9224014
  96.8945217  88.1686592  88.0476189  98.3192062  88.5301399  87.6862335
 114.2431355  85.9054661  80.8524036 114.5192814  85.9613514  79.9376059
 114.9511528  86.3237190  81.3422966  15.1169813  58.4513474  64.7645378
  14.6112752  58.9484119  65.4075146  15.0776005  58.9805412  63.9678955
 100.8579445  76.5554619  37.3281384 100.4596424  76.8258953  38.1554532
 101.4618015  77.2653055  37.1097088  78.8647366  17.5777435   9.1653764
  79.4551802  17.1802795   9.8054004  78.4133673  18.2675040   9.6519232
  73.9351416  58.4698248  63.6856127  73.8178396  58.6071920  64.6256161
  74.6909571  57.8860092  63.6213541  69.9988890  17.6647937  15.9257185
  70.6340790  18.3619368  15.7621408  69.8917818  17.6567066  16.8768728
  28.4300470  84.9939156  76.1596251  29.0126228  84.7192383  75.4515362
  28.2131410  84.1829395  76.6195250  53.1840229 106.3922787  24.8029160
  53.2060814 107.3323154  24.9819827  53.7877989 106.2738991  24.0696549
 108.3355236 102.7988338  86.5852642 107.7000237 102.0934963  86.4633465
 108.9345741 102.7123165  85.8437252 103.5718441  79.1834259  43.3055258
 104.4104958  79.2355108  43.7639904 103.1832218  78.3631945  43.6095428
   3.9722022  87.9572582  88.7689495   4.6328032  88.1389141  89.4374084
   3.6274898  87.0949554  89.0009785  33.0362916  94.9751663  22.6479888
  33.6012602  95.4378033  23.2668638  33.4629917  95.0937080  21.7993975
  11.1823010  11.5620303   4.3825573  10.4809391  12.0945978   4.0074652
  10.7750165  11.1197519   5.1273662  76.9510126  24.4191694   1.6093576
  76.2898016  23.7329960   1.5188490  76.5628958  25.0468802   2.2189277
  18.9955080  80.7463360  73.7144899  18.0995369  80.8615112  74.0310383
  18.9613521  81.0140896  72.7961349   3.0179918  85.3022766  63.4694052
   2.1434766  85.2685356  63.8571119   3.5307559  84.6758270  63.9801550
  43.7043238  42.6327133  94.5490360  43.1789255  42.9998064  95.2599716
  43.0637121  42.3755550  93.8859177  58.2284260  97.5241280  14.9960208
  58.4418964  98.1634045  14.3163228  57.2776556  97.4267769  14.9431491
  21.3411283  63.5515213  69.0199709  20.4053092  63.4883833  68.8289642
  21.5189338  64.4918871  69.0382671  18.5604846  39.1064477  42.4783468
  18.6837566  38.1610322  42.5633383  18.5451865  39.2620516  41.5340042
  19.7198212  87.5161076  35.2088881  19.7259092  86.5616703  35.2812886
  18.8818419  87.7797985  35.5890036 111.8376446  65.0516415  53.9115286
 111.7317200  64.2593288  54.4380760 111.4231110  65.7411098  54.4302034
  14.2189050  83.5851955  58.4409094  14.5042276  84.4455051  58.7486315
  14.0094435  83.7188148  57.5165176  65.2727842   3.8149178  79.5552397
  65.2308846   2.9774249  79.0936327  65.7059097   3.6102372  80.3839397
 107.4406624  50.0099945  69.8623943 107.5348854  49.4632435  69.0823841
 108.3218575  50.3451824  70.0278187  45.5792618  52.1259737  86.7905903
  44.7824097  51.7368078  86.4302921  45.2901268  52.9558277  87.1700287
  73.9791822  18.2440090  12.3110580  74.0611601  17.5110245  11.7009389
  73.4315157  17.9058242  13.0195248  98.8260078  78.3634520  75.2512312
  97.8698158  78.3704615  75.2946281  99.0354443  77.6053905  74.7056007
  72.7767658  11.8549097  -0.3424755  73.3485174  12.0136416   0.4086139
  72.0354080  11.3693464   0.0192501  23.0896616  68.7815857  52.6635504
  23.1633711  67.8748846  52.3657513  23.5151672  68.7874222  53.5209560
   2.8075022  81.0689449  61.6555023   1.9737697  81.3110542  61.2523842
   3.4365222  81.6970825  61.3005400  75.4303837  14.3536091   5.2950168
  76.1387205  13.8207304   5.6563044  74.8725986  13.7285006   4.8320374
   7.9096049  82.8511620  50.7114553   7.5066668  82.8714848  51.5794754
   7.6250416  82.0184994  50.3347349   4.9375251  69.7685957  41.4196491
   5.3422052  69.3530607  42.1810913   5.1891565  69.2132378  40.6817532
  35.7056642  49.3545675  56.7051935  35.4684997  48.4386158  56.5602255
  35.4162288  49.5383644  57.5988817  37.2625065   2.1452013  39.8748279
  37.3988605   1.2352623  40.1387405  36.9678521   2.5843948  40.6726503
  40.4492378  82.8914261  68.7839365  39.8489261  82.5545979  69.4490671
  41.2937737  82.9492474  69.2307615  42.3614025  60.5974388  76.7883158
  42.6699495  60.3718424  77.6658916  42.2919369  61.5520763  76.7969036
   7.3192531  92.3811340  61.0900974   6.6617054  92.4489689  60.3978109
   7.5034392  93.2879066  61.3351727  72.7748346   9.3742704  62.1383858
  72.5741482   9.4357890  61.2044859  73.6141109   9.8246694  62.2331905
 114.3943501  76.9280863  68.1273365 113.9522457  77.6793194  68.5228348
 115.2611256  77.2578144  67.8902674  93.0525684  82.2452164  66.9016838
  93.0838585  82.2465420  67.8583717  93.0372620  83.1716061  66.6612673
  74.1559887  50.9065533  24.0195656  73.9881563  51.7087317  24.5141125
  73.3006239  50.6577206  23.6693311 103.7110043 106.2543201  71.4063168
 103.6952972 106.8227673  70.6363392 104.5420742 105.7840633  71.3399458
  91.5980148  18.2550585  30.2114105  91.4187813  17.3969328  29.8270583
  90.8898258  18.8136590  29.8909879  21.8324685  65.8025217  60.3421926
  21.3378310  65.1582670  59.8357296  21.3958597  65.8241749  61.1937380
  23.5419703  55.8579493  59.5969677  23.3369279  56.3279867  58.7887239
  22.7306032  55.8879995  60.1039314 109.8625755  91.1365414  79.8434305
 109.3038177  90.9179974  79.0976000 109.6458626  90.4801083  80.5055237
  19.5038655 109.1989278  71.2090492  19.6960404 109.0951004  70.2771044
  20.3636601 109.2462541  71.6270781  20.5909967  74.6186781  71.0289383
  19.9406779  75.1126337  70.5296135  20.5098414  73.7212563  70.7060099
  39.4226885  66.2224150   9.9187565  39.3715715  65.3437281   9.5425558
  38.5277557  66.4158964  10.1978540  59.4740725  63.1199360   0.5568333
  59.0947151  63.9469767   0.2596517  58.7628984  62.4852085   0.4696991
  22.7206945  97.1242428  76.6849995  22.1170402  96.7528725  77.3283577
  22.6458144  96.5469551  75.9251547  83.5062885  72.6876879  89.2785645
  84.3122292  73.2041025  89.2742920  82.9923916  73.0517244  89.9994087
 112.5707626  72.1438742  84.2392826 111.8077374  71.5661049  84.2533779
 112.7949238  72.2671509  85.1616669  90.8790207  70.6207943   4.5851064
  91.2417698  71.2401485   3.9518312  91.3924026  69.8225737   4.4605315
  67.8450298  43.4570074  23.3145475  68.0905771  44.1070557  23.9728594
  68.5661316  43.4692907  22.6851916 109.0921497  60.0589943  71.9230509
 108.2236481  59.8648739  71.5705490 109.5950508  59.2580271  71.7754698
  79.1415358  19.5226550  26.8752098  79.5088768  18.6423981  26.9554710
  78.6614370  19.6572518  27.6922894  80.0027752  26.8345928  13.0435598
  79.6329594  27.6273608  13.4321284  80.9444714  27.0023322  13.0075634
  97.8498840  70.6316900  84.9186516  97.7762604  69.6844769  85.0352955
  98.5322285  70.8966398  85.5354500   1.1855122 109.6073627  69.6536112
   1.5941907 108.9120674  69.1380692   0.3778461 109.2157936  69.9861526
  97.2860241  66.7615175  46.9711590  97.1701717  67.1324921  47.8459072
  96.3981152  66.5558529  46.6786861  14.5107257  84.6490860  73.4630871
  14.1672826  85.4977894  73.7423563  13.8273859  84.2883110  72.8981781
  10.7850897  98.5702896  46.5736198  10.0108480  98.0622005  46.3314819
  10.8318174  99.2638874  45.9156132  96.1157036  52.5427914   5.4988289
  96.2681198  53.4068871   5.8813781  95.5906773  52.7160168   4.7174373
 112.9848003  67.4988127  80.5990219 112.8635025  67.3928213  81.5425682
 112.3400307  68.1600237  80.3474236  83.3925438  46.4757681  40.3315163
  83.9634132  46.5255928  41.0982370  82.8410625  45.7102203  40.4928684
  29.4690061 102.4965668  53.1613398  29.7848582 103.1419086  53.7937975
  29.1318297 103.0193138  52.4338293  23.6496067  88.5671616  71.8897438
  23.1603050  87.8909111  72.3582554  23.9958000  89.1335011  72.5794125
  29.7284412  77.0280504  76.1223745  30.1420736  77.5419617  75.4288054
  30.4604650  76.6786814  76.6306210  22.5291061  78.9535379  84.6167183
  22.0647907  78.4484768  85.2842140  23.4005713  79.0950441  84.9865246
 114.5635223  49.5249462  15.6546867 113.8581276  49.8412991  15.0902653
 114.7034264  48.6192322  15.3783822 113.2460594 107.3871899  75.3655195
 112.7641392 106.7611694  75.9059715 113.0346298 107.1391678  74.4655085
  18.0701816  71.4611673  44.1285324  18.8133407  71.5302706  44.7278404
  18.4220457  71.7271090  43.2790041  87.0190525   1.3912675  76.6573048
  86.1849403   1.4653139  77.1209908  86.7765236   1.1349459  75.7675266
 113.0229378  67.9305029  64.5460796 113.8129330  68.4208107  64.3186522
 112.3785019  68.1971264  63.8904428  71.1692572   5.2590710  67.1176958
  71.0846853   4.3418685  67.3781157  70.2968931   5.5012333  66.8069410
 112.7507687 105.1232433  60.1795959 112.8977489 104.2018223  59.9659920
 113.1948280 105.2484703  61.0182619 116.3982582  81.2405109  88.3338737
 115.8092880  81.2598896  87.5795650 117.0133305  80.5333424  88.1393719
  88.9493942  72.3655605  46.4252472  88.9310646  73.2101393  45.9751558
  89.7581959  71.9513416  46.1244202   4.1829559  82.4080181  78.9697504
   4.6860868  82.2680664  78.1675625   3.9976507  83.3470917  78.9754915
   8.3063138  74.2724323  71.2619448   9.2312175  74.0287542  71.2994337
   8.0512339  74.1054964  70.3545856 115.5338287  99.3724918  65.5408239
 115.7283497  99.6804142  66.4260197 114.6082115  99.5801640  65.4129982
 104.4622135  48.0755472  77.6536846 103.5862160  48.3318424  77.3652744
 105.0375748  48.7574291  77.3069525   0.5480919  84.6531105  74.1924477
   1.1574612  84.4563198  74.9039078  -0.1037158  83.9534283  74.2349529
   4.4610709  61.1599827  79.9411583   3.6951703  61.2506914  80.5080795
   4.7875309  60.2779102  80.1189423  66.6467905  91.7741871  46.0238218
  66.6378212  92.0359707  46.9444847  65.8914232  92.2200966  45.6406546
  78.3881569 100.0430775  93.2567215  78.1465387 100.7225513  92.6272964
  78.6361313 100.5248165  94.0458107  27.0155048  64.8356581  65.7844925
  26.0852313  65.0337744  65.6769133  27.4234176  65.1572752  64.9805021
   4.2138311  58.6135769  77.4386692   3.6687237  59.3918753  77.3231745
   4.2681435  58.2273340  76.5645409  89.4007969  81.2184238  75.9067488
  88.5061359  80.8823872  75.8529568  89.7820663  80.7652187  76.6587257
   7.2411132  80.1278591  89.5557117   7.5250131  79.8998785  88.6704731
   6.2898052  80.2098656  89.4884872   5.4719228  37.0263839  52.8041077
   5.8753514  37.7191854  52.2811365   5.4999715  37.3569131  53.7019920
  37.5578117   6.1231643  34.4180989  38.2852745   5.9984607  33.8086057
  36.7975760   5.7644898  33.9602518 101.5857697  83.4300327  70.8605909
 102.3787212  83.2209778  70.3668690 101.8087673  84.2236805  71.3470364
  34.3851161  65.5262756  88.2724857  34.0908575  64.9328566  87.5814724
  33.8341999  65.3098297  89.0247345  11.5914464  91.1580372  56.9621420
  11.1204159  91.8754292  57.3860693  11.4269829  90.3994751  57.5222874
 102.1639824  72.9405594  69.5260954 101.3951683  72.3861027  69.6592665
 102.7580643  72.7011442  70.2374220  36.8151522  42.4067211  51.7545271
  37.1190691  43.2934904  51.9481897  36.6149187  42.4212027  50.8186197
  24.0616417  60.1064777  49.9207067  24.9465752  60.2887917  50.2367592
  23.4877920  60.5431890  50.5501604 109.7787094  75.8915806  60.3462839
 109.2245388  76.6134548  60.6429815 110.6567955  76.1239481  60.6482840
  23.1136632  83.7225056  67.0796919  22.2675252  83.3195972  66.8848944
  23.5298538  83.8309383  66.2245512  25.8280706  71.2711954  60.1262283
  24.9092650  71.0079479  60.1784992  25.8784485  71.8094206  59.3362904
  43.1229305  75.4772377  68.2597446  42.9705620  76.1905622  67.6399231
  42.6380587  74.7363377  67.8961515  63.7670946  11.2697065  11.8322539
  62.9239988  10.8664072  12.0390701  63.6651611  12.1850228  12.0930934
  34.6476865  81.6923809  88.0857182  35.2838087  80.9774208  88.0656719
  35.0454092  82.3818207  87.5539970  13.1848872  41.3098812  59.4847822
  12.8328955  41.0894966  58.6223650  12.4553919  41.1610699  60.0863838
  17.0655477  89.2222023  81.4376354  16.7431521  89.3757439  80.5495358
  18.0073035  89.3841362  81.3819027  96.6373920   5.3937316   0.6454380
  96.4523888   6.3297331   0.7222975  96.0833454   4.9846986   1.3102350
  95.0235939  80.3616810  86.5060329  95.8650970  79.9055004  86.5072918
  94.7105980  80.2843952  85.6047535 111.8205452  80.4976082  91.4789772
 111.9437504  80.1357841  92.3565483 111.0482788  80.0451946  91.1396217
 108.1504726  74.5793295  50.8981800 108.7938404  73.8716745  50.9372997
 108.4631062  75.1486635  50.1950788 116.1663628  84.9284077  48.2895660
 116.4179325  84.8066425  47.3740768 116.4014816  85.8356953  48.4839344
   4.1967827  75.7146978  73.6046410   4.4872278  75.0832939  72.9464579
   3.2618588  75.5382776  73.7096405  28.5782266  67.6665592  66.8356943
  28.3600044  68.4524727  67.3366404  27.7761173  67.4571514  66.3571548
 100.6409454  38.7900805   1.5309741  99.8016453  39.0836120   1.1764961
 100.4184055  38.0420923   2.0852496  38.0022359  85.7475471  70.7602835
  38.5091925  85.2155018  70.1469707  37.7283645  85.1328182  71.4409781
   3.1668505  68.4340000  52.8823376   3.2438800  69.2385864  52.3695660
   3.7891316  68.5473490  53.6007738  29.9309182  88.3938313  87.5625038
  29.8397636  88.3809280  86.6097355  29.9732447  89.3234921  87.7864933
  99.9997997  37.9546499   8.1114882 100.4201412  38.0341244   8.9677751
  99.1528988  38.3875108   8.2193100  32.2971010  57.7554703  87.4640369
  33.1345701  57.8533983  87.9171276  31.6588044  57.6268196  88.1656456
  10.4758251 109.4540310  93.9566803  11.0296297 108.6734486  93.9718819
   9.7094643 109.1940594  93.4454632  29.6770477 100.7268333  80.3878593
  29.9454618 101.6256046  80.1970577  29.9245310 100.5920410  81.3026333
  18.2460427  70.5687809  74.4925356  17.5365543  70.0840950  74.9143600
  18.7474394  70.9397554  75.2186298   6.5026343  71.1958551  55.7400036
   7.1888959  71.8304586  55.9462929   6.1442137  71.4939499  54.9039984
  14.7324717  79.5035934  78.5666561  15.1187897  80.3071499  78.9149284
  15.3010488  78.8047695  78.8900614   7.4593192  70.4252577  49.0064955
   8.2993686  70.3079796  48.5628843   7.5488716  71.2561560  49.4732141
  12.0787811  61.3649940  50.9056520  11.4040852  61.4623880  51.5776157
  11.6401231  61.6045523  50.0893068  67.7295017   4.4018584  14.1472960
  68.0045080   5.3182137  14.1173553  67.6403618   4.1484046  13.2285762
   9.9932605  76.5222740  84.4282246   9.2937249  76.5281153  85.0815582
  10.6815350  77.0674562  84.8093796  37.0049477 103.7947178  41.9007206
  36.6520739 104.4515705  42.5009251  37.8054810 103.4871960  42.3259401
  12.8142774  82.3508644  29.4509363  13.2671142  83.0127907  29.9734521
  12.8995621  82.6585007  28.5485411   7.9934990  79.5096731  87.1801186
   7.6030040  79.4858742  86.3065147   8.8079023  79.9993324  87.0651817
   1.0211562  16.4802468   1.6854446   1.1549049  15.7741773   1.0531396
   1.7766470  17.0556080   1.5653461 106.2161636  99.0549660  84.1814232
 106.1499023  98.1401920  84.4553280 107.1572399  99.2246437  84.1387367
 109.0233803  18.0406165   7.1091175 109.5521259  18.8317132   7.0050526
 109.6115971  17.3256898   6.8659776  30.5237865  89.5278358  61.5311527
  30.0009251  90.3283024  61.4853048  30.0474024  88.9652252  62.1416903
  19.3322885  92.8936100  60.7952833  18.6723423  93.3327007  60.2587175
  20.1435018  93.3678436  60.6128931  74.0781832  41.7838621   0.6831653
  74.9223995  42.1512508   0.4213268  73.5094643  41.9276047  -0.0732242
 114.0831947  90.9171581  82.3025417 114.8801517  90.3935242  82.2194767
 113.4259701  90.4341698  81.8015480  16.4100134  64.7584438  92.7101612
  16.7216206  63.8728476  92.8968430  17.1577144  65.3222179  92.9084969
   3.6258516  79.0605402  43.4421539   4.4581318  79.0398121  42.9698086
   3.1878936  78.2471466  43.1915283 114.9299526  77.1135712  55.0580025
 115.3743267  77.5391960  55.7912254 115.5645180  76.4759445  54.7308874
  11.7393780  91.4412022  54.1764069  11.6163898  91.5961170  55.1129484
  12.2667229  90.6435585  54.1328049   0.7222913  98.0117702  48.6127615
  -0.1631507  98.0862427  48.2568407   0.6616943  98.3949280  49.4878292
  24.5842648  90.6336308  65.5674791  23.8718367  91.2489700  65.7407665
  25.3565311  91.0462475  65.9542322  85.4136086  85.7685852  65.1461411
  85.7351875  85.0795364  65.7275391  85.4324436  86.5618324  65.6815243
 112.7799225  91.1876965  73.2220507 112.3246098  91.9896030  72.9654026
 112.0789242  90.5601311  73.3981133 101.1865997  52.0728350   6.3467073
 100.8903885  52.9679871   6.5116203 101.6109371  51.8068552   7.1624416
 107.0771599 104.9288845  73.0976915 107.7670479 105.1953411  73.7053776
 107.0505619 105.6277657  72.4441671  28.8129735  91.1386681  70.5977345
  28.7368822  91.8448448  69.9560547  29.7344208  91.1486244  70.8567095
  12.1017206  80.2444649  57.2468472  12.4069357  80.2548313  56.3396740
  11.2981677  79.7248650  57.2232771  15.5961955  91.6627789  62.5490618
  15.6634605  90.7672215  62.2178841  16.4646757  91.8528175  62.9038334
   4.3998033  88.8428497  60.8316660   5.1186210  89.0373230  60.2302456
   4.6436831  88.0097103  61.2349415  -0.2937553 106.9156361  90.9889317
  -0.0947435 107.2138119  90.1013947   0.4405351 106.3470840  91.2208843
  95.0778866  99.1075039  74.5120144  95.0125694  98.1816006  74.7458172
  95.8675957  99.4122505  74.9589062  40.5507469  80.2795792  67.0285606
  40.3342819  80.8379078  66.2818098  40.6240129  80.8845901  67.7666855
  16.8445504  12.3032510   9.6976453  16.5625179  11.3945389   9.5930922
  17.3807359  12.4781144   8.9242375 113.5297966  99.3600082  62.6937675
 112.7687645  99.4502735  62.1202612 113.1653690  99.3708515  63.5788155
  98.4705639  42.6579380   9.8830009  98.2504082  42.6665974   8.9515013
  99.1422367  41.9808054   9.9640834 104.2784023  87.9851723  84.4370556
 104.1344738  87.0941925  84.1182041 105.1487064  87.9595852  84.8347282
   8.5246629 101.5318108  79.4739246   8.7658840 102.3666477  79.0725660
   9.1899639 101.3885689  80.1470470  88.8587284  86.4548588  75.5657673
  89.0108871  85.5653954  75.2464867  89.5586967  86.9743156  75.1702547
   4.5891151 101.0364151  58.4842873   4.9858728 100.3739071  59.0498924
   5.0632274 100.9595299  57.6563168  32.9291821  78.6025143  77.3885250
  33.8456893  78.3334827  77.4507189  32.4326944  77.7981377  77.5392389
  50.7043362  20.0820398  30.6045842  50.4992867  20.5799413  31.3959622
  51.2466526  19.3558025  30.9123182  90.4547405  33.3469415   9.0436232
  90.4087162  32.8594470   9.8660970  90.9537792  32.7792525   8.4563249
  98.3433437  42.6120949  20.5977869  97.5101757  42.4048138  20.1745915
  98.4862518  41.8913174  21.2112093  91.8449688  87.9930019  90.5803967
  91.9312096  87.4596786  89.7902298  90.9573460  87.8169918  90.8924580
  26.3287354  96.6973972  73.0196619  25.5821157  96.5422821  73.5982227
  26.0514235  97.4227333  72.4599981  39.1829538  90.1476574  75.8944321
  39.0828586  90.5599976  76.7524481  38.3137560  90.2060032  75.4977942
   2.6806968  82.8283691  39.8061061   1.8589276  82.5444794  39.4056964
   2.7550083  83.7531376  39.5704842  18.6667681 101.0635471  64.3703938
  18.2359004 100.5279636  63.7042570  19.3127644 100.4789066  64.7667742
  26.8005586  70.8425045  76.2806225  26.4400101  69.9558544  76.2712574
  26.5891457  71.1778402  77.1518755   7.7314985  96.5221024  37.6238179
   8.1645644  95.6710339  37.5576997   6.8001682  96.3121986  37.6930618
  89.0720558 108.1303596  83.1248093  88.5977459 108.2782745  82.3066521
  89.9875736 108.0448914  82.8588200  25.7434916 104.7924805  77.2265625
  25.3925085 103.9579296  77.5373173  25.0847268 105.1152992  76.6117048
 113.3877087  83.8978958  50.7480145 112.8620434  84.3467617  51.4101553
 113.4079170  84.5036697  50.0071621   2.2508752  75.8703279  34.8577809
   1.9957490  76.4147472  35.6025958   3.2022256  75.9634209  34.8077989
 109.5595264   4.5342526   2.1208116 109.1427422   5.3932023   2.0520189
 109.7066593   4.2660952   1.2137976  59.6038933  91.8257332  95.0436998
  60.2301307  91.4024997  95.6310082  60.1480146  92.2753072  94.3971337
  34.1381359  99.4204140  42.9796219  34.4894123 100.2958965  43.1419802
  34.2579198  98.9567852  43.8084316  60.7429552  91.5555477  72.0821810
  61.0381413  92.4230480  71.8055248  61.5120745  91.1605358  72.4928570
   8.4937680  89.9867249  87.6436996   7.7568257  89.5401573  88.0604935
   9.2576468  89.7138500  88.1518936  17.4390495  78.7034798  79.8874569
  17.9629123  79.1074085  80.5792999  17.3347056  77.7937412  80.1662350
  45.8562613  97.1878529  71.4442968  45.0966263  97.4480057  71.9653559
  46.4263153  97.9567623  71.4514732   3.4680599 100.5614853  74.3371153
   3.9479268 101.3891983  74.3664169   2.5916004 100.7814598  74.6528101
 111.0248089 105.7456589  85.4542351 110.3435421 106.2573910  85.8904076
 111.5155792 105.3412342  86.1696434  19.1860926  74.7989798  84.7487259
  19.1045070  73.8623857  84.9286175  20.1268697  74.9701309  84.7920418
   0.3462620  68.7153625  68.5884190   0.2801896  69.5428562  68.1118488
   1.2208975  68.7319231  68.9769697   9.7167736 102.8479671  85.2746964
  10.0558710 103.5304928  84.6955585   9.4635135 102.1376610  84.6851540
  37.5228643  98.0296993  39.9881649  38.3937573  97.6635170  39.8342443
  37.6739836  98.7661552  40.5806446  20.3408098  89.5771027  65.6328678
  20.6766987  88.9089489  66.2303448  19.5033360  89.8403740  66.0143852
 103.0467701   8.2496399  49.3778276 103.9743996   8.0397236  49.4858932
 103.0325508   9.1915584  49.2080688  74.5766020   6.8878108  90.6536198
  74.2508745   7.6265341  90.1393986  74.0801096   6.1350536  90.3325558
  61.0845852   2.0314266  43.1799936  60.6591797   2.4593905  43.9230347
  61.2825489   2.7451789  42.5736952  39.0755391  70.3845596  81.6912651
  38.8592649  70.2400589  80.7700825  38.2335448  70.5640650  82.1096611
  10.2082407 102.6533508  62.5272322   9.3465531 102.3129654  62.2866726
  10.5171728 102.0605946  63.2123852  25.8213043  99.1779613  82.8310776
  25.6985593  99.2070961  81.8822289  26.0082984  98.2584667  83.0202675
  45.2519321  92.2636414  54.8909426  45.0573349  93.2007408  54.9055290
  45.6436157  92.0870209  55.7462883   3.3349964  72.2964478  77.9478073
   3.6735308  71.5185022  78.3910131   3.1118983  71.9927692  77.0678997
  36.8927002  40.3987932   5.7222092  36.5610480  40.2719545   4.8333049
  37.8130054  40.1401186   5.6736666  25.0156879  80.9095669  66.3733292
  25.9190822  80.7092667  66.1284018  24.7038865  81.4934158  65.6818581
 107.4820709  17.2311568  63.1847668 107.1410275  16.4741123  62.7085304
 106.7767715  17.4745262  63.7843895  53.0668259  90.7830143  90.9825897
  53.7904119  90.1961136  91.2021542  52.3134947  90.4187393  91.4473724
  67.1065807  31.4303589   7.7324247  66.3351107  31.0392523   7.3224211
  67.2941494  30.8628154   8.4800500  98.0385399  94.8430157  76.1766529
  97.5564003  94.8430157  77.0035601  97.3948002  94.5673943  75.5240679
  17.1755364 109.1605541  56.5788174  16.3921550 109.3752713  56.0724163
  17.1821502 109.7989606  57.2919941  11.0429311  85.9079170  68.7635136
  11.4806724  86.0759640  69.5980072  10.7314980  85.0055313  68.8338709
  15.6633425 109.5750713  44.0829754  15.0602686 108.8571835  43.8901806
  16.3373268 109.1797543  44.6358728 110.0167084  63.8830090  25.7790732
 110.5023384  64.6515703  25.4795599 110.5849552  63.1427145  25.5662513
   9.5432830  99.1457653  75.0182724   9.6616399  99.9020100  74.4435310
   8.9335883  99.4492245  75.6908941  13.8574553  94.0031528  77.8924322
  14.4367111  93.4491730  78.4156990  13.0191720  93.5410786  77.8930902
  28.0142450  97.9511833  92.0755672  28.5054970  97.7185726  91.2876606
  27.1177983  97.6714420  91.8902111  42.4641943  89.8381710  59.6921396
  42.9230356  90.6761551  59.7510242  41.7770624  89.9864769  59.0424585
   0.1926817  75.4149008  64.9390984  -0.1700103  76.2846756  64.7712183
   1.1403861  75.5347109  64.8779869  55.1491547  78.2849789  64.9778414
  55.8718920  78.3483267  65.6022358  54.4781876  78.8710976  65.3278446
  78.3544636  20.7129574  57.3496389  78.7490702  21.5800500  57.4427319
  77.7685738  20.6343627  58.1024933  10.4230714  70.3327370  70.5463076
  10.8697307  69.5593643  70.8907223   9.7858459  69.9836397  69.9231672
  24.6867990  82.5523472  71.5876150  24.5599055  82.6082706  70.6405115
  23.9476633  83.0353451  71.9572353  17.4618781  99.4659233  62.7199984
  16.9297051  98.6837959  62.5740528  17.1517825 100.0921154  62.0658159
  33.0497575  53.9892244  93.8158703  32.3537374  54.5175028  93.4250927
  33.7661791  54.6070385  93.9617252  91.7206478  11.2156260  70.5804586
  91.8651772  11.0566354  71.5132284  92.4418163  10.7607925  70.1454020
   6.7363781  96.8731594  64.3830776   6.7787504  96.0455513  63.9040184
   7.6287538  97.2174168  64.3458462  94.7325134  19.0705752   1.5222925
  94.3331718  18.2281852   1.3051793  95.4441738  18.8504410   2.1233886
  53.1564856   7.7641851  29.4707084  53.2759190   8.7117565  29.4068694
  52.6668549   7.6387161  30.2835751  14.9045146  66.2152624  88.8122082
  13.9774692  66.0547829  88.6359501  14.9776173  67.1684408  88.8605785
   6.1667359  77.8715086  85.1147366   5.5136150  77.2119808  84.8808765
   6.0445726  78.5686207  84.4702530  11.7268634  45.3275013  69.4618511
  11.1229634  44.6224642  69.6952152  12.5860322  44.9066401  69.4312811
  27.5230789   2.7226940  58.6143875  27.7597809   3.3460245  59.3011665
  26.7368722   3.0942434  58.2143116  37.6962614  88.2608032  55.8785009
  37.4984193  87.4508095  55.4083872  37.4757409  88.9569092  55.2595997
  46.2889579   0.4382313  87.1001339  46.0556737   0.4105557  88.0280590
  46.2546721  -0.4755508  86.8171883  30.0819111  83.8097191  69.0874767
  29.6745420  84.1012287  69.9031401  30.3832245  84.6160030  68.6687374
  40.5170679  62.5443697  68.9609051  39.8620629  61.9270706  68.6351156
  40.0073099  63.2922792  69.2723703  24.6792865  42.1609688  75.9581566
  25.3108644  42.4868822  75.3169727  24.4593334  41.2811756  75.6518650
   4.5337501  80.2709961  71.5110779   4.3322453  79.9142933  72.3761702
   4.5399877  79.5081186  70.9329653  50.7445955  88.1286907  41.0503483
  50.1621771  88.3560181  41.7751503  50.4709148  88.7019539  40.3343248
  45.2338314  29.6019745  72.6183033  46.1036062  29.9931312  72.7003050
  44.9509573  29.8304892  71.7328691  39.0766287  85.4792786  66.2874603
  38.6203003  86.1972237  66.7262745  39.8586464  85.3318787  66.8193913
  75.4618454  92.6035309  56.5337086  74.9741650  92.0570850  55.9174347
  75.2316380  92.2565269  57.3955822  61.9961405   1.0959073  74.6952009
  61.4133310   0.8956355  75.4276323  62.0627022   2.0507896  74.6962500
  42.3888493  95.7284164  90.1852322  41.7072201  96.3010406  90.5369568
  43.2035875  96.0736752  90.5502224  67.4083185  89.5481586  81.7624664
  66.6481209  88.9951134  81.5822792  67.5680351  90.0111103  80.9400272
  58.3155918   1.8674831  40.5438042  58.5960388   1.6101013  39.6655464
  58.7252426   1.2255707  41.1237717  54.3252420  94.2589855  57.1055937
  53.7863111  94.7468185  56.4828491  53.6982012  93.7422943  57.6116323
 102.0104504  92.0858860  68.2308006 101.8107510  92.8481770  67.6874161
 101.2173653  91.5511894  68.1940794   3.2589537 106.3651562  51.2016678
   2.8577194 107.1410465  51.5931177   4.0383604 106.6974258  50.7562971
  39.6600795  87.9887867  37.9889894  39.1644311  87.5944042  37.2713351
  40.4299116  87.4280739  38.0848980  33.9710474  88.4543991  67.1755505
  34.0341544  88.7940979  68.0682182  33.1470108  88.8092327  66.8419504
 109.7469234  10.9644139  75.8481503 109.0279675  10.8842432  76.4749718
 109.3238354  11.2271190  75.0307131  41.5992832  64.1559887  62.1168089
  41.7903471  65.0918150  62.1796942  41.3223886  63.9082575  62.9989576
  62.9770136  12.1889377  26.7230892  63.4283876  12.2320867  27.5660777
  62.5697565  13.0496228  26.6251349  38.4745073  77.4867678  77.7656412
  37.5288939  77.4228430  77.6316261  38.7916756  76.5890884  77.6665974
  57.8391743   8.2138407  93.1237984  57.3523092   9.0363300  93.1758404
  57.2490740   7.6147282  92.6665497  30.3465748 101.5779781  59.2214823
  30.9002233 100.9321499  59.6603489  30.1659536 102.2349739  59.8937702
  35.2694011  73.8515425  73.4245205  36.2245369  73.9057016  73.4563494
  34.9915695  73.9857149  74.3306351   4.4893071  87.0693111  53.5777426
   5.2737832  87.6027679  53.7052107   3.9522788  87.5750256  52.9677534
  -0.2316492  87.5958824  58.2045603  -0.3802481  86.7004013  57.9008150
   0.6916910  87.6132965  58.4562969 102.5141525  33.7137771   6.4077580
 102.1980572  34.1439080   7.2023046 103.4224319  34.0038896   6.3235039
  63.5120583   5.2178121  81.1722660  62.8218746   4.8056152  80.6526756
  64.2544889   4.6175656  81.1034966  80.1591015 102.9064560  76.8746948
  81.0349178 103.1969738  76.6201544  79.5661926 103.4513092  76.3571787
  58.8317823   3.7178734  61.0664511  58.1423235   4.2917505  61.4004326
  59.4492769   4.3100524  60.6372070  54.7047138  12.6520967  25.9810281
  54.0175390  12.8592682  25.3477001  54.9300385  13.4951735  26.3743210
 115.1096249  50.3936148  61.7374372 114.7298813  51.2038803  62.0772886
 115.7341099  50.1213217  62.4098253  19.5172894  90.3603840  77.0780849
  18.8550746  90.9414387  76.7038059  20.2652264  90.4366016  76.4856195
  34.2236519  93.9791775  75.8906221  34.3669915  93.0900097  76.2147522
  34.7482061  94.0303040  75.0915861  20.8055258  83.0672836  57.0171356
  19.9350309  82.7844810  56.7369699  20.8752894  82.7658463  57.9229498
  36.5676951  84.6333408  56.7915535  37.0117044  84.9063015  57.5944090
  35.7693577  85.1609135  56.7681313 115.6113434  97.7900791  81.6143036
 115.6526184  97.9420185  80.6701374 116.5267849  97.7311993  81.8876648
  54.0508223  24.8226452  62.0351982  54.6151972  24.9574947  61.2739277
  53.1812096  24.6714401  61.6648722  77.2924662  29.4906330  17.5926328
  77.2990084  29.8775530  18.4681225  76.8756723  28.6371231  17.7110875
  24.6139431  60.9717131  52.8038454  25.3790021  60.5076075  53.1437302
  23.8694167  60.5587339  53.2412910  15.9043705  94.5487499  76.1215019
  15.2295339  94.5359230  76.8002224  16.0826385  95.4782772  75.9785414
  23.1820226  62.5816631  66.3087034  23.0187821  63.5247326  66.3229656
  24.0716982  62.4874163  66.6490316  30.6050801  87.3255730  71.4919662
  30.2536488  86.8918896  70.7143736  31.0181403  86.6219807  71.9925308
  37.8193045  84.8626709  62.7879477  38.5305810  85.3384304  62.3590326
  38.0065203  83.9408875  62.6104689 114.0073013  82.2324181  77.1957397
 114.0138626  81.8778229  78.0848169 113.0793858  82.2918320  76.9684172
  11.6469181  57.1391535  64.2653799  12.0208991  57.4152660  65.1021194
  10.9039474  56.5857220  64.5060825  60.2918816  77.1531200  68.8176680
  61.2357092  77.1815634  68.6607742  60.0373697  76.2599564  68.5859203
  52.6966095   9.0219766  48.6348391  52.5883818   9.9560952  48.4561205
  53.6433411   8.8822889  48.6142159  34.2261338  92.5616741  66.8625212
  34.5705247  92.1630001  66.0633469  33.7221384  93.3155632  66.5561199
   5.2699149  86.7642403  68.8151312   5.2805728  87.7213383  68.8063049
   5.9413958  86.5231133  69.4532537  43.6385059  80.2645969  89.8186111
  44.2073393  80.6102276  89.1307163  43.8691854  80.7713032  90.5972385
  48.3853340  98.7148380  86.7106056  49.2980909  98.5025406  86.5155792
  48.0257416  99.0154362  85.8760071  76.8368483   0.4267750  51.5985155
  76.5141535   1.1905455  52.0768023  76.3491249   0.4362740  50.7749462
  24.7465229  68.8729191  74.2413044  25.4940939  68.4352541  74.6485138
  23.9885020  68.5631371  74.7369576  93.2526302   0.7678984  58.7091494
  93.8042831   0.5425548  59.4582319  93.1889343   1.7225653  58.7371874
  71.3231945  13.5597539  65.2802896  71.1726856  14.1260350  66.0371923
  71.9679070  14.0312898  64.7528124  12.3206377  82.3206997  54.0351772
  12.4965572  82.9525757  53.3380318  11.4236391  82.0286274  53.8729525
  32.8079414  75.8799744  73.2423162  33.4223747  75.4236269  73.8171577
  32.3035812  76.4430046  73.8295555 114.0444088  89.4449139  71.8531275
 114.6595383  89.0581989  72.4762630 113.5900116  90.1222420  72.3541117
  36.2298322   6.5705496  73.9217806  36.8613005   5.8537042  73.9818859
  36.7605901   7.3409212  73.7191534  34.1487527  97.1789265  73.5313320
  33.8322139  97.4349880  72.6650333  33.7563682  97.8164959  74.1277981
   4.8092422  98.1295490  79.4559526   4.2260820  98.8748455  79.3121481
   5.3290516  98.0739498  78.6541176  22.4373221 106.9521904  55.3623867
  22.7128291 107.2626400  54.4998646  22.0344877 107.7164173  55.7745886
  23.5973191  13.9880550  84.7734261  23.7119150  14.2519462  85.6863689
  22.9194021  13.3129191  84.8025513  30.2103241   1.0948361  47.6523352
  30.9549434   0.6324662  48.0370331  29.5563419   1.1186875  48.3508873
  24.2940450  53.4856367  58.7803364  23.7436390  52.9464626  59.3482924
  24.2320704  54.3655729  59.1519642  33.4457898  98.3195496  79.6362686
  32.9448223  98.1093025  78.8481951  32.7858853  98.4017563  80.3247452
  31.2155986  73.6209631  76.6493082  31.2539577  73.4650850  75.7056618
  30.7127023  72.8829288  76.9937325  96.9886303  33.8716459   5.7418048
  97.1602726  34.5868468   6.3543886  97.3905277  33.1048656   6.1501688
  46.6668177   4.8872074  65.2486944  46.6752148   3.9552715  65.0303888
  46.5809202   4.9091813  66.2017775  35.7351303 101.4278603  54.8985624
  36.1802053 101.8150234  54.1447401  35.0978446 100.8244324  54.5165014
  28.1106806  81.5719700  70.9444141  27.3911262  81.1995602  70.4347229
  28.3205748  82.3924732  70.4983854  11.5664685  71.5469217   0.9419085
  10.7035267  71.3341379   1.2972797  12.0311594  71.9575691   1.6710582
  23.3648205  88.4157658  64.9929190  23.9279699  89.1417885  65.2612162
  22.9708910  88.1043911  65.8078384  86.3733196 104.4506931   1.1222835
  86.2669182 105.0336552   0.3705746  86.4324188 105.0389290   1.8750909
  18.3532643  72.1780968  72.0231295  17.4990380  72.6066208  72.0769739
  18.3364999  71.5221119  72.7200031   6.4364105  15.6869221  81.1977863
   6.2104023  16.3532853  80.5488586   5.9375334  14.9145520  80.9317112
   6.8329644  57.8635406   3.0574673   7.5431746  57.3429966   3.4327936
   6.5593898  57.3722124   2.2828808  37.2708368 100.5610561  59.1860437
  37.1147895 101.4495373  59.5061588  37.6068759 100.0878048  59.9471903
   4.5687091  78.2168388  69.9308825   5.1237005  77.4824381  70.1933098
   4.4610918  78.1099606  68.9857721 116.4579201  77.4825096  36.4419913
 115.5879211  77.8571272  36.3041544 117.0417500  78.2401276  36.4793587
  27.0445251  95.1624870  32.2032857  26.6150141  94.6272945  32.8706074
  26.5556169  94.9820900  31.4003801 112.1758652  85.1089191  61.5247869
 112.4692154  84.2528248  61.8366861 111.2850475  85.1951599  61.8642664
  58.6977053   8.1601626  59.8082733  58.4141207   8.9771986  59.3980742
  58.2843924   8.1695390  60.6715870  49.1990042  78.4577894  65.4982233
  48.4830856  78.6598969  66.1005926  49.9861479  78.4915733  66.0418129
  36.9339919  89.9978065  53.6954498  36.2003803  90.0009632  54.3102980
  36.6752076  90.6144714  53.0106306  79.5841217  76.4607763  75.3147268
  79.6254349  75.7445002  75.9483433  80.4940891  76.6024446  75.0537205
   8.2383662  98.6174679  93.7989902   7.7833557  98.8451290  94.6097755
   8.3760232  99.4558525  93.3580780  32.5428462 105.7673359  86.8561459
  33.4095740 106.0362434  87.1606255  32.2468710 106.4922142  86.3055229
  45.0108480 106.6501427  69.1249800  45.4370975 106.3139439  69.9133444
  44.7072124 105.8677292  68.6646843   3.1733826  83.9219952  44.5021439
   3.0063441  84.2697334  43.6261272   2.6574340  83.1167698  44.5425892
  47.7616024  88.0277252  56.1042023  47.3936701  87.9012966  56.9787741
  48.3410835  87.2765160  55.9772587  67.4985504  73.7292099  12.1475840
  67.1111059  74.3674183  11.5485775  66.9146633  73.7274170  12.9060733
   6.9820625  71.7197704  21.9549584   6.7778379  70.8676815  21.5696359
   7.4170643  71.5107536  22.7815914  15.5544412 108.6737633  83.2965469
  15.1638627 107.8901005  82.9098225  15.5951154 109.3019009  82.5754261
  33.3769941  10.5329061  90.4724026  33.8438869  10.4631531  89.6397018
  33.5959005  11.4062595  90.7973003  60.2368069  90.1818371  54.9269199
  60.4062510  90.9424019  55.4828548  60.2435017  90.5305004  54.0355015
   0.7367004  81.5085983  51.5822792   0.4822611  82.3578358  51.2213135
   0.4284190  81.5313339  52.4881935  27.6984572  87.4938297  77.4857998
  28.0233598  86.6419601  77.1942616  27.2271943  87.8422260  76.7289829
  27.5117683  94.7841167  74.4983053  27.1835279  95.4551792  73.8998365
  28.4451962  94.7191048  74.2965221  51.9411945 102.4804688  34.4432259
  52.4389124 103.1481552  33.9713049  52.5077963 101.7090225  34.4351482
 104.2165279 107.1810246  62.4654770 103.4293270 106.6804504  62.6798916
 104.0297031 108.0664539  62.7774811  46.8936300  91.5715694  87.6184273
  46.1527729  91.8081856  88.1764317  47.6627350  91.8784523  88.0985641
  23.3801079  77.5698233  89.3762589  23.2957792  78.4964085  89.1514206
  23.2293987  77.5379229  90.3209877  23.5888243  66.5256071  58.7753391
  23.4121513  67.4662733  58.7882805  23.1023288  66.1802149  59.5238447
  17.1287870  77.6441193  54.4531631  17.1964550  78.1177044  53.6240816
  16.7392957  78.2751846  55.0583744   5.4818135  95.4552841  92.5939465
   5.2862537  94.6029186  92.2047806   5.3138256  96.0834980  91.8915558
  21.4737892  93.2975101  75.9331369  21.9709086  92.9596138  75.1881981
  21.5397501  92.6105976  76.5964842   9.4980323  45.5283451   4.9286953
  10.3275728  45.0595236   4.8375723   8.8800180  44.8644066   5.2344340
  29.0639615  85.8278370  66.0064602  29.1227388  85.8198833  65.0510979
  28.4289122  85.1420784  66.2130690  99.0491962  85.2845955  42.0090818
  98.3331585  85.3987789  42.6339674  98.7819767  85.7927132  41.2431574
   4.8230922  47.7512598   6.0838062   5.3364140  46.9724894   5.8687514
   5.4206562  48.4825850   5.9278840  55.7359409  10.4671717  50.5985737
  55.1689672  10.9510589  49.9980497  56.6035366  10.8506048  50.4701757
  38.6763310  97.5878906  58.2752371  39.4718909  98.0010128  58.6108637
  38.0372548  98.2991600  58.2315016  18.7783527  90.5207729  46.4613676
  19.2581010  89.9676418  45.8448267  18.2585824  91.1025906  45.9067917
   3.1622040  71.1523294  70.9472752   2.7935460  71.3256216  70.0810814
   4.1096967  71.1742306  70.8130741  56.6893101 108.6109352  66.5415096
  57.0115614 107.7596092  66.8375349  57.4359608 109.2001915  66.6488457
  12.2024918  95.8131695  74.7277164  11.5365744  95.1755524  74.9850512
  12.5212562  96.1737442  75.5551291  19.9172068  95.8895779  61.7038631
  19.4424665  96.3388538  61.0045767  20.6574655  95.4736900  61.2619543
   0.9984605  72.4825859  83.9006996   1.5203989  73.1418467  84.3580723
   0.5227383  72.0288038  84.5964050   6.9723934 107.5086212  64.5538425
   7.0603740 108.4552765  64.4427681   7.5130296 107.1345615  63.8581276
  10.5007654  83.7916708  94.7756434  10.8908087  83.0189729  94.3669464
   9.5637709  83.7092400  94.5982133  32.1603894 100.6267071  45.7322264
  31.8927979 100.6930351  44.8155880  32.1544695 101.5297985  46.0494137
  30.8399439 106.0247898  89.4173050  30.9131551 106.9790554  89.4013786
  31.5297747 105.7217598  88.8269329 100.7799911 100.1260090  49.8548794
 100.7680702 100.3462124  48.9234304 100.0370598  99.5336246  49.9704742
   5.9585279  75.8627081  53.3807993   5.7607961  76.6749048  52.9144573
   5.3139591  75.2354383  53.0532408  46.3918352 101.2812042  93.3200932
  45.9236908 100.4479122  93.3720589  45.7025337 101.9449806  93.3423710
  24.0403390  93.6759186  42.4002075  24.3727899  94.5446873  42.6259136
  24.8116469  93.1097317  42.4276686  28.4007430  74.4907045  75.2356529
  28.9192343  73.9026213  75.7847929  28.7848711  75.3552580  75.3813410
  78.4402704  64.1260529  38.6092329  77.5247574  63.8592339  38.5262942
  78.8681984  63.7571526  37.8365636  29.8773098 103.6888599  77.0835781
  29.3571353 104.2251873  76.4852428  29.8746276 102.8173065  76.6878414
   4.3845060  98.8010693  51.1626863   3.4997195  99.0959167  51.3782120
   4.3285474  97.8456020  51.1763334 112.3069763  65.0813580  42.8203726
 111.4125824  65.4130220  42.7410078 112.8258133  65.8477306  43.0647230
  26.7046070  97.1985054  76.6106510  26.8996739  96.3781929  76.1575842
  26.3331127  96.9262123  77.4497461  25.5058622 101.9470119  78.2801771
  24.8374915 101.9276905  78.9651155  26.1120462 101.2451553  78.5171890
  13.8949835 104.0362549  66.3121462  13.0647385 103.9871311  65.8383179
  13.7655294 104.7380638  66.9500589  18.4453869  68.5191488  91.1428738
  19.2508221  68.5735846  90.6285381  17.7636433  68.8455391  90.5555725
   9.0223169  96.9264507  44.9347639   8.5312462  96.2324429  45.3745747
   9.7106397  96.4657116  44.4550085  60.3967667  21.9768643  73.0462122
  59.5815849  21.9952536  73.5475826  60.3609800  21.1525345  72.5609922
  35.8328533  18.7719095  33.9925742  35.5122304  18.4798968  34.8458958
  35.9388804  19.7184563  34.0876579  62.9007816   5.2362847  95.3073311
  63.5045052   5.6897384  94.7189999  62.8116655   4.3607861  94.9307823
  19.8643553  85.7161522  71.1612415  18.9409757  85.5132389  71.3110065
  19.8596323  86.6045856  70.8050251  34.4337749 107.5796604  94.4194794
  35.2065468 107.3011017  94.9108696  34.3962836 108.5273075  94.5490837
   9.1672719  85.6688213  41.9900036   9.6244091  86.4951706  42.1462107
   8.6768168  85.5102348  42.7965593  42.7373314  22.9012918  76.2689209
  43.4646130  22.4285603  76.6736603  43.1518269  23.4638953  75.6147766
  17.4254417  42.6608944  41.3993931  18.3211410  42.3313046  41.3264227
  17.3481488  42.9447651  42.3102617  50.0336409  85.0506687  59.1884995
  49.4104004  85.3217697  59.8625278  50.8888340  85.1134396  59.6138716
 106.4755344  81.7870426   4.8753706 107.0144558  82.5744057   4.7989231
 105.7019997  82.0725250   5.3615570 116.2136173  55.8805084   4.7853065
 115.7718945  56.6294527   4.3850672 115.5157089  55.4017019   5.2324092
  23.7126303  64.3505049  47.0742178  23.2225204  63.7129116  47.5933552
  23.1414533  64.5438814  46.3308525  52.1691990   2.1604741  73.6450768
  51.3769293   2.5995973  73.3357096  52.8873396   2.6638010  73.2614565
  87.0204830  16.8689442  67.6112413  87.3550606  17.6602924  67.1892738
  87.5584888  16.7706645  68.3968163  21.8500733  88.3457565  92.7257729
  22.3312330  87.5415993  92.5307178  20.9370446  88.1308460  92.5349236
  32.8256345  84.1691589  57.0672035  33.0883718  84.5116806  56.2128735
  31.8689871  84.1985321  57.0531273 115.8100297  70.7151794  16.4816451
 115.3848608  71.5710354  16.4271486 115.9710986  70.5868435  17.4164283
  18.7194443  93.9862156  43.5478544  19.6455288  93.9477921  43.7868595
  18.5065246  94.9193001  43.5636520  79.3397141  15.6331348  77.1396494
  78.8207531  16.4099610  76.9312000  78.9811659  15.3214586  77.9706287
  69.9834967 101.3701630  70.7444334  69.7217751 100.6621933  70.1557875
  70.1510668 102.1136093  70.1652479  66.3894796   5.8562899  59.4067907
  66.9433498   6.2339503  58.7235355  66.1893892   4.9744961  59.0927267
  56.7301893   4.5370305  90.4421902  55.7974577   4.7412220  90.5096436
  56.8133354   4.0684184  89.6116924  97.0838642  27.2235918  86.9087696
  97.5970268  27.9825497  87.1860409  96.3909721  27.1502352  87.5650787
  58.3772425  43.2996297   1.0150874  58.1425337  43.3307099   0.0876296
  58.1890635  44.1803288   1.3394130  44.0764380  28.2201862  55.6158781
  43.2471848  27.9054904  55.9757900  43.9229965  28.2742357  54.6726036
  20.1453519  77.3569298  75.4497528  20.2417493  77.5757456  74.5229006
  20.8131027  76.6898823  75.6090784  31.5656877  71.8574715  93.3921337
  31.6286421  72.6017714  92.7935696  30.7253981  71.4506340  93.1808853
  11.2416315  90.4374695  80.3279305  11.8525410  91.1537552  80.5010128
  11.4124739  90.1913738  79.4188166  50.8228159  13.4972835  88.9490700
  49.9276304  13.8290894  89.0182209  51.3125372  13.9903915  89.6072865
  56.9866371  82.7441597  56.0964632  56.5733290  81.9221401  56.3604450
  56.5997314  83.4028244  56.6732597  59.8169756 101.1773586  74.5646286
  60.2563429 101.8744946  74.0776157  59.2498922 101.6379547  75.1830912
 103.1411552  38.9783621   6.0264021 102.3318100  38.9491773   5.5161756
 103.8343334  38.8218498   5.3851235  92.3664474  12.9252601  93.3053684
  91.7231369  13.5165131  93.6962795  92.6263237  12.3464179  94.0220547
  38.6394048 106.1707211  55.5314207  38.5751343 106.1283779  54.5773220
  38.2291842 107.0041656  55.7623577  41.6791201  95.8403683  54.6521711
  41.2090683  95.4714203  55.3999424  41.0638809  95.7668686  53.9225769
  59.8021030  98.2372665  44.5928812  60.7062340  98.3819580  44.3138838
  59.2719173  98.5648251  43.8663530 102.2902203   4.4791168  35.8550692
 102.1184921   4.5995158  34.9211287 103.0105495   5.0800085  36.0455608
  38.5865068 106.4559364  60.6381702  38.7615061 107.0798492  59.9336576
  38.7339282 105.5979061  60.2403355   2.0856467  93.0465984  79.7446394
   1.1721480  93.1526279  79.4791031   2.4701688  93.9159393  79.6323299
   6.4044619  89.2129040  59.0742302   6.3344508  90.0561142  58.6266375
   7.2003967  88.8180637  58.7181139  17.6513767 109.0379238  67.1725178
  18.3288944 109.2622948  66.5346670  17.6905203 108.0837536  67.2378778
 114.5989513  50.8997297   9.7470617 113.6708641  51.1043692   9.8611593
 114.7271919  50.0876808  10.2373290  33.8219452  87.5229168  87.1094418
  33.7809324  87.9852962  87.9465485  33.1167054  86.8774986  87.1575165
  40.2301121  77.8813171  61.6705942  40.7658863  77.8643084  60.8775711
  40.8373928  78.1381702  62.3644686  15.7365966  93.4438133  87.1751213
  16.1620450  92.9093456  87.8456306  15.1311851  92.8440285  86.7392635
  30.5809784 103.0829430  69.7151566  30.7000899 104.0153694  69.8957396
  30.8210731 102.9848385  68.7937689  27.1219635 105.4554749  82.1936131
  26.3563704 105.9036446  82.5531101  26.7969537 105.0214863  81.4047718
 112.7624702   8.5061210  74.6678352 113.1040859   8.5842764  75.5585766
 111.8268490   8.3406037  74.7837973  25.6768847  95.7640171  66.7461300
  26.4287829  96.3472176  66.6423798  24.9642992  96.3391972  67.0247459
  31.2799859  61.4313555  80.3948402  32.1983409  61.5275002  80.1426315
  31.2111712  60.5300379  80.7096767  63.0509043  94.1829872  58.3463430
  62.4920082  93.4281063  58.5307646  62.4930239  94.9416447  58.5179281
  16.1787653 101.2212849  84.4913006  15.6652451 101.4108658  85.2765274
  16.3368547 102.0784855  84.0957642  27.2656894   6.6785687  63.8271332
  27.8330207   7.2233164  64.3726778  26.3918257   6.7940956  64.2002916
  26.5093112  78.4879684  75.2467155  26.3960814  77.6353312  74.8266888
  26.3729620  79.1218424  74.5425510  26.3113093 108.9702988  83.9892578
  25.4810572 108.5817146  83.7137413  26.6873217 108.3292294  84.5924759
  42.6489592  89.6649170  66.7394161  42.8135204  88.8053131  67.1270132
  42.1021652  89.4823933  65.9752607  83.7672520   7.0656395  55.1814032
  84.4195175   7.7206689  55.4298353  82.9384232   7.5443691  55.1724577
  38.0802011  77.1809435  56.8758774  38.9469314  76.9749784  57.2260094
  37.4877715  76.5889883  57.3393965  61.1495113  24.1321301  67.9290390
  60.2407074  24.3637776  67.7376032  61.5924358  24.9731851  68.0416393
  95.0637245  94.0056229  84.4540501  94.5334244  93.7211704  85.1984310
  94.7088051  94.8635101  84.2210388  54.9887562  42.6727390  10.7157767
  54.9886799  42.4050093  11.6347718  55.8723402  43.0081606  10.5640996
   6.6680473  93.4599304   8.7820315   5.9523720  93.7759590   8.2305181
   7.4570763  93.6153221   8.2628798  66.9857502  24.7052693  78.8620710
  67.5685310  23.9468336  78.8990545  67.4340534  25.3770804  79.3758059
  68.9604664   6.0935324  88.4376812  68.0152225   6.1601198  88.3023453
  69.3399525   6.3028920  87.5842285  23.3479190  87.3943043  80.8119106
  23.7977457  86.7123985  81.3107967  24.0289545  88.0387020  80.6190968
  19.8418796 101.5623188  87.4668694  20.6439614 101.1365128  87.7695084
  20.1453233 102.3429489  87.0034409  16.3899922  88.5495949  53.1085539
  16.4582157  88.8964939  52.2190380  16.7746413  89.2299843  53.6611366
  20.7693791  27.6598930  86.0387135  21.5006971  27.8883886  86.6124725
  20.7292175  26.7040801  86.0709763  38.8145065 103.3376408  70.3408432
  38.9868212 104.2129993  70.6876612  39.4023371 103.2576370  69.5896530
  34.3242931 102.8842258  61.0275745  35.2154589 103.0642414  60.7281590
  33.8176513 103.6446762  60.7425261  26.5981460 104.3117905  73.6010075
  27.0833850 104.3968296  72.7803135  25.6870556 104.4776630  73.3588600
  20.0568891 103.2684708  80.9432411  19.6254086 103.6780930  81.6930771
  20.6468654 102.6216793  81.3303089   5.4097843 101.5787697  86.3092518
   4.8857594 101.0903168  86.9441128   5.9704375 100.9180737  85.9025764
  40.0787973  39.1417217  47.4004221  40.6917858  39.3789649  46.7045832
  39.5862222  38.4024596  47.0439243 100.6714821  22.4166870  61.8467188
 100.9682560  21.6136241  62.2747946 100.0378036  22.7934337  62.4572468
  58.5503626  31.5766549  68.2031965  59.0918970  31.7650604  68.9696646
  58.8887739  32.1578908  67.5221109  45.1153612  78.8731384  63.3851004
  45.0212097  79.4141817  64.1690874  45.6830025  79.3841743  62.8081656
  23.2101822 102.7074814  66.9609070  23.2451797 102.2948837  66.0979080
  22.4219561 103.2499409  66.9352484  49.7002888  64.4417286  61.4202881
  48.7435293  64.4596481  61.3975096  49.9119425  63.9793491  62.2312403
  15.0846100  81.3370800   0.6352752  14.8403966  82.2539520   0.7615106
  15.1589274  80.9847260   1.5221536  18.3494902  67.4800158  73.7079000
  18.2869446  68.1470680  73.0242586  18.9739525  67.8402376  74.3375969
  45.7784224   7.0003843  78.4110165  45.5353832   7.6583397  77.7596664
  45.0547743   7.0048743  79.0375471  32.4586296 108.0975151  45.7681417
  31.7694569 107.4769306  46.0051012  32.3632002 108.2118797  44.8226023
  10.8478844 108.8807297  38.0399013  10.3775895 109.2169571  37.2770071
  10.3537810 109.2106342  38.7904072   2.4977550  67.2371292  14.6471977
   2.4333437  66.5347958  14.0000427   3.3139920  67.6879406  14.4309664
   8.4825259  70.4920721  52.1174622   8.2302910  69.5711946  52.1852398
   7.6531625  70.9695959  52.1364307  56.5351391  25.7753873  89.1432381
  56.1431551  25.3018403  89.8769569  56.6971064  25.1019001  88.4826279
  76.9190598  11.3686311  66.2630510  75.9922743  11.1621070  66.1419916
  77.3777866  10.7590425  65.6849480  90.2295494  41.2127018   4.7159180
  89.8407936  42.0634985   4.9190205  89.5078659  40.5909824   4.8101690
  74.4183874  23.3256388  74.2819929  73.7171888  23.6515450  74.8462057
  75.2246904  23.5847712  74.7280407   7.8820068 100.7792854  56.9552422
   7.8813171 101.7255974  57.0992136   7.2641075 100.6459236  56.2364578
  89.2890263   4.1469884  92.7023697  89.1409397   3.7540549  91.8421936
  90.1599979   3.8430133  92.9578018  46.0728836   6.2156516  67.6203251
  47.0070028   6.2913299  67.8150702  45.7012939   7.0521349  67.9004145
  25.7957363 105.5060863  94.1810036  25.4470062 105.9873772  94.9313259
  26.7407441 105.6532097  94.2203045  81.5154934   3.1317997  86.7955875
  82.0016956   3.9329526  86.6006660  80.9704304   3.3596608  87.5487232
  63.2748890  12.3744774  94.4387150  63.5837317  11.6967225  93.8374710
  62.7674675  12.9703712  93.8876534 112.9363441  78.7413216  49.8407269
 112.0898914  79.1426468  49.6440411 113.3449650  79.3388414  50.4670048
  58.9265871  92.5273514  75.1456642  58.9208031  93.0899620  75.9200382
  59.6583319  91.9275856  75.2908182  20.6045222  83.6740017  87.1891689
  21.1720109  83.5752392  86.4246845  20.5756855  82.8009033  87.5804520
  51.2454653  84.8043823  56.7534971  50.7521677  85.1963615  57.4740744
  51.6455460  84.0226841  57.1344519  88.7813663   0.8325148  79.1870165
  88.3670521   0.7902367  80.0488663  88.0523491   0.7876509  78.5683441
  81.9520664  31.9067240  91.7116070  81.4786053  31.1075211  91.4806557
  81.4482689  32.6102877  91.3024426  63.5300636   9.7951549  84.4234085
  63.1829500  10.5286837  83.9157867  63.7330055  10.1713419  85.2798653
 104.8993206  21.4660668  44.4579315 105.8347034  21.2652802  44.4892788
 104.5445442  21.0801363  45.2588177  31.7100406   0.8023205  71.2692118
  31.2709928   0.7541005  70.4200077  32.0296860   1.7029808  71.3227797
  57.8494263  26.9578934  46.7416525  57.7020454  26.0840344  46.3798809
  58.0046701  27.5110269  45.9760284  51.9399023  19.3897641  67.9419518
  51.1806440  19.1246569  67.4228382  52.5297880  19.8015463  67.3105240
  62.9196882   1.4989543  81.6535282  62.9592562   1.6500184  82.5979042
  63.3369303   0.6464317  81.5296459  23.7752414 102.6606941  80.2884960
  23.2576537 102.7502155  79.4882965  23.1902122 102.2189426  80.9039879
  63.8240242  28.7311649  91.6637516  64.2227364  28.1368804  92.2994328
  63.2324171  28.1763124  91.1554432  22.9627204  35.8641338  53.1412506
  23.3035159  35.6206369  52.2805548  22.0356607  35.6282616  53.1072712
  87.8618336   9.1509646  33.0232024  88.5467339   8.9032090  33.6443019
  88.1991196   8.8734674  32.1714592 104.9161625  61.5555334  10.0107598
 104.0572071  61.1337948   9.9873155 105.0019646  61.9720554   9.1532177
  71.4422655   1.7291501  93.0961704  72.3892879   1.6774866  93.2254410
  71.3219404   1.6053791  92.1546650 113.7193680  18.3818817  85.9285069
 114.1904545  17.9582596  85.2109718 113.7269592  19.3122804  85.7037163
  26.1496472  48.6233044  47.6646900  26.0038567  48.0332136  48.4041309
  26.9494677  49.0979195  47.8910971  90.9050465  16.7979479  63.9193106
  91.4386082  16.7476940  63.1262064  90.9086227  17.7264392  64.1519547
 106.5252113  32.6131725  26.0495830 106.4708328  33.5135531  25.7292843
 106.9417953  32.6890850  26.9080281  10.9435189  32.8627682  62.9849005
  11.4236557  32.6201391  63.7766266  11.2378490  33.7523794  62.7894640
  43.4591389  46.6625500  51.6691685  43.8063240  46.1346054  52.3881769
  42.5139856  46.5138531  51.6975164   4.2281109  86.9221210   7.1521628
   3.4052852  87.2192383   6.7636925   4.4376624  86.1154175   6.6814697
  14.4923341  68.0924988  59.7943592  13.7715328  67.5701857  59.4424105
  14.2201936  68.3055115  60.6869936  31.1682892  89.0585613  57.4502134
  31.9998598  88.8194180  57.8595209  30.5699468  89.1941547  58.1849480
 114.1837883  57.3993778  68.7831783 113.7831688  58.2416010  68.9985800
 115.1243496  57.5768709  68.7741613   1.4075503  14.9108040  63.3471775
   0.8959159  14.2927039  63.8691139   1.4465339  14.5144558  62.4767637
  96.8067360  79.3114471  62.2135925  95.8915710  79.5596170  62.0827627
  97.0060539  79.5933008  63.1063795 115.4058361  33.3902645  66.9028759
 115.3257179  33.2681394  67.8488636 116.1139870  32.8004122  66.6443539
 111.3504314  15.6835651  76.9826651 111.7882061  15.7517791  76.1341763
 111.2317944  14.7431576  77.1160460  28.0978990  65.6565952  91.4880657
  27.5842190  64.8981237  91.2104225  28.5466242  65.3645182  92.2815132
   9.9050558  27.2016501  89.5534229   9.9466044  27.7741790  88.7874508
   9.0421087  26.7910480  89.4990158  81.5590382  77.8490019  24.2469597
  80.9558296  77.7658081  23.5084152  81.9197464  78.7316847  24.1633439
 110.6145287   5.1202428  21.6038156 110.3420734   5.4563743  22.4576402
 111.5275669   4.8613346  21.7285776  80.8907890  48.5989237  23.8638830
  81.0345745  48.8690233  24.7708559  80.2500534  47.8903294  23.9237046
 107.3526287  41.7521191  76.3678837 108.0302429  41.4895868  75.7448626
 107.0067024  40.9267235  76.7074203 108.4622765  17.8859794  69.2745781
 109.1559505  17.8807092  69.9341393 107.7259731  17.4444413  69.6978378
  31.5055323  11.5239644  71.8459892  31.2293673  10.9360456  72.5490665
  32.1315742  12.1168864  72.2616196  47.1705055  30.1044464  49.4163799
  47.6450205  29.6244955  50.0951338  47.0888472  30.9926462  49.7637510
 115.2434063  82.7084541  74.5165920 114.4718075  82.5994682  73.9607239
 114.9207115  82.5617409  75.4057360  11.9872832  53.0669451  38.5876131
  11.7595315  52.6354074  37.7641225  12.4205446  53.8778496  38.3212495
  28.1760883  32.9138041  59.3796968  27.4829388  32.9299474  58.7197590
  27.9312897  32.1984577  59.9667120  21.4859676  30.6004310  23.7748694
  20.6774402  30.5456114  23.2654500  21.8808198  29.7324467  23.6916232
  99.4527626  43.1983709  45.9631157  99.2709160  42.6279449  45.2162695
  99.1679573  44.0661573  45.6766367  19.6706426  70.4096413  70.4076815
  19.1244197  71.0459709  70.8691597  20.2339792  70.0398970  71.0875130
  10.7276320  36.2476921  84.1816711  11.0197067  35.5476475  84.7655106
  10.9815502  35.9520030  83.3074188 110.8157063  40.0522566  42.4959993
 110.1045132  39.5743442  42.0693350 111.1423779  39.4495010  43.1639862
  18.5063934  50.8061504  69.1487885  18.7397301  50.9751892  70.0615931
  17.6328063  51.1849260  69.0507936  23.4700298  47.7951908  37.2865939
  24.3363404  48.1595659  37.4681640  23.2476759  48.1279373  36.4170718
  97.9231930  72.9406214  54.5918655  97.9201508  72.1732140  55.1639748
  97.0613766  73.3373642  54.7187328   4.9283132  72.1869278  65.0119543
   5.6832010  72.6662016  64.6703863   4.2672169  72.2591972  64.3235064
  57.4204636   9.4957417   4.2125121  57.9044628   9.4549859   5.0373250
  57.4001551  10.4270911   3.9924946  35.5315995  52.1701860  58.9031458
  35.8461690  52.6631069  59.6609783  36.0639477  52.4871302  58.1734991
  89.2329693  58.9131355  54.8421383  88.3956242  59.3742085  54.8921299
  89.4509411  58.7130451  55.7524633   2.5812915  57.9959202  47.6047277
   2.4511427  58.3819771  46.7385530   3.2673851  58.5303974  48.0045366
 114.8424816  27.7051401  17.8741610 115.6786823  27.2587013  18.0071914
 115.0534534  28.6358690  17.9480863 106.6749191  21.0064936  76.3175678
 107.2725487  21.4867735  75.7445049 106.0728455  20.5642557  75.7191086
   5.0362772  38.3829856  55.1997185   4.1746235  38.2224941  55.5844593
   5.3390700  39.1888881  55.6181288 113.3046436  39.5397115  54.3598127
 113.4616280  39.3702149  53.4309101 113.8098526  38.8660192  54.8149300
 102.2547340  49.5039511  77.3560905 102.0057869  49.3681383  76.4418650
 102.0512104  50.4237700  77.5256395  29.4110680 104.1903973   0.6813131
  30.0827336 104.7760296   1.0307901  29.2241645 103.5850811   1.3988701
  16.0234249  27.9073572  91.4220238  15.3569591  27.2624588  91.6590023
  16.1063933  27.8279066  90.4717350  11.6748869  74.8576689  66.7736435
  12.5480378  74.8274660  66.3825846  11.0822225  74.6434879  66.0531521
   6.0570496  27.4634218  69.0285635   6.5619403  28.1271887  69.4983816
   6.0720199  26.6990042  69.6044779   8.5216153  43.3937836  48.1646109
   8.4874332  43.3254623  47.2104645   8.6398399  42.4927187  48.4651756
   5.7160074  51.3353014  78.9390230   4.8200980  51.6146994  79.1274786
   5.7586098  50.4346418  79.2603111   2.9601529  42.2436857  88.7675667
   2.7125227  42.7786016  89.5217419   2.4943468  42.6386404  88.0305004
  89.1015720  44.4936991  56.3886976  89.5322990  45.1549101  55.8469343
  89.1392517  44.8497772  57.2764063  31.0201049  41.8926620  58.7049532
  31.8989325  41.7869806  58.3406353  30.5245280  42.3292732  58.0121326
  94.3953419  68.6449385  89.4896889  94.9120712  69.4416237  89.6101665
  94.4603443  68.4565973  88.5534477   9.3849057  59.8411274  57.7312565
  10.0973392  59.4193697  57.2508478   9.6449578  59.7772169  58.6502361
  90.7471561  46.0806227  54.7668076  91.2329483  46.6960335  55.3159142
  91.3410759  45.3381968  54.6559381   8.6838615  57.5418663  93.7019825
   8.1683552  56.7457628  93.8312244   9.5605862  57.2265148  93.4825802
   7.4013287  50.5387926  82.8778458   8.2442933  50.9720469  82.7439308
   7.5892287  49.8365021  83.5005093 102.5790691  65.5017519  67.4025536
 102.3102665  66.4155102  67.3075342 103.4311104  65.4563856  66.9687366
  11.1887896  60.3440762  21.3410473  11.4738393  60.2814007  20.4294276
  10.2328348  60.3527451  21.2930250  35.8501291  50.4467201  67.8259468
  35.5033183  49.6604729  67.4043226  36.0869336  51.0233736  67.0995665
  21.3400269  64.0492010  78.1609201  20.5454540  63.5168123  78.1228924
  21.8388844  63.7906551  77.3859835  98.1780720  13.2942617  81.7640972
  98.2232380  14.2451799  81.6643620  98.5672855  13.1246555  82.6219845
  10.7093787  63.2361937  30.4110408  10.6247616  62.4236679  30.9099174
  10.6087840  63.9293814  31.0634232 107.2332001  51.9871759  88.1054688
 107.5238609  51.1008739  88.3204651 107.3793030  52.0650625  87.1626949
  36.9061923  35.2882981  76.5895700  36.6311002  36.1705804  76.8388367
  37.0313787  34.8323488  77.4218416 111.0463619  67.3827887  34.1486955
 111.5346813  66.9878626  33.4263372 111.5718555  68.1398487  34.4074202
  12.5880504  61.2895489  74.1928244  12.0088995  60.5384731  74.3220472
  12.1341097  61.8341780  73.5497475  87.0861721  32.1149158  28.4020638
  87.8560066  32.1964622  27.8390908  87.4433899  31.9350863  29.2717147
  56.0234880  81.7429066   7.1531314  56.0828114  81.1528301   7.9044807
  55.7473278  81.1813736   6.4288038  23.1930447  22.6135969  32.3700571
  23.2708621  22.5747848  31.4168167  22.8257346  21.7643380  32.6151586
 107.4668121  36.5404868  19.7529125 107.5258541  37.0725226  20.5464411
 106.6177082  36.7684031  19.3743646  91.4121819  67.2637129  86.2786674
  91.8721199  66.6160965  85.7445431  91.0473061  66.7590475  87.0055866
 106.1798191  36.5710187  81.7886448 106.3173008  36.0404873  82.5734138
 106.5585995  37.4227977  82.0059872  99.9205685  33.5493398  86.7923737
  99.0567207  33.6893249  86.4045429 100.4995441  34.1359377  86.3056374
  45.9966516  57.7614784  79.1004086  46.4161253  57.8703165  79.9538898
  46.3018560  58.5090923  78.5864496  10.7854998  20.1230812  42.9641771
  10.4611766  20.9193850  43.3848286  11.4341772  19.7759140  43.5764885
  37.3477697  25.3233671  46.8122339  38.2135510  25.4656267  46.4295912
  37.4931812  25.3686643  47.7572393 113.0706501  47.9296160  58.0187464
 113.8249779  48.4399509  57.7241468 112.8784466  47.3424435  57.2876406
  22.1877313  42.8171730  74.9180079  23.0793333  42.7638531  75.2621508
  21.6983128  42.1644640  75.4186821 109.9720860  30.2742290  62.8831673
 109.0279007  30.4176426  62.8184891 110.0706577  29.3221331  62.8777838
  97.0023727  33.6031342  38.5612273  96.3296223  33.5221744  39.2373061
  96.5531635  33.3738804  37.7476668  34.2062926  46.8717384  57.8132486
  33.9486718  47.7913141  57.8784275  33.4202862  46.4244556  57.4996281
  28.9540434  39.4177699  16.8034792  29.0708876  38.9816546  17.6475072
  28.1671143  39.0173101  16.4338720  45.9281778  35.1581311  49.7352886
  46.5641499  34.7715759  49.1333389  45.1294661  34.6483254  49.5996761
  16.1163700  56.3755131  56.1035824  15.2025926  56.0905647  56.0966158
  16.3344753  56.4579535  57.0319510   5.7426983  57.4426460  50.4125881
   6.0082465  58.0699635  51.0850430   6.1279976  57.7806568  49.6041822
  48.0170107  16.5873265  50.6396341  48.9350939  16.4458430  50.4086876
  48.0437946  17.2410333  51.3383341  30.9712029  38.8058615  67.8058481
  30.2440238  39.2448711  67.3645878  31.7412853  39.0372634  67.2865677
   1.7222682  59.9621296  66.4585924   1.9127865  60.6213284  67.1259689
   1.8979074  60.4044056  65.6280661 104.1265297  16.8908167  28.0151963
 103.7779713  17.7574587  27.8062296 104.0528297  16.8262219  28.9673662
  17.3777092  48.8788605  58.5396910  16.4837468  49.1655779  58.3529902
  17.2726142  48.1489801  59.1499901   8.2893205  22.1209383  37.9123521
   8.3780211  21.7542720  38.7920785   9.1202509  22.5692320  37.7548122
  26.3594770  25.4714203  46.9198227  25.9819198  25.0516391  47.6927853
  25.6300879  25.9514332  46.5276384   5.9141660  40.3117132  37.6666021
   6.2631416  39.8896098  38.4516335   5.9656864  41.2486839  37.8554583
  21.0312915  58.1154537  78.8659096  21.2958241  57.2945261  78.4507751
  21.0172987  57.9167652  79.8021555 115.2414417  72.1800518  60.6065941
 114.3865490  72.4197865  60.2489281 115.3569221  72.7593231  61.3598156
  96.7784688  -0.2757083   4.5127419  95.9560391   0.0463570   4.8816782
  96.9813868   0.3386773   3.8073450  28.2216954  59.0708017  64.8244667
  28.6553049  58.8725662  63.9944553  28.6615014  59.8594189  65.1420975
  34.2646861  21.8398309  57.6187038  33.6163259  21.7085123  58.3105278
  33.9253116  21.3421750  56.8747997  98.8585091  55.2449942  44.5536280
  99.2650032  54.7536659  45.2674866  98.4261036  54.5783806  44.0198851
  99.2380333 102.9874802  85.2771854 100.1139069 102.8873158  84.9042892
  98.7181377 102.3039246  84.8544788 111.8999672  28.3514404  80.1063728
 111.8881989  28.8426900  80.9278107 112.4685860  27.6021004  80.2835560
  24.2619467  42.2709417  66.9591188  24.7685504  43.0660629  67.1245480
  24.4854283  42.0271015  66.0608816  20.8638811  72.4875546  68.8074064
  20.7717752  71.7025089  69.3472672  20.1417565  72.4338198  68.1814003
  17.6602340  55.0684166  31.0119581  18.2829535  54.8983097  30.3051925
  16.8094087  55.1138210  30.5757618 112.9703522  65.9544659  66.3205528
 112.9326725  66.6748571  65.6913853 113.4514999  66.3128138  67.0664215
  13.4481144  34.7628188  55.0190639  13.6797190  34.4337082  54.1505718
  12.9928231  35.5874777  54.8491240   7.8720272  40.3768396  70.6832981
   7.2724330  40.9771538  71.1263990   7.4509662  40.1944304  69.8432589
  22.3881340  72.2858906  44.0146303  22.8661084  71.9977140  43.2369852
  21.9837856  71.4884520  44.3564224  11.1404502  54.1453028  61.2342215
  10.4096293  54.7000837  60.9615421  11.1179280  53.4045982  60.6283474
  14.6325219  75.1448584  47.8344774  13.7203133  75.0282764  47.5689268
  14.6090710  75.8683729  48.4607410  22.0831370  15.9815311  49.1862297
  21.2449765  16.3632011  48.9253664  21.8471837  15.2672648  49.7781563
   6.5784335  47.2842503  53.1335068   6.1183727  46.4844322  52.8788137
   7.2908843  47.3630953  52.4991322 114.5755768  51.4854288  53.2068825
 114.1137791  50.9171534  53.8233566 115.3113651  50.9564829  52.8985691
  45.9900618  90.6927586   1.7523855  45.1562405  91.0241604   1.4190014
  45.8279800  89.7649670   1.9231679  14.4596994  81.4446068  44.5457554
  14.7603428  80.6214333  44.1607428  14.0271091  81.9022751  43.8248968
  16.6639364  66.6188669  81.5810490  17.5831461  66.3522339  81.5950298
  16.3418818  66.4144468  82.4589634   8.5445112  31.3312793  39.2824531
   9.0723026  31.3891149  40.0788975   9.1447550  31.5781569  38.5788965
  12.5548196  64.5495367  47.5062466  12.9642999  63.7611246  47.1499300
  12.5921369  65.1834154  46.7899799  22.8979278  75.8227491  20.5471802
  22.5934744  76.6405582  20.1538324  23.6943054  76.0659504  21.0192680
   5.7445771  72.0475340  67.8832674   6.5963072  72.4206448  68.1103706
   5.6171525  72.2832870  66.9643450  88.5569000  13.6396933  69.4125223
  88.6941242  13.5673022  70.3570652  88.9763069  14.4658732  69.1721916
   9.1273957  63.7898302  74.6548986   8.7343693  63.6847878  73.7884521
   8.4774971  63.4291363  75.2580261  18.8204622  47.7713919  61.4055824
  18.4777141  47.4049377  60.5904341  18.4023583  47.2551346  62.0947170
  17.4005342  91.2121582  54.1052675  18.1907022  91.3281345  54.6329165
  17.5791276  91.6936588  53.2974958 107.7598763  64.1413355  62.0359516
 107.7177429  64.7558165  61.3032389 106.8685150  64.1224909  62.3843050
 115.8147144  34.5133162  79.9470186 116.0840321  35.3543425  79.5777321
 115.3956413  34.0550685  79.2185783  41.6499186  51.2616777  49.7343445
  41.8315649  51.9668722  49.1131067  41.0223770  50.6987906  49.2809343
   8.1362349  60.2200985  29.2930174   8.4225363  60.4276371  30.1825070
   7.3892474  59.6336222  29.4125438  12.1592796  67.0352936  58.5347986
  11.6138339  67.7738523  58.2641363  11.7274845  66.2682009  58.1588268
  16.5562487  68.8775015  64.1534853  16.8840265  68.2521582  64.7998142
  16.8293917  69.7320938  64.4870996 110.2080154  47.0264053  64.6843672
 110.4171371  46.4392233  65.4108095 109.2529678  47.0029211  64.6247244
   0.4903912  53.7412977  75.0258541   0.5121400  54.6267128  74.6628094
   0.2521097  53.1843424  74.2847347  24.8803782  43.6688519  43.0568600
  24.6547604  43.2126331  43.8675356  24.0405154  43.9686298  42.7090216
 101.8406582  62.5107479  87.7698803 101.8967533  63.0714130  86.9960976
 102.3631096  62.9633713  88.4319973  30.1907611  56.8357801  71.8374586
  30.1991963  56.3268995  72.6481390  30.8805466  56.4441729  71.3016653
   6.8008560  86.2975883  59.9125290   6.1549181  85.9534359  60.5294180
   7.4651879  86.7084980  60.4657412 112.0943165  76.4670277  51.2131071
 111.9035625  76.7831182  52.0962477 112.3122597  77.2566795  50.7179546
  15.7398176  68.7496758  75.6976128  16.4144921  68.6756706  76.3725710
  15.4958832  67.8448629  75.5025673 108.2574463  58.8736725  80.1248741
 108.2360935  59.1166496  81.0504723 107.7590561  58.0577040  80.0798798
   4.8162487  39.6329474  73.8242912   4.1996962  39.1821980  73.2472992
   5.3300297  40.1887989  73.2383823  79.5550299  64.4515324  33.9541125
  80.1468086  65.0114822  33.4516335  80.0064373  63.6088705  34.0029669
 103.0468941  74.4983959  61.0390663 103.3193207  73.9416981  61.7685223
 103.1844425  75.3914404  61.3549519 113.5031891  57.8273869  42.4303055
 112.6546383  57.9755020  42.8477526 113.5684872  56.8756723  42.3515177
  31.4851809  38.7987161  70.5479431  31.3598418  38.8195801  69.5992136
  30.6052899  38.9091206  70.9082651   6.6724247  76.4680195  35.2342296
   6.1308318  77.2219276  35.0007176   6.5733624  76.3865662  36.1827993
   2.7819750  39.0276027  75.9368038   2.5481325  39.8572588  76.3530016
   3.3129194  39.2798829  75.1813650  36.5366554  76.7439222  71.2458086
  35.6202793  76.8355370  71.5067625  36.7496896  75.8303404  71.4360952
  92.3968601  25.7012892  32.5690603  91.7925739  25.0540709  32.9326105
  92.4772072  26.3651872  33.2539082  98.9271164  67.6993418  21.9108653
  99.6554184  67.4715376  21.3330173  98.4164143  66.8928862  21.9818664
  21.2973261  61.4171743  51.0654116  21.3401556  60.4869747  51.2870598
  20.3888226  61.5583515  50.7991028 108.3826160  64.4175959  73.8911724
 107.6663399  65.0521183  73.9148283 108.2330990  63.9174175  73.0888653
  25.3345776  63.5229588  49.3686104  24.5400572  63.6146688  49.8944950
  25.1144433  63.9275503  48.5295153 115.4766941  63.7909031  49.0261459
 115.5770874  64.2877102  48.2141495 115.3537750  62.8859138  48.7395811
 113.9774418  64.4796896  62.8891182 113.3907127  63.7828207  62.5952673
 114.3239975  64.8576975  62.0808840  20.7905722  49.3888092  62.3190928
  20.4927683  50.2694654  62.0910883  20.1604915  48.8057804  61.8956518
  88.5437870  41.2557220  52.3808479  88.2078075  42.1392298  52.5317478
  88.1765556  40.7346296  53.0948782   3.9638820  67.2676849  76.7013168
   3.5108384  67.4050140  75.8693790   4.5958158  66.5724945  76.5180063
  90.5697060  73.5913658  53.8767195  91.0186100  72.8212643  54.2255211
  91.2091827  73.9965010  53.2909155  87.2318649  68.2091475  66.7062473
  86.5596199  68.8572598  66.9166422  86.9353676  67.4078083  67.1377325
  16.4436686  27.6871014  58.6433458  16.6125739  27.6312733  59.5838737
  15.7345223  28.3252048  58.5648203   8.8275909  56.7381382  38.6320615
   8.8015366  55.8597851  39.0116024   7.9144156  57.0250797  38.6293793
  21.1218023  58.4203053  51.0056257  20.5279255  57.9389191  50.4295921
  21.9614339  58.4105825  50.5461121   9.7030497  38.3251548  60.6702614
   9.0359104  37.7428079  60.3069019  10.2984917  38.4925127  59.9397326
  98.2361031  58.7507248  74.6734619  98.1088924  59.6451712  74.9897146
  97.9730606  58.1970549  75.4086399  22.6867676  25.5197549  70.6687307
  23.5590553  25.3971362  70.2941465  22.4179840  26.3886642  70.3704262
  30.0349164  42.8518105  42.7344036  29.7708201  43.2557583  43.5610294
  29.6247959  43.3944035  42.0608854  21.7061758  39.2695856  30.8685493
  21.3193583  39.9822712  30.3599381  21.2094855  38.4934306  30.6094813
  10.8140671  68.7902212  57.0371866  11.0831141  69.6770573  56.7976713
  10.9935427  68.2663870  56.2564039  13.4256148  87.3923779  74.0835667
  13.8087273  88.1911659  74.4460392  12.5254107  87.3894787  74.4089222
   4.3174466  61.5823746  35.9955096   3.4517995  61.3342142  35.6710052
   4.9241459  61.0208035  35.5130291  84.9153328  70.1910782  67.2844553
  85.2640915  70.9474421  67.7561712  83.9651394  70.2800560  67.3582840
  40.6847620  41.6145134  57.1099377  41.6003895  41.6777849  56.8381739
  40.4685116  42.4906969  57.4289513  13.1749296  91.9606495  42.7609921
  13.7176192  91.2610722  42.3972464  13.6528730  92.2562218  43.5358715
   2.6265544  86.6954422  69.2899179   2.4485680  86.7538452  70.2286100
   3.5433167  86.9567299  69.2032576  13.6778402  71.3283014  63.1899738
  13.5512447  70.8008575  63.9786482  12.8492224  71.2539911  62.7165794
   2.6513281  50.0113773  76.8679619   2.9810145  50.4886723  77.6293612
   1.8454298  49.5966482  77.1757889  16.0799694  73.4654522  73.1914330
  15.1773810  73.1686449  73.3075047  16.4761579  73.3718586  74.0577507
 103.6708069  74.1737652  52.3623323 103.4939384  74.8488045  53.0175257
 104.3972015  73.6691904  52.7283716 115.1892662  76.3093615  61.0292673
 115.5884552  75.7909679  61.7279482 115.6849098  76.0755491  60.2444744
   6.9262165  65.0993061  59.3783760   6.8240082  64.1916704  59.6647024
   6.4180303  65.6083536  60.0099230  13.8647151 105.2992153   7.2622520
  13.8882399 105.7106304   8.1262082  14.5026684 105.7911301   6.7452729
  14.0522134  61.0274220  -0.0029960  13.1450450  61.0742426   0.2988050
  14.5685196  61.3367081   0.7413175 115.9489155  47.3273087  39.7243667
 116.1132908  47.8965187  38.9725590 116.4186096  47.7435303  40.4471302
 100.3324986  62.2535801  57.1423578 100.9798622  62.1079683  57.8322506
 100.8437157  62.5681019  56.3967276  27.2646761  59.7123909  73.5459471
  27.9397583  60.2036905  74.0140533  27.3697925  58.8110638  73.8505697
   2.8488261  37.5960565  30.5704689   2.9137832  36.8413091  29.9853444
   1.9478549  37.5723553  30.8928370  19.1212380  73.4353876  46.9974232
  18.4915340  73.1133032  47.6423788  19.8891163  73.6800766  47.5138760
  98.2158661  41.6084099  72.5598621  98.3840561  41.3716173  71.6477919
  98.1506252  40.7698965  73.0168867 110.3282166  60.3436708  27.6121187
 110.7219315  61.1014891  28.0444670 110.9756947  59.6461916  27.7147698
   3.5957345  68.1441975  29.7896910   3.1740439  67.2874641  29.7232032
   3.4458676  68.5517645  28.9366627  27.4683738  70.9797192  64.0671396
  27.4217653  70.8702183  65.0169134  26.6183305  71.3481808  63.8265228
  21.7998505  12.5855148  33.0991912  21.1798978  11.9498646  33.4567356
  21.7431211  12.4681211  32.1509123   3.9576712  77.0808315  83.9427757
   4.3005565  76.2654018  83.5770702   3.8350621  77.6508760  83.1836605
   0.2528439  69.1631889  72.4697685  -0.3881206  69.1582298  71.7588758
   0.7268677  68.3375359  72.3706293   1.1588012  69.7280836  60.4788733
   1.5487012  70.5443001  60.1658297   0.2730352  69.7311687  60.1160479
 104.6126366  16.0597014   1.9714403 104.9354553  15.2406633   2.3471966
 105.1403809  16.1858654   1.1829015  97.9400826  57.3833323  65.1895237
  98.4679890  56.5917635  65.0848150  97.5575161  57.3022556  66.0631943
   5.1885200  13.4243584  21.7294383   4.8501629  13.9065087  20.9749341
   4.4391721  13.3471239  22.3199844  74.5325565  57.6988983  54.2010212
  74.4849873  57.5229931  53.2613230  74.0080070  57.0054865  54.6013498
  12.6269138  63.1735611  63.7611294  13.2660437  63.2932472  63.0586910
  13.0750024  63.4837103  64.5480585 106.1851597  87.1472263  40.9924364
 106.7116070  87.7006626  41.5693188 105.6159019  87.7598763  40.5267620
  96.5569687  62.3550367  88.0410194  97.4490261  62.4930573  88.3594608
  96.3953972  61.4216089  88.1782532  17.1397793  39.3312001  62.4936724
  16.2087929  39.3440843  62.2715664  17.5652540  38.9596677  61.7209053
 103.4223938  15.6343901  70.2605200 104.0733814  14.9881959  70.5341768
 103.1295013  15.3303087  69.4014645  19.0548003  65.6685591  47.1228409
  18.3695364  65.5217791  46.4708424  19.5405459  64.8441982  47.1495247
  74.9512434   6.3517773  10.9000695  75.6555843   5.7298803  11.0827732
  74.6035719   6.5799457  11.7622149  85.0963688  56.9467783  53.3046627
  84.3815136  56.3105679  53.2831764  85.8246422  56.4751816  53.7089443
   3.1215140  51.0319757  45.7522488   2.5687876  50.6442308  46.4307594
   2.7000597  51.8668032  45.5481100  16.9883156  66.3200092  68.7172318
  17.3228073  66.8558216  69.4364357  16.0815454  66.6061163  68.6070395
 107.2154331  53.3260441  52.2308397 107.8879070  52.9102612  51.6912794
 106.4107609  52.8539705  52.0166254   3.9257696  63.4276390  63.2807684
   3.6574224  64.3208456  63.4961939   3.7882629  63.3575010  62.3360968
  11.9104505  93.3239651  39.7086215  11.9216788  92.5674057  39.1223383
  12.3258972  94.0237141  39.2046428   4.1016150  57.3398113  62.9040575
   3.7650019  56.5367746  62.5064898   3.7349334  58.0438328  62.3691416
  19.4768846  60.2974939  38.9220762  19.8540556  60.7073069  38.1435990
  19.8669600  60.7727003  39.6557307 101.0651398  39.5199037  63.5580587
 101.3449383  39.8477268  62.7033806 101.8652534  39.5070386  64.0833044
 115.6574726  74.1662359  67.4122190 114.8066139  74.5991611  67.4818993
 115.7779312  74.0245390  66.4732599 110.1853561  80.9140682  57.9459524
 109.4652462  81.2393475  57.4057102 110.8127975  81.6365814  57.9689932
   7.5700325  46.0440636  61.7506123   7.4446654  45.7360554  62.6481915
   8.4944677  45.8769608  61.5669632  13.2724488  73.0985928  21.8341541
  13.0522799  72.7126455  22.6819754  12.6100850  72.7543068  21.2350082
  24.8135829 101.1415291  39.9193406  24.5665932 100.4045200  40.4779387
  25.7178259 101.3362408  40.1656389   5.5431449  50.4756641  47.0420551
   5.8272719  51.2931824  47.4509239   4.7499281  50.7115078  46.5609980
  14.0963900  75.5381203  58.8903713  14.9939919  75.3109932  58.6475611
  13.6729348  74.6959877  59.0569019  43.3185577  45.1770210  66.1667633
  43.9522505  44.7218800  65.6122255  43.8523483  45.7361984  66.7312288
  67.9673481   9.0999061   8.8873607  67.7049923   9.7542155   8.2398421
  67.4262524   8.3357692   8.6885065   4.1399470  48.6447859  31.6062617
   3.7566185  48.0090094  32.2104859   4.2063674  49.4512558  32.1175551
  52.6511335  93.0935478  59.0220118  52.7223396  92.3994637  59.6773005
  51.7092848  93.2286453  58.9175844  30.6016374  62.7523756  19.5934713
  30.4754162  62.7508116  20.5423117  29.7353721  62.9490948  19.2369378
  24.7412181  74.7275925  80.3934574  25.3773999  74.8407364  79.6872663
  24.5341206  75.6189108  80.6743336  20.3710914  32.7029014  62.0841074
  21.1768293  33.1094456  62.4030733  20.6449914  31.8400002  61.7732811
 107.4241543  71.7348003  65.3135586 107.7613831  70.9239817  64.9326658
 106.4866257  71.5760326  65.4233789  41.7995071  63.4637451  74.9932432
  41.5846205  64.3919659  75.0852585  41.8202114  63.1325436  75.8910799
   0.4470025  52.8352737  66.5413761   0.9528695  53.4757710  67.0414686
   0.2023469  52.1690607  67.1836662 102.1638012  37.9453206  46.0847998
 102.7806854  37.8476930  45.3594303 102.5369263  38.6423755  46.6243601
  79.3049192   8.9366817  68.8844061  79.5103264   8.7088358  69.7911215
  78.3686352   8.7571400  68.7985468  20.7451153  44.4170713  40.4868126
  21.0331535  44.0064764  39.6715355  19.9488568  44.8914814  40.2477741
  28.4293056  23.8619542  52.4551153  28.9889765  23.3958411  53.0761957
  29.0065217  24.0667057  51.7194986 105.3358936  63.2566071  64.9265814
 104.7558212  62.4978924  64.9906206 105.0459480  63.7138271  64.1372061
   5.3767043  78.5955954  52.0782518   4.4297972  78.7302113  52.1167040
   5.7074922  78.9886427  52.8859186  80.5146980  11.6844797  53.6818409
  81.3862610  12.0644271  53.5711575  79.9637127  12.4216390  53.9449835
  60.3425980  73.5724306  26.7869449  60.8854342  73.3335018  26.0356307
  60.1203489  74.4916725  26.6391850  88.4191132   4.3523666  69.3201160
  89.3749905   4.3564138  69.2698717  88.1704807   5.2720147  69.2270470
 110.2899647  82.0703125  64.9426842 111.2120819  82.3261452  64.9647760
 109.8132324  82.8749371  65.1465034  17.5351870  70.0088453  51.2241220
  17.4676895  70.9634542  51.2042046  18.4721792  69.8331404  51.1380768
  30.9347057  38.7649703  29.0971780  31.2292361  38.2371616  29.8394036
  30.9052181  38.1510186  28.3634043 111.9530392  28.8967800  44.9762964
 111.9990730  29.0648389  44.0350914 112.0780373  27.9512262  45.0571537
  67.0640945  94.5411110   2.2289817  67.1322060  95.2996063   1.6490917
  66.2022018  94.6276283   2.6362708 102.0826340  62.2312737  48.0797386
 102.7236557  62.9416370  48.1063843 102.5148773  61.5018272  48.5239410
  21.2412596  32.3681498  47.3066282  20.3580546  32.0317554  47.1548986
  21.7776966  31.5851927  47.4309063   0.2616542  70.1374292  29.7197533
   0.1149249  71.0550213  29.4901323   0.8199416  70.1712370  30.4965425
  13.0762267  58.2120085  42.9554176  14.0114832  58.1678343  43.1543589
  12.9064536  59.1423798  42.8077221  22.4953365  61.5057087  48.3340216
  23.2017875  61.1455107  48.8701391  21.8098307  60.8381939  48.3612156
 114.4618797  55.1181984  48.8497639 113.5604095  54.9390602  48.5823917
 114.7018051  55.9097338  48.3679628  97.9376984  25.2972555   0.1851990
  97.6061630  26.1110806  -0.1942832  97.7286148  25.3647947   1.1168409
  16.9047379  79.0945959  52.1555138  16.0271144  79.3639898  51.8845224
  17.4500954  79.8661995  52.0023918  13.0440438  92.5961113  49.2067385
  13.5230398  93.4192085  49.1102791  12.9609752  92.4767876  50.1528311
  21.5998101  67.5530481  40.7863760  20.7407522  67.2131109  40.5359793
  21.4280057  68.0937815  41.5573025   4.7773993  49.4358444  86.6185951
   4.2169753  48.8714647  86.0860252   4.7304824  49.0593719  87.4973965
  30.4554033  44.1076612  81.1808109  30.6765056  44.9834442  80.8640385
  31.2021017  43.5654116  80.9265804  90.9052467  30.6820631  13.8831806
  91.6992092  30.1513290  13.9478648  90.2047253  30.1025701  14.1826499
  41.2590361  35.6230712  45.2436638  40.6017971  35.9762788  45.8432627
  41.3980341  34.7245550  45.5429602  40.2903891  68.2485390  82.7571487
  41.0723877  68.2143545  82.2062016  39.8228049  69.0295458  82.4611282
  17.2896135  84.7114944  73.8197947  17.2234213  85.4089928  73.1676054
  16.4316499  84.2873478  73.8047791  56.7143869  25.0545645  68.4675407
  56.2518740  25.7552528  68.0078125  56.0348463  24.4114470  68.6696815
   4.3297344  37.5815606  90.3124714   3.4201372  37.8475308  90.4471016
   4.4172078  36.7676306  90.8085537  22.2843528  65.0715733  34.5234728
  22.2348666  64.5305204  33.7354064  21.3759375  65.3109598  34.7070765
  25.2884722  61.2080050  72.4329519  25.7178640  60.3886127  72.6788092
  25.9348178  61.8858051  72.6305819  32.7871537  92.7506351  43.0548477
  33.6470318  92.7793980  43.4743834  32.4385047  91.8886375  43.2820654
  12.7922320  47.9448938  69.6336508  12.0651448  47.3258924  69.5672369
  12.4384844  48.7671614  69.2945766  95.0342083  54.4662046  70.4397917
  94.8978519  53.7260103  71.0311890  95.2014542  55.2088070  71.0201406
  12.3769081  50.4720449  68.8079548  13.1785738  50.8513117  68.4477806
  11.8158841  51.2260056  68.9896870 108.9375496  68.7049198  46.3383722
 109.1734505  69.4858456  45.8376312 109.7726822  68.3653116  46.6600180
  14.4885492  96.0709095  14.7158146  13.7072587  96.6164303  14.6251488
  15.0100923  96.2682915  13.9378273  27.5686431  60.9511566  53.6599636
  27.7499151  61.4588833  52.8690243  27.9673052  60.0971031  53.4929466
  40.4597187  75.9184647  66.2947655  39.6001720  75.9973574  65.8810234
  40.4230356  76.5186453  67.0395279  31.1237645  69.2926693  78.6390018
  31.5095973  70.1566744  78.4945869  30.8540344  69.3012714  79.5573711
  23.6504912  60.8770466  18.1265652  24.4237065  60.7250309  17.5831866
  23.7409616  60.2574635  18.8505554  12.6592469  60.7169199  42.5626993
  12.0904338  61.4468813  42.8073120  13.3009601  61.1027193  41.9663811
   0.3749590  43.2943058  75.5652952   1.2637761  43.6143064  75.7196856
   0.4620085  42.6928997  74.8257303   2.4871615  31.9602013  69.6888494
   2.0069811  31.1408210  69.5693636   2.4400024  32.1304488  70.6296062
  31.8139577   3.8260043  87.1625900  32.4820924   4.1196650  86.5432453
  32.2364783   3.1221566  87.6548386 109.4858265  12.1571183  16.1273503
 108.9906311  11.3934672  16.4237440 110.3837013  11.9852424  16.4111161
  38.0461931  66.8544626  76.8660450  38.7626696  67.4884176  76.8975830
  37.9227352  66.6787577  75.9332418  18.7884033  54.5865631  50.7612419
  18.8303280  54.0994692  51.5841722  19.2455959  54.0305948  50.1302862
   3.4270009  66.2863588  34.9745846   4.2968640  66.2663984  35.3735495
   3.1238526  65.3793526  35.0155330  12.3396289  29.9215102  55.6729078
  11.7358696  29.8944712  56.4151812  13.2050586  30.0137997  56.0713339
  19.4998503  31.8218017  13.7342036  20.2316570  32.4358821  13.6742520
  19.1321850  31.8003583  12.8506911 108.5263729  14.6611309  11.0594749
 108.1329536  15.2374589  11.7146850 109.3906307  15.0388384  10.8962762
   7.2316980  43.5223532  92.3394012   7.5475705  44.3161678  92.7710438
   6.8303502  43.8342762  91.5283203 108.1350994  71.9986248  70.4893446
 108.6536789  71.1941147  70.4978275 107.9021263  72.1237230  69.5693922
  18.7095869  75.6365871  63.3694601  19.1353726  76.4418554  63.0753803
  18.2270825  75.3270674  62.6028967  74.2423296  51.5014124  50.3129911
  74.7087860  51.3944912  49.4840050  74.4393587  52.3978138  50.5847931
   4.6615800  19.0488696  61.8390131   4.8141518  18.1042385  61.8640232
   3.8514900  19.1738141  62.3333549  99.9365044  53.7980080  46.3618040
  99.5407200  52.9529333  46.1486530 100.8721066  53.6114502  46.4397860
  36.4471483  53.6284924  16.0462749  35.4994702  53.5070705  16.1045420
  36.5897083  53.9827681  15.1685512  22.8925586  57.4072409  52.9036856
  22.1725106  57.6892376  52.3395586  22.5925779  56.5794373  53.2791710
   0.1618103  58.4849119  50.7601643  -0.4467375  58.9695835  51.3178349
   0.6239953  59.1615200  50.2653742  12.8944933  71.5645170  44.1150331
  12.7032149  70.6672335  44.3880272  12.5851548  72.1067333  44.8406649
 109.3743992  54.1300249  83.2600307 109.5688915  54.7638559  82.5696278
 108.6819077  53.5806942  82.8927040  42.5866938  51.4117765  33.9706802
  42.8895760  50.7647991  33.3335662  43.3688831  51.6357851  34.4748974
  23.7382698  25.4413652  36.2763762  24.0694284  25.3965116  35.3794074
  23.6048698  24.5276284  36.5284109   5.2273148  85.8248520  40.7211590
   5.6203842  86.1324024  39.9043727   5.5355465  86.4436722  41.3831902
  21.6384292  77.8645658  63.7691069  22.1680117  77.0672369  63.7755108
  21.4874601  78.0443764  62.8411484 101.0296440  79.4248390  36.9220757
 100.4535675  79.7397327  37.6186419 101.6914082  80.1103306  36.8303514
  15.0995004  64.0454960   9.8426586  15.0310814  64.2239094   8.9047253
  14.3421233  63.4934902  10.0373363  12.7386177  87.4616337  20.4215741
  13.0827880  86.8539906  19.7669411  11.8631959  87.1292591  20.6200552
   8.0318099   7.9326612  52.8788662   8.2550943   8.8615555  52.8194380
   8.8727081   7.4913985  52.9989100  19.8802030  61.7151451  77.9201174
  19.9067914  61.3093710  77.0535898  20.5829620  61.2852859  78.4075451
  23.7164617  41.7801380  23.9357543  24.1746640  40.9848070  23.6642241
  23.1078434  41.9622135  23.2197475  33.5693526  25.9402895  56.2687111
  34.0033913  26.7606854  56.0346413  34.2865467  25.3254437  56.4230776
 109.7354317  65.1709318  70.3492832 110.1864243  66.0105991  70.4375935
 108.8227749  65.4057312  70.1815176 112.4986076  33.7983060  55.8999777
 112.8782463  34.4539046  55.3149176 112.1161175  33.1461835  55.3128958
  93.8206577   7.7460611   0.4062553  93.6984730   7.7808404  -0.5424771
  93.8723755   8.6633414   0.6748701   6.8541610  59.0003681  44.0526533
   7.5365031  59.6282434  43.8151312   6.3097489  58.9302206  43.2684803
  53.0565786  80.6616306  -0.0358267  53.4509182  80.4348087   0.8063637
  52.6898289  79.8382854  -0.3580622   1.8718828  64.0768385  36.7851973
   1.0178277  63.7903309  37.1088243   2.2229043  64.6241426  37.4876714
  35.7559347  70.4276180  72.4548435  34.9492502  70.7604265  72.8482103
  35.4589128  69.8406267  71.7595387   2.3232646  67.0571804  22.2127962
   1.3989457  66.8533087  22.3552799   2.3416986  67.5082207  21.3687253
   2.6439118  80.2360821  55.5070210   3.4806219  79.9881887  55.9003353
   2.7490744  81.1607933  55.2832317  16.8415177  80.1562977  88.2079983
  16.4702940  79.9818516  89.0728664  16.0917497  80.4190159  87.6740837
  22.8785872  50.4719210  45.4368734  23.6769342  50.6846142  45.9202290
  22.2675753  50.1650953  46.1067677  32.3199391  73.6801195  71.3319826
  32.5109029  74.2822981  72.0511103  31.9106770  74.2285061  70.6626511
  13.6890531  68.6041880  62.3071337  14.2352927  68.5124874  63.0878019
  12.8434074  68.2350588  62.5618029  28.2492089  66.0988331  59.4920635
  27.7059364  65.9856319  60.2719831  27.6461267  65.9721184  58.7596226
   7.1534961  72.1191454  13.0860066   7.5560188  72.8860617  13.4935009
   7.6310056  72.0062780  12.2641325  10.6170607  65.0255585  53.4926987
  10.5488038  65.5448914  52.6915359  10.3921795  64.1356564  53.2211590
   2.9392219  61.9527960  68.5627651   2.8510776  61.7052746  69.4831991
   3.6030942  62.6423645  68.5626984  14.4502175  72.8904486  31.5325761
  14.7903347  73.4568930  30.8399796  13.8941634  73.4641552  32.0597363
   3.2173261  72.2524214  62.6322937   3.1237605  73.1764269  62.8640127
   3.1840926  72.2408152  61.6757441  12.4060559  68.9559221  47.9551315
  13.2109785  69.3091726  48.3340073  12.3047984  68.0972242  48.3657646
   1.9446333  64.1745138  80.9770489   1.9760929  63.2262468  80.8504105
   1.1175159  64.3278456  81.4337730   8.9022291  54.3767786  57.3348141
   9.3701857  54.9713564  57.9210997   7.9890215  54.4324541  57.6162100
  15.1533914  52.4217606  53.1139183  15.6748855  53.1447220  53.4626389
  14.2989910  52.5180435  53.5345840  33.0886364  73.6406136  84.6865940
  32.3341870  73.0951738  84.9091530  32.9235125  74.4713116  85.1325893
  20.2804446  64.5649052  52.4662828  20.5006862  63.8512182  53.0649281
  20.3730011  65.3577757  52.9945087  23.3296895  42.2361040  58.8702822
  22.4248934  42.1204710  58.5800982  23.5921478  41.3715982  59.1864729
  13.2185054  79.8453951  54.4722176  13.0228913  80.7394505  54.1918135
  13.2075846  79.3330240  53.6637688  89.5560455  17.4838531  40.6742954
  89.1834354  17.3239732  41.5413713  90.0473785  18.2995677  40.7714415
 114.3470001  23.7346935  72.0444393 113.9800167  22.9593396  72.4691534
 114.8529243  23.3882904  71.3093996   6.8093812  84.2351341  21.4197040
   7.5588036  83.6397648  21.4079165   6.6403574  84.3890476  22.3492050
   6.3067359  62.6721048  78.6201477   6.4645016  63.0716228  79.4755602
   5.6543827  61.9924974  78.7898588   0.6242092  54.0524960  47.6351118
   1.3536432  54.1961241  47.0321798   0.5592342  54.8685646  48.1311464
   0.5552636  51.7973518  34.7346711  -0.2126445  52.3519039  34.5967674
   0.4712163  51.4921999  35.6380272   6.5586233  77.2326994  50.0971508
   5.7404500  77.2925091  49.6039534   6.4455968  77.8454351  50.8237982
  79.0212107  18.9916718   6.7842680  78.1528473  18.6777294   6.5320426
  79.3079567  18.3823061   7.4644750 106.1720657  78.1639338  52.3176050
 105.2935410  77.7879620  52.3729944 106.7582035  77.4075365  52.3408794
  15.8305228  67.8605747  57.2870684  15.6084120  67.9521847  58.2136250
  16.4604485  67.1403027  57.2618532 106.7125988  26.6963196  53.6794233
 106.1231422  26.0092163  53.9903355 107.0126820  27.1332121  54.4764853
  15.6040704  49.3177319  75.8964443  16.0386539  49.1430569  76.7312241
  15.0852239  50.1059580  76.0568523  49.7340775  26.5340424  68.4115410
  50.1617241  27.3114944  68.7705898  49.5955658  26.7420745  67.4875450
 107.3154831  93.0612183  34.1651368 106.9038486  93.9253139  34.1768384
 106.6100407  92.4631882  33.9182925  38.7521362  99.6668053  61.5210485
  39.5326209 100.0527096  61.9187403  38.0962133  99.6810341  62.2180414
  13.7193000  74.7102880  35.2041078  13.4714305  74.9599075  34.3138933
  14.1771734  73.8761425  35.1002574  35.0993514 107.5932503  46.6993999
  35.8487105 107.9232979  46.2036562  34.3364859 107.9627228  46.2547016
  22.9833817  50.5033779  65.5279160  23.5962558  50.5459595  66.2619495
  23.0248761  49.5934534  65.2337217   2.1605830  84.9449158  67.4202442
   2.8192225  84.2613316  67.5432968   2.1865951  85.4514790  68.2319927
   6.8032002  78.4076118  59.6577024   7.5678939  78.5627890  60.2121353
   6.0551882  78.5216284  60.2439737   9.8397720  80.6733513  47.9529333
  10.4696035  80.8878994  47.2648096   8.9845192  80.8227730  47.5498867
 115.1406002  28.9299417  55.1891661 114.2977619  28.5765195  54.9046564
 115.7076263  28.8432455  54.4228792  20.4129624  64.3777132  20.4839540
  19.5544052  64.7875023  20.5897117  20.9762001  65.0814438  20.1618266
  18.6309719  63.8933134  84.1693687  17.8590226  63.8166380  84.7301292
  19.3038845  64.2675209  84.7380447 113.4229469  74.2038441  49.9698639
 112.6667213  74.7776270  50.0928211 114.1802120  74.7797871  50.0751257
 115.9271717  76.8385077  25.1914644 116.3794804  76.4191914  25.9234643
 115.3052139  77.4369097  25.6053686  11.8295550  65.2660799  68.1253242
  10.9629846  65.6647825  68.0458069  12.1222734  65.1470709  67.2217846
 113.2783413  70.0579739  52.7393579 112.4348831  70.4127550  53.0203295
 113.5658646  70.6474686  52.0421791  87.0066929  64.3010902  17.0026195
  86.3705254  63.5891390  17.0708191  87.7647591  63.9046144  16.5732300
  45.3783464  13.1961286  27.8725529  46.2083912  12.7252996  27.9472351
  44.7779179  12.7148306  28.4418225   7.6698816 100.5966949  76.6643333
   7.5931263 101.5275860  76.4551163   7.6110762 100.5601215  77.6190233
   1.0104108   2.3825271  11.0588539   1.2187675   3.2290807  11.4540327
   1.2924533   2.4674416  10.1480997 106.5312767  56.9174004  59.3339777
 106.3314533  57.7581501  58.9223480 106.2803841  57.0337439  60.2503586
  35.5051255  55.5495644  56.4886045  34.6311641  55.7904863  56.1813974
  35.4385686  55.5737448  57.4431801 113.4686852  79.0639925  22.5230837
 112.7638531  79.6923542  22.6799536 113.8171101  79.3043041  21.6645503
  62.1581242   0.1389779  54.3190098  61.7959234  -0.3754054  53.5975838
  62.4406192   0.9576214  53.9112663  14.7400057  70.7694387  60.5907822
  14.5678759  70.3363371  61.4268589  14.6864223  70.0676823  59.9420166
  35.6027365  79.2346573  66.3952255  35.2700138  78.8586378  67.2101736
  35.9270930  80.0997543  66.6454887   9.1960567 103.0696392  36.0932112
  10.0012052 102.7829361  35.6621981   8.6442548 102.2877789  36.1144042
  29.4108820  81.4826584  67.2685242  29.6907425  82.2077370  67.8272438
  29.7717309  80.7025719  67.6898050  12.3394167  65.3403950  81.6587734
  13.1414318  65.0429630  82.0883560  12.2957504  64.8276949  80.8516407
  11.9304800  93.3905125  85.3784561  11.4386308  92.9569817  84.6810627
  12.4193072  92.6845074  85.8013344 108.2065964  54.5282841  60.7783604
 108.9262962  54.8548889  61.3183594 108.4923553  53.6584806  60.4990387
  20.9443498  86.7337132  81.6124439  20.7773519  87.5980186  81.9883728
  21.8166041  86.8055820  81.2248325 102.1952343  51.7760277  35.5873561
 102.4166203  50.8574629  35.4341698 102.3027992  51.8941450  36.5311289
   3.0105880  42.1907949  74.1516399   3.9360443  41.9870234  74.0165901
   3.0106297  42.8671789  74.8289442  38.4862089  80.0303078  60.9776497
  39.0463829  80.4330254  60.3141356  39.0495872  79.3876696  61.4087629
  23.0046058  73.1704378  76.7178822  22.9919958  72.8823996  75.8051348
  22.7906203  74.1025543  76.6778612 108.1388092  63.6161757  53.0943775
 108.5083771  63.1231451  53.8268900 108.6873150  63.3806086  52.3461199
   6.4992112  94.8090553  71.9908381   5.9002942  95.2713490  71.4044762
   5.9264612  94.3560028  72.6096535  28.0215502  88.4749031  54.3366051
  28.5871148  88.7816811  53.6279011  27.5704408  87.7140617  53.9707565
  16.6225851  72.4147749  54.9964523  17.4234593  71.9189644  54.8261547
  16.2040734  71.9518661  55.7222557   8.8383883  94.7202110  60.8659029
   8.1685346  95.3955650  60.7590103   9.4997275  94.9324512  60.2072525
  47.6919079  75.4093027  55.3507042  47.3492193  75.9316254  56.0759449
  47.7708721  76.0290813  54.6255350  85.1111889  15.1441836   7.0676017
  84.8455048  14.2553902   7.3035830  84.5181942  15.3909636   6.3578963
   8.5104913  64.6257305  64.7101784   8.8829327  64.2140770  63.9303970
   8.5872692  65.5654001  64.5447922  13.1241548  88.7428951  48.4398556
  13.7081242  89.2047119  47.8382492  12.3506010  89.3034172  48.5003471
  20.9859967  79.6629333  24.1593432  20.8991766  78.9071178  23.5784507
  21.3119531  79.2969084  24.9815416  18.6162305  59.0832090  80.4459858
  18.6722946  60.0220203  80.6240845  19.3132555  58.6968040  80.9761524
  31.6391587  66.4400578  89.4469261  31.0971880  66.8034172  90.1472664
  31.3836980  66.9320679  88.6666107  51.2330866  90.2358818  61.8010759
  50.2871609  90.3739643  61.7521191  51.3927650  89.9927616  62.7130079
  12.1102273  71.3546133  68.4936142  11.5389240  70.7468700  68.9631844
  12.0688891  72.1641064  69.0027714  28.4319592  94.8358154  64.0119600
  28.4413218  95.7924366  63.9799213  27.8288269  94.5787048  63.3145666
  13.1190681  51.8717337  91.6090298  13.9359832  51.3820076  91.7041588
  12.5465763  51.2881660  91.1110973   5.9969246  76.2900543  37.8807974
   6.0988224  75.5548525  38.4852219   6.0545284  77.0670319  38.4368706
  15.5508280  88.6891937  86.8600941  16.2700152  88.2779026  87.3395061
  15.8326340  88.6732483  85.9454536 103.2936287  70.8344316  82.9464340
 103.6357021  70.4092884  83.7328625 102.4729633  71.2374926  83.2297802
  34.9974823  73.8674641  70.6945181  34.1347027  73.6237192  70.3592110
  34.9334025  73.7339544  71.6401958  21.2311077  96.9568825  86.7455006
  20.4338980  97.2826672  86.3277054  21.3256311  97.4936104  87.5324059
  16.1158550  86.9718170  47.3009682  16.5469348  86.2432003  46.8542910
  15.8655739  87.5700283  46.5968895  22.5789762  72.6167345  53.9337206
  21.8455267  73.0124044  53.4628439  22.2463298  72.4755192  54.8200798
  14.6238482  77.0130396  18.1755221  15.2017403  76.5839958  17.5444961
  14.2767525  76.2971354  18.7077212   3.1614798  37.3132849  93.8932800
   4.0851608  37.3097944  93.6422157   2.8680980  38.2067323  93.7146378
  26.7822409  85.7072258  49.5700121  26.7706990  85.1823807  50.3704071
  27.6630950  86.0807228  49.5411873   5.2226520  63.5838079  44.9016953
   5.3200316  64.4932890  45.1838255   4.3065786  63.3735895  45.0829363
  23.1707668  72.5810957  59.0785456  22.8607631  72.7093554  58.1820631
  24.0369153  72.9882908  59.0930223  47.2977924  59.0850401  70.5006075
  46.8652916  59.8202944  70.9348679  47.8054380  59.4879007  69.7961712
  98.2385349  62.8644276  41.9424725  97.6432705  63.2925797  41.3271809
  97.6654243  62.5065088  42.6204634  23.6540151  50.9567022  62.8902340
  23.4160709  50.8115625  63.8059568  23.7785411  50.0774860  62.5328779
  31.8307209  89.0304947  73.2022285  31.4030695  89.8642731  73.3975554
  31.1502910  88.5051632  72.7811861  51.8464470 106.0734844  36.8951154
  51.4361238 105.2090263  36.8710232  52.4313211 106.0399723  37.6521039
   6.7224878  58.6309433  71.0158777   6.1058033  57.9329681  70.7950497
   6.1687028  59.3619251  71.2901354 112.1064568  82.7791023  58.0053377
 112.8637218  82.3671246  58.4213400 112.3347282  83.7074757  57.9580975
  18.3324862  92.8562069  63.3686447  18.2548475  93.7773228  63.6171579
  19.0229785  92.8443336  62.7058411  83.8250732  10.0085008  14.7398913
  83.7972641   9.2377436  15.3068054  84.4465733   9.7760862  14.0499926
   8.2738572  95.8533192  93.1139851   8.1643212  96.7949009  93.2468033
   7.3859745  95.5272675  92.9670429  25.9504676  45.6994629  36.8432379
  26.7213488  46.1235714  37.2202039  26.1768079  44.7697449  36.8181920
  24.4513917  87.5721359  44.8792553  25.0970125  86.8663883  44.8428965
  24.1283321  87.6477051  43.9813948  21.7541552  75.3367758  45.8407927
  22.6055098  74.9015141  45.7963562  21.3692665  75.0269747  46.6606188
  27.8706646  91.0494232  73.1229401  28.0078697  91.1336040  72.1793699
  28.7406278  91.1709213  73.5032511  31.2543273  67.4822903  68.0106878
  30.4126740  67.3489571  67.5747156  31.0968184  68.2034445  68.6200762
   2.7061009  77.9613638  46.7178202   2.1983683  77.3052120  47.1952152
   2.1900496  78.1377506  45.9311771  15.6294036  44.0135336  62.5852394
  14.7454894  43.6836672  62.4236441  16.0847092  43.2832336  63.0042744
  28.4258580 104.8567867  65.5681181  27.9850602 105.5674267  66.0338736
  28.2664394 104.0820122  66.1071348  25.7714748 109.3440247   8.2462466
  25.5064869 108.7619114   7.5340962  25.7742023 108.7855625   9.0236443
  68.1176233   5.0207269  41.8692970  68.2262421   5.9267801  42.1582651
  68.0673313   4.5150244  42.6804495 103.2004166  84.5583153  50.1987839
 103.1053829  83.6870670  50.5836678 103.1797123  85.1544285  50.9474182
  23.6852598 103.6072254  69.5359373  23.7540436 103.3599377  68.6137915
  24.1447830 104.4448853  69.5942068  79.9507046  37.3982334  32.1658874
  80.7571697  37.2133684  31.6845655  80.2404785  37.5694776  33.0619550
   3.9078519  53.6806774  64.0583229   4.1707662  54.1505146  64.8497534
   4.7080308  53.2488823  63.7591600   8.7691283  72.7149248  46.5239668
   9.0267932  72.5763035  47.4353552   8.5345519  71.8430376  46.2061214
  35.0573635  89.7803116  72.1769333  34.8590994  89.4080925  73.0362225
  35.8586907  89.3347454  71.9020176  41.7540121  74.3241835  83.8841152
  41.6146851  73.4395885  83.5460186  42.3236370  74.7408009  83.2374382
  21.6883063  79.7082758  67.0235825  20.8009839  79.3509245  66.9890785
  22.2534728  78.9677334  66.8035364  -0.2776756  86.2463665  88.5644817
  -0.1442851  87.1759129  88.3790684   0.4231797  85.8036900  88.0858803
  31.3797045  34.0548706  61.8365431  31.2114024  33.6903620  60.9676123
  30.6629658  34.6728921  61.9799566  37.2198248  91.6100025  89.5929813
  37.2910738  90.9587860  88.8950825  37.5043344  91.1480522  90.3815842
  22.2585082  60.3369331  78.2408810  21.9949794  59.4320488  78.4081316
  22.8638744  60.2773905  77.5018120  23.1855726  92.1483517  29.0700150
  22.2299647  92.1351147  29.0164304  23.4734154  92.3186207  28.1731391
  13.4904027  55.5777550  56.3975859  13.2015920  56.3731003  56.8450642
  13.1881583  54.8638582  56.9590425  18.2185352  54.6754742  46.3657093
  18.0666852  55.2291059  47.1316528  19.1577804  54.7515631  46.1976004
  26.4204931 100.6629658  54.3251181  25.9243822 100.5360413  55.1338196
  25.8066773 100.4301262  53.6285210  42.4902964 102.2206688  43.6320543
  42.8664017 101.7501640  44.3759584  43.1928492 102.2422314  42.9822969
  38.4151506  60.4662561  89.4241428  38.3863735  61.0705662  90.1659012
  38.9720106  60.9038162  88.7801933  38.8463569  87.3382282  86.6427040
  39.1534257  87.5182629  85.7541561  37.9052281  87.5098515  86.6102600
  17.9116535  39.2466855  11.3944185  17.1617389  39.5903182  10.9088516
  17.6077771  38.4084678  11.7426789  19.9523115   3.2579681  40.0253248
  19.5535553   3.9041492  40.6081390  19.6208072   2.4163148  40.3383017
  24.1312647  80.4235744  58.4340763  23.5306787  79.7361326  58.7220860
  24.9012899  79.9515343  58.1171036  17.5824368  75.1814032  45.4065895
  16.8069601  74.6630096  45.1917934  18.1206405  74.5972252  45.9407282
  22.4876714  58.9712620  59.3366671  23.0325985  59.1414928  60.1049805
  22.9289460  59.4321775  58.6231756  50.9784365  72.9282379  66.6804409
  51.3297415  72.0899439  66.9805717  51.5950298  73.2196474  66.0087776
   1.0705856  71.7263269  42.3522949   1.1185128  71.3130331  41.4902496
   0.3492777  71.2775087  42.7933216  24.3344831  77.0424128  81.8329906
  23.6473274  77.6070976  81.4791870  24.5038319  77.3908997  82.7082634
  28.1373572  74.8217249  69.0513325  27.6493812  74.2399645  68.4685278
  27.7969837  74.6266270  69.9244404  86.7606926  86.3413048  80.4967690
  86.7450047  86.2577724  79.5433474  86.5442085  87.2592354  80.6603718
  10.9805167  83.0502415  57.4556780  11.0252631  82.1330357  57.1855736
  10.6727648  83.5144329  56.6771889  13.8469660  92.6207447  56.9562435
  13.8686216  92.7676964  57.9018497  13.0176687  92.1679020  56.8031645
  97.1462154  33.1197977   0.5394951  97.7972031  33.4184694  -0.0955162
  97.6579857  32.8777313   1.3113266  27.9560542  67.9978991  46.1560154
  28.7828827  67.8657198  46.6198206  28.1720495  68.6075544  45.4503965
  21.4499259  56.7796040  89.9101734  20.5627680  56.8053579  90.2686691
  21.3329148  56.9219923  88.9708805  32.5507855  20.7059598  37.3311067
  32.1467733  21.4932704  36.9662189  33.1694555  21.0345578  37.9834127
  17.4509978  62.0687532  89.3243980  16.7982054  62.6592827  89.7003841
  17.0628548  61.7765713  88.4996510  83.5087013   1.4049996  80.2664471
  82.7070808   1.5094481  79.7538757  83.2721806   0.7864041  80.9575653
  92.5468254  60.3299332  56.7382908  92.3746586  60.4852438  57.6669836
  93.2126331  59.6422911  56.7298555  29.0923405  61.1484432  86.8016434
  29.5120740  60.7223654  86.0543060  29.8085308  61.5878773  87.2601223
 110.6180286  56.7245293  58.9214277 111.2136173  56.0328817  58.6331129
 109.7530174  56.3147688  58.9126873 113.6585331  65.9132814  23.4714627
 112.8579330  65.8034086  23.9844847 113.3916855  65.7342768  22.5698090
  17.1864557  60.6275511  44.7538757  17.6785481  60.4012680  43.9646530
  17.4891424  60.0022602  45.4123735  49.2940760  72.4755764  69.9881506
  48.4658718  72.7447462  69.5908356  49.2480707  71.5198231  70.0135851
  54.7075081  89.4002342  57.2007227  54.0989065  90.0127888  57.6137733
  54.2444086  89.0907764  56.4222622  25.7805824  95.6144047  18.2497895
  25.8997178  96.2940311  17.5863636  26.6630340  95.4437637  18.5790181
  34.4740009  92.2873974  80.0230026  34.6126986  91.7807102  80.8231640
  34.2233753  91.6363144  79.3676329  19.0198720 107.1475697  76.3922358
  19.2354727 106.2297440  76.5576029  19.0606081 107.5621891  77.2540140
  10.2403545  83.9447689  17.7351356   9.9046463  83.1171703  18.0795348
  10.3553867  84.4969559  18.5084987  32.1457219  75.6187010  20.1965714
  32.6722503  75.3321552  19.4503188  32.1825504  74.8858166  20.8111858
  61.3161182  87.2471428  73.2817650  61.1016464  86.3207531  73.1720209
  60.5018139  87.6469517  73.5872078  58.2274008   0.3721558  37.6464987
  58.3557987   0.5962771  36.7248058  57.2886992   0.4889627  37.7928734
  20.4372454  62.6855564  54.6912098  19.5357203  62.4510717  54.4709826
  20.9565067  61.9330406  54.4077969  20.8900452  85.2720642  31.6625142
  20.9248233  85.8713055  32.4081159  20.8954287  84.3995190  32.0560503
 113.5641193  78.2819128  35.1891017 113.2451344  77.5592852  34.6484685
 113.2626057  78.0711508  36.0727835  15.1454079 106.0660934  47.0373249
  15.2855802 106.1464024  47.9807949  16.0246503 105.9671402  46.6721201
  26.1454391  78.2228184  62.8336668  26.0413551  78.9398670  62.2081709
  25.6352615  77.5038195  62.4608469  12.9574513 101.9929695  39.1386604
  12.0260036 101.8530941  38.9681458  13.1670332 102.8030491  38.6738181
  12.0807374  71.9172144  48.4820318  11.7865348  72.7087975  48.9326620
  12.0027781  71.2249279  49.1384554  53.2970190  97.3960590  27.8876185
  54.1644049  97.7997589  27.8574872  53.1846142  97.1379566  28.8024831
  73.1318712  14.1943967  87.3636436  73.3579969  14.2455733  88.2923412
  73.9708853  14.0729463  86.9191837  24.8557448  71.0007477  68.9775181
  24.9788070  71.8678474  69.3638134  24.4104266  71.1694670  68.1471825
  59.6512938  82.4839783  94.6190643  59.1572809  82.5534534  93.8021469
  59.8134279  81.5462303  94.7219086  61.0676479  95.1900959  49.0032482
  61.0092068  95.8592796  49.6851635  61.1955404  95.6839752  48.1933403
  57.0425367 106.1710262  75.4683495  56.3843632 106.8366909  75.6681728
  56.5894842 105.3385067  75.6021357  64.6629047  87.3476982  56.5164518
  64.0064716  87.4858761  55.8336401  64.3875504  87.9198742  57.2327137
  93.0085754  60.3953028   6.6708350  92.0897770  60.4578924   6.4098299
  93.4429359  61.0991001   6.1889285 110.7268810  11.7727292  61.4836359
 111.4727402  11.2081373  61.6865492 110.3944016  12.0467651  62.3383808
  79.4077635   2.2608301  47.5051117  79.7292566   3.0351135  47.0432043
  80.0463009   2.1161595  48.2033730  30.3498316  72.5315523  73.9678097
  29.5451736  72.5405979  73.4494686  30.3135467  71.7066622  74.4520378
   6.1460364  66.6520977  30.8443713   5.7016402  67.4460554  30.5470920
   5.4439259  66.0980415  31.1853909  31.1647463  97.0526123  57.2096634
  31.4931321  97.9457378  57.1061134  30.2714038  97.0847034  56.8674088
  23.2268500  78.9747000  72.5817347  23.1726050  79.2230225  73.5045671
  24.1598368  79.0265894  72.3741817  35.7599115  84.7818089  60.5650902
  34.9254870  84.7600937  61.0335970  36.4054298  85.0047970  61.2357759
  26.6043401 100.3127098  76.1081362  26.9396305  99.5277119  76.5412569
  26.3763285 100.9034348  76.8259716  49.1416407   3.6163449   1.6997693
  49.3736267   4.5381874   1.5874256  49.2709875   3.2295617   0.8338016
  54.2395735  67.9354382  93.2238388  54.7081089  68.5288572  92.6368427
  53.9163876  67.2389221  92.6523018  18.4724772 102.9500771  55.0747585
  19.3558109 103.3102989  55.1534748  18.3768308 102.7517319  54.1432333
  27.3928285  57.1993351  74.3020535  28.2309175  56.7544603  74.4282389
  26.7364931  56.5143013  74.4292831  41.1497974 104.4261646  48.9353609
  41.6775417 104.8742104  49.5964003  41.6712618 104.4816875  48.1345987
  86.3297939   0.3014260  74.1003609  87.2551537   0.2954180  73.8556337
  85.8664227   0.0886455  73.2902718  22.7438903  91.9295216  84.6911907
  22.9418135  92.7522755  85.1385593  21.8436933  91.7283630  84.9469376
   9.1892481  70.2871037  81.0058117   9.7281784  70.8085012  81.6007328
   8.7016040  69.6964359  81.5798664  92.1193123   6.4820975  56.5975142
  92.5160027   5.6109834  56.5918541  91.2181091   6.3330311  56.8835878
  73.5867596  73.4432459  79.3179464  73.2101917  72.8776741  78.6437321
  74.1856289  74.0180588  78.8413143  40.4561090  99.1672707  88.3007240
  40.0037241  98.6126709  87.6651287  39.7792959  99.7617054  88.6244583
  21.0372472  97.1129513  63.8800049  21.6642475  96.4091110  64.0464687
  20.4733586  96.7721367  63.1856680  56.5234470  12.4479389  61.1451435
  56.9255447  12.9458129  61.8569517  56.3405800  13.1009603  60.4696035
  22.0026493  87.3511887  67.2069645  22.5422049  87.2558594  67.9918337
  21.7219830  86.4598846  66.9995451  75.1029158  68.8889551  63.3231401
  74.8481703  67.9696560  63.4020329  74.9554777  69.1000795  62.4012280
  24.2957187  90.3610802  51.9205046  24.0342164  90.0948715  51.0390377
  23.5228848  90.1945591  52.4601603  43.4673500  71.3599396  62.5961161
  43.6560011  72.2166777  62.2131777  42.9015589  71.5512609  63.3441162
 112.8236866  74.1746044  53.4754419 112.7871799  74.3636703  52.5378132
 112.6660347  75.0196457  53.8964891  74.9805117  18.4480345  86.9330692
  74.1341877  18.8947439  86.9128036  75.1210642  18.2430279  87.8574371
  25.7369661  86.1898994  73.1208038  26.3625765  86.0972309  73.8393164
  26.1121345  86.8712807  72.5629520 112.9410267 109.8333645  74.4608736
 112.0886230 109.7119427  74.0426636 113.0523014 109.0558529  75.0079775
  32.4821401  89.6718121  38.2315063  33.4179902  89.5675087  38.4033751
  32.4425745  90.1849079  37.4244094  14.8731005  86.2490559  58.7297535
  15.7073307  86.1869526  59.1949797  15.0207639  86.9182968  58.0615139
  30.9021401  75.0761890  69.4227505  30.0467968  75.3497934  69.0914488
  31.5057254  75.7522535  69.1147661 109.5469284  63.6926413  12.8500569
 109.0097618  63.1351709  13.4130037 110.4474068  63.4330273  13.0449581
 107.9496861  93.1643486  45.0997066 108.1795502  94.0201664  45.4616070
 108.4768200  93.0913353  44.3040705  35.5094767  86.5685177  58.7329149
  35.2447295  85.9503937  59.4141388  36.3132763  86.9652176  59.0687180
  26.2115097  86.8099880  42.5742388  26.2244368  86.0017204  43.0868435
  25.2967858  86.9123745  42.3115015  96.8620014   6.9810516  53.8376284
  97.3947525   6.6291839  54.5507908  96.2222099   7.5449210  54.2723036
  49.1966963  94.6325207  46.2943077  48.6498213  94.6212101  45.5087948
  49.3838644  93.7102222  46.4691496  66.4678812   8.6915630  42.0724297
  66.2848663   8.6238116  41.1353350  66.0343552   9.5008540  42.3432350
  29.6324539 108.0646038  59.6591425  29.8285961 107.2605610  60.1400518
  28.7420869 107.9367638  59.3318272  58.9590454 105.8487129  80.3199100
  59.3501520 105.5326843  79.5054245  59.6059942 106.4579105  80.6756687
  47.1681166   3.0459109  83.6287117  47.7625179   3.1425354  84.3727398
  47.7346420   3.1092259  82.8597641   2.3725460  59.4678545  45.1786757
   1.7366764  58.7641954  45.0491905   2.2698909  60.0280046  44.4093084
  43.2589293  94.2896938  57.2608423  43.7701273  94.0868187  56.4774227
  43.2481575  95.2460766  57.2987938 103.8400173   0.7531469  42.3144197
 104.3948364   0.4118368  41.6130495 102.9646969   0.7935998  41.9291878
  37.2180676  92.7872944  75.4231691  37.0121932  91.9402790  75.0276709
  36.7776585  93.4265137  74.8631096  26.5704679  78.8574409  88.0158520
  26.4511776  78.0750036  88.5541725  26.9378233  79.5069265  88.6153984
  99.7827530  15.0951636  71.4453650  98.9157581  14.9067307  71.0861206
 100.2109814  15.6243634  70.7724619  13.0247509  97.6421070  28.1820679
  12.7052593  96.7638588  27.9750824  13.2176769  97.6121140  29.1191459
  11.5675926  41.7361307  15.8582687  11.6898775  42.6791668  15.9676337
  10.6296992  41.5991592  15.9917772   8.3081782  83.1589508  76.6979980
   9.1826415  82.7761269  76.6273403   8.1954527  83.3276558  77.6334476
  22.5626945  88.9338207  37.7964520  22.6549244  88.0807781  37.3721552
  21.8516564  89.3625832  37.3201966  51.3210154  92.4551868  43.8490343
  51.0543013  93.2461929  44.3174410  50.9666586  91.7361259  44.3721151
  33.9335775  93.7938118  47.9982376  34.8401690  94.1005611  47.9830837
  33.7709451  93.5723877  48.9151621  16.0136747  73.8219690  88.9291763
  16.1233222  74.6305418  88.4287643  16.8870509  73.4306240  88.9463520
 110.2862263  94.7731304  57.7366161 109.5901966  95.3037834  57.3490810
 110.1286411  93.8901997  57.4022102  73.2124901  60.3992701  41.4572144
  73.6417150  59.8982525  42.1507406  73.1601572  59.7912502  40.7197809
  52.5917006  94.8613453  84.8774242  52.7192211  95.1222038  85.7895184
  51.8121052  95.3412151  84.5978165  14.7125280  83.3083344  65.9072876
  14.6772492  84.1622639  65.4762650  14.7007763  82.6764870  65.1883507
  23.0417514  96.2971592  31.1729312  22.5194335  96.7984581  30.5467439
  23.8930869  96.7346764  31.1791921   7.8907228  84.7749615  44.3043375
   8.1586975  84.6148300  45.2092028   7.1219373  84.2183876  44.1801500
  60.2244997 108.6783123  85.9836197  59.8862028 109.4327450  85.5013180
  59.9848747 107.9233742  85.4461384  25.2491379 107.7820492  62.3327875
  26.0149789 107.2319412  62.4974108  25.6024241 108.5633087  61.9072771
  11.7619967  71.4903259  56.4970732  11.1844075  71.7741823  57.2056293
  12.6010454  71.9087315  56.6898632  53.1641197   7.4708414  24.9025607
  54.1113472   7.3826200  24.7966623  52.9877758   8.3939832  24.7210598
  21.7917871  88.1472015  46.2189960  22.7202725  88.3424854  46.0924482
  21.3486671  88.6262608  45.5187273  39.0706420  92.7232075  84.2711163
  39.7091508  93.0491447  84.9053955  38.6513138  93.5116959  83.9266109
  16.4123511  86.3511181  82.3228931  17.1565223  85.7901478  82.1043682
  16.6731358  87.2222233  82.0239067  10.5263793  75.2632475  31.5113163
  10.2558720  74.3746042  31.2802935   9.7465461  75.6568861  31.9026470
  36.1121035  76.1666965  77.4153852  35.7843924  75.9213114  78.2806158
  36.1310863  75.3451157  76.9246006  21.8281722 106.1590672  71.3901329
  22.5856400 106.7429638  71.4293480  21.5016270 106.1296463  72.2894287
  23.5142756 102.5335407  30.8937025  22.6181340 102.2148514  30.7860160
  23.8632011 102.0245171  31.6253972  28.1962776  47.2337675  60.5248880
  27.6722264  46.6024733  60.0318623  28.0511451  48.0671835  60.0770187
  55.9744930  82.2389317  49.1682100  55.7666922  82.8306293  48.4450626
  55.3780460  82.4996758  49.8699903  47.8159571  84.9642277  88.9647484
  46.9292307  84.7168255  89.2269421  47.7225399  85.2692890  88.0622864
  37.5909066   0.8797319  84.8748875  36.6782498   0.8426965  84.5886707
  37.6290965   1.6395360  85.4558086 109.4205761  50.8149576  13.0883825
 109.4126415  49.9425554  13.4821892 110.2889252  50.8913469  12.6929486
  13.6461937 105.0794792  86.3560104  12.7638924 105.3848553  86.5670204
  14.2054081 105.4877663  87.0169353  28.9554071  80.9634781  80.9763527
  28.9168215  80.0584888  81.2857628  29.7316122  81.3288593  81.4008904
  16.7172945  99.5331097  52.9047155  17.2754562  98.7646484  53.0236292
  16.2749839  99.3809509  52.0695829 102.0443630  28.1630969   0.7506049
 101.3114834  27.7632856   0.2823380 101.9953251  27.7937365   1.6323081
  54.6324873  93.7529278  61.8112993  54.0611649  94.1044331  62.4941349
  54.0579271  93.2044792  61.2771463  32.3536205 104.2632580  57.2180510
  32.3360372 104.8673916  56.4757919  31.7186594 103.5844326  56.9894600
  39.0874934  53.0823421  76.9261551  38.9199567  52.6583385  77.7678108
  39.8038793  53.6919212  77.1034527  32.8282380  94.7560024  69.2401695
  32.2745585  95.0811481  69.9500656  32.5915146  95.2952766  68.4855938
  30.3821588  91.2869930  73.9785099  30.8504558  91.6943836  74.7071838
  30.5964375  91.8320942  73.2214165  84.7919941   2.8536928  53.9633942
  84.6903896   3.7291774  53.5899830  83.9831161   2.3983145  53.7297869
  35.0502706  73.3148336  82.7040577  35.1540065  74.2378664  82.4727917
  34.7411394  73.3281469  83.6098671  93.4408569   9.7509468  38.3402872
  93.2158947   9.1792786  37.6062417  94.1058254   9.2645735  38.8276076
  14.5282865  99.9693012  31.6784835  15.4406607 100.1990414  31.5023494
  14.0877545 100.8109474  31.7959499  45.2235794  99.0994835  78.5064983
  45.4969454  99.9102783  78.9355803  44.3603468  98.9125252  78.8754272
  16.7034519 101.3579845  60.4844618  16.8041646 100.6610870  59.8360586
  15.7586753 101.5030098  60.5354166  54.4666529 101.5228367  41.9532490
  53.8135195 100.9863472  41.5040016  54.2797565 101.3985157  42.8837538
  39.2027354 100.0295258  68.9025116  38.8313127 100.7423878  68.3827972
  39.3221688 100.4058647  69.7744846  60.3793669  93.5460758  41.8099022
  59.6489573  94.0913010  41.5175724  61.0559654  94.1713142  42.0697546
  12.0454240  96.5971088  90.5349159  11.6375911  96.3236141  91.3565636
  12.2595716  95.7774448  90.0893497  15.6797695 100.0844288  80.5292606
  15.8449650  99.5896149  79.7267056  15.1652110 100.8393192  80.2435875
  37.0367098  93.9546585  66.2034321  37.2560263  94.3537331  67.0453787
  37.5031495  93.1188011  66.2058163  54.7350788  83.6258888  45.7010984
  53.8003445  83.6578560  45.9047747  55.1303911  84.2699146  46.2886238
  39.9681997  83.7178612  61.0793877  40.2442265  83.8681698  61.9835186
  40.3999472  82.9008293  60.8298302  28.0096388 104.9423790  75.7019281
  27.6830864 104.6263695  74.8594713  27.2701216 104.8366070  76.3003922
  10.3255522  76.8680096  58.9775372  11.1103368  77.3839092  58.7926292
   9.6101010  77.3738384  58.5921860  59.4878101 106.7412090  46.4284468
  59.6241236 106.5498352  47.3563623  58.5365200 106.7476845  46.3224554
  26.7804480  83.0669880  94.4957352  27.2602916  83.8165569  94.8480415
  25.9959888  83.0070496  95.0409508  81.2128544   2.5307921  78.6186600
  81.2093735   1.9737530  77.8402472  80.3226471   2.4649888  78.9642572
  18.0315733 106.0705376  46.6592741  18.0475831 106.0535526  45.7023573
  18.8785219 106.4417744  46.9064379  37.6539087  80.2441788  72.7875137
  38.3660126  79.6254349  72.6253605  37.8369951  80.5972385  73.6581802
  60.0363731 103.2597542  69.6173382  60.1312733 103.7108040  68.7784195
  60.7141876 102.5840187  69.6039820 109.4662476  21.9974327  10.2594459
 110.2931595  22.4653840  10.1434386 109.1492748  21.8468571   9.3688911
  33.9392281  67.3078012  68.7469482  34.1217136  66.3954258  68.9716768
  33.0043459  67.3215866  68.5419178  40.4135990  94.1384029  47.4518013
  40.0148344  94.3222904  46.6012716  40.3316021  94.9592781  47.9372692
   3.2230729   5.4012257  48.6747837   3.1323063   4.4560951  48.7961149
   2.5117338   5.7785523  49.1923285  68.4193563   0.8096067  46.6283607
  67.8416061   1.5704325  46.6881704  68.0347538   0.2705539  45.9371758
  24.2344165  68.9253807  55.2710867  24.4290590  68.3145094  55.9818459
  23.3210349  69.1742754  55.4125738  68.9955997   3.1310228  52.6974440
  68.5395336   3.0413640  51.8606663  69.7465897   2.5419262  52.6252365
   8.8622284   1.5573430  79.3437958   9.4549370   1.5420440  78.5923338
   9.4041502   1.8657616  80.0700378  32.0036054  76.9991779  60.7988167
  31.4229250  76.7509174  60.0795031  31.6815090  76.5004778  61.5496731
  26.6679335  92.6706314  61.5726566  25.7834792  93.0036640  61.7245150
  26.6833997  91.8217468  62.0146894  23.6279058  84.6114826  45.9247446
  22.7996421  85.0240231  46.1697435  23.8429213  84.0466309  46.6669989
  30.1183677  98.4936619  67.7887201  30.8112049  97.8553009  67.6192904
  29.9634957  98.9097786  66.9407320  33.2951784  98.9029884  47.3790264
  33.9576435  99.4589710  47.7892160  32.8399348  99.4832325  46.7688608
  43.0826044  97.4955177  83.6397076  42.4037790  97.7789211  83.0272388
  42.9114819  97.9980183  84.4362259 112.9037571   2.0292643  10.6226349
 113.1963921   1.1711243  10.9295416 112.6501846   1.8839644   9.7111428
  11.4856005  99.6697426  49.6313763  12.3853779  99.7220135  49.9537134
  11.3261831 100.5224895  49.2268467  41.1992836  85.6334114  68.2978964
  41.1368418  86.2066841  69.0618944  40.8183813  84.8047352  68.5884905
  96.1916351  55.4359579   5.8267123  96.1274815  56.3083220   5.4380023
  96.4277840  55.5975294   6.7401451  47.3667240  68.6582088  74.5616293
  48.0009174  68.6035204  75.2764988  47.7500486  69.2857599  73.9488697
  26.3978958  81.5515518  28.4283113  25.5088973  81.3113308  28.6894703
  26.7410970  82.0454121  29.1729951  63.8456106  89.2391968  84.9598408
  64.7486305  89.5510292  84.9002934  63.5008955  89.6533108  85.7509804
 112.1675014  87.9045773  14.8295391 112.8469944  88.1203747  14.1908240
 112.3563099  87.0014000  15.0841916  22.9500866  86.2130356  74.1704035
  22.7390242  85.3196335  74.4415474  23.6513448  86.1087990  73.5272837
  45.1573133  80.5345821  87.7381802  45.6472158  81.1262894  87.1671200
  45.8278179  80.1031303  88.2678127  11.2100005 108.8272476  34.0817690
  11.1863971 108.3179283  33.2716656  10.8925235 108.2237053  34.7534704
  74.5001602  18.8561225  60.5801153  73.6130762  18.6240172  60.3054380
  74.5295382  19.8105419  60.5133915  43.8797998  79.8386049  59.8426771
  44.7672081  79.9192619  60.1922941  43.9848900  79.3327522  59.0368843
  41.8445826  89.3308926  75.0242233  40.9260225  89.4454479  75.2678585
  42.1807098  90.2223015  74.9313545  61.8133020  92.7962780  65.0310755
  61.3644171  93.1926155  65.7778406  62.3184872  92.0767498  65.4096222
  36.3543129 100.6942844  34.5438504  36.0464907 101.5654945  34.2939329
  36.6323829 100.7906628  35.4546857 104.8473167  76.5361166  19.4129157
 104.7082520  76.9191408  20.2790475 104.5439911  75.6323528  19.4991875
  61.0534620  24.8756838  76.6804743  61.6406822  25.6312394  76.6571617
  60.7595348  24.7727680  75.7753515  67.1278381 106.4049911  45.7295847
  67.3974752 106.9751453  45.0095510  67.5308943 105.5600739  45.5298758
  24.0077710  92.1734810  57.8717661  24.0571880  91.7508316  57.0143557
  24.5148969  92.9790592  57.7712822  60.6569576   0.8423933  32.2849393
  60.5614710  -0.1088040  32.2365856  61.5940094   0.9955178  32.1636534
  47.7565384 100.0681591  65.9429216  48.1039000  99.2758560  66.3525915
  48.4119177 100.7407188  66.1283255  43.6653614  25.2118826  58.1206656
  42.8275156  25.6629491  58.0168056  43.9848852  25.0912380  57.2264719
  17.0562172 104.7844887  21.0948014  17.8615868 104.5730209  20.6226850
  16.4020574 104.9114227  20.4076362  31.7021155  15.1497579  70.6956291
  31.9105577  14.7118866  71.5208912  32.4910450  15.6484318  70.4831505
  72.1118784 102.0252132  62.7887392  71.8214083 101.3952160  62.1292257
  72.8686857 101.6086388  63.2009745  40.6699514  86.8935966  15.6950724
  40.4590940  86.0971642  16.1823809  41.0376787  87.4855900  16.3512397
  69.0874147 100.4052925  54.6889162  68.6571836 100.7354164  55.4776812
  69.6949959  99.7383881  55.0087881  50.3348112  82.7277088  48.3838701
  49.7541857  82.2916603  49.0075493  50.8135509  83.3683109  48.9098549
  46.3007641  81.7862797  54.0468121  46.7466307  82.0654774  53.2471371
  46.1677408  80.8454800  53.9308596  85.2423573  13.2566464  93.4417248
  85.1733112  12.3791492  93.8178444  85.2612972  13.1110024  92.4958611
  57.0397472  31.1815286  38.4192157  57.4468327  31.4674664  39.2369914
  57.7351761  30.7146335  37.9559422  46.4541054  88.5327244  71.6114759
  46.3165855  87.6430607  71.2861776  46.6899872  89.0383434  70.8336926
  56.9147682   2.8190875  48.6927557  57.0598173   3.7634787  48.6351538
  57.7589893   2.4324815  48.4602499  20.4648042  82.7048683  32.7062535
  19.8402715  82.0625782  32.3691297  21.2650204  82.2027779  32.8604770
  43.0325365  99.9425983  33.5944271  42.1292305 100.0173187  33.2867122
  42.9562426  99.8700809  34.5458221  47.0863008 103.9393520  86.0047913
  47.4793863 103.4294891  86.7131424  46.3128185 104.3416309  86.3999271
  75.3025007  73.8208151  69.5536327  74.8682976  73.0710030  69.9604273
  74.6934271  74.1108608  68.8745689  52.7535486  97.2768879  58.3456373
  52.3528242  96.6695118  57.7237463  53.1392050  97.9606628  57.7979660
  29.2557502  88.4636402  49.7449684  29.6888089  88.0835247  48.9806366
  28.4432840  88.8342190  49.4002914  41.0172653  11.4237654  71.0132074
  41.5962553  12.1691751  70.8539534  41.6045427  10.7176590  71.2829256
  43.3452940  91.4509392  73.6991262  42.9097986  91.7711544  72.9091692
  43.2622194  92.1692371  74.3263197  95.0516701   6.7736387  32.6444292
  94.2303944   6.6278207  32.1748853  94.9727440   7.6607239  32.9952574
  87.7685261 108.2382584  50.7324553  88.5947609 108.5551929  50.3676128
  87.0939922 108.6675453  50.2061939  29.6773601  98.4515095  45.9316969
  29.3851995  99.0219402  45.2207279  30.2492070  99.0051651  46.4633846
  84.7092819 106.8478298  71.3351107  85.4169559 106.5861416  70.7460833
  84.4891357 106.0491943  71.8146467  88.6265850   9.7328049  23.8585854
  89.1297817   8.9295739  23.7249970  87.7598286   9.5341492  23.5043383
  30.9568691  97.4668789  36.8389392  31.6540170  97.8035259  37.4018693
  30.4410028  96.8982506  37.4105883  59.2832232  10.7670832  62.4317503
  58.5704994  10.1282680  62.4186802  59.9529600  10.3673863  62.9866648
  12.4353278  94.7500992  27.5209451  12.3262656  93.8194656  27.7165508
  12.4794507  94.7904778  26.5656161  20.6350350  96.2841702  70.8309889
  20.8880639  96.5307713  71.7205906  20.5074334  97.1179295  70.3784513
  18.8697851 103.2816315  60.1856661  18.4602797 103.9956951  59.6971464
  18.1599319 102.6578999  60.3382969  73.2165003  12.8866041  51.7082739
  73.6014938  12.7343726  50.8452320  73.5358715  13.7520385  51.9637299
  42.9937601  12.7081668  57.3312330  43.2763433  11.9873989  56.7683172
  43.0393839  13.4823346  56.7701483  98.2693291  20.8789253  86.4517117
  98.8521099  20.2144003  86.8191338  97.8787231  20.4579496  85.6859207
  15.6503999  68.9162397   1.6882215  15.5373776  69.8393869   1.4618069
  15.8082318  68.9187717   2.6323161  65.0122976  23.6647391  89.2299080
  64.3604946  24.1921091  89.6917152  64.5052624  23.1606221  88.5935116
  40.4257441  91.8200779  63.3401346  39.5556784  92.1754646  63.5215664
  40.8498573  91.7757893  64.1971064  80.2448463   6.2710559  56.4036322
  81.0199451   6.1525315  56.9526291  79.8556471   7.0893216  56.7121792
  65.1533318  17.1593606  78.0755997  65.2646589  17.7723515  77.3489046
  65.5670929  17.5941598  78.8212395  42.2859049  88.5007954  77.8808165
  43.0794239  88.8517380  78.2850409  42.3772287  88.7113953  76.9515467
  64.0451527 106.2056351  42.6848984  63.3849955 106.7607117  43.0999994
  64.1975975 106.6119385  41.8317223  99.5698738  11.2504363  51.8899155
 100.0754642  10.7128465  51.2803221  99.8645782  12.1453750  51.7211962
  47.6463747 101.7981052  50.7083130  47.1329689 101.6627216  51.5047550
  47.9703379 100.9265137  50.4811382  54.1464138  11.3918734  48.0873442
  53.7068033  11.7856348  47.3337412  55.0679827  11.3498902  47.8320360
  36.5269160  98.1782532  86.7721081  36.1052513  98.1240177  87.6297092
  35.8815718  97.8166962  86.1646175  55.6605339 108.4070110  82.4932289
  56.2831497 107.8512192  82.9619217  55.5382538 109.1647816  83.0651188
  40.2547026 109.0418339  21.6601062  40.7176113 108.3798981  21.1465096
  40.4312038 109.8650169  21.2046266  34.6274379 109.5740048  56.1087608
  33.7818625 109.1255135  56.1185265  34.9220708 109.5099096  55.2002907
  54.8298979  99.8511887  48.8237238  53.8960361  99.6874332  48.6921310
  55.1129580 100.2841854  48.0183506  20.4304457 104.6605301  78.1109810
  20.5906725 105.2385616  78.8569307  20.9237337 103.8656521  78.3136272
  55.5957985  70.9901667  72.5961781  54.6765471  70.9164190  72.8526354
  55.7280731  71.9261360  72.4455070  30.3994823  27.7977824   1.4032848
  31.2641096  28.1415343   1.1785972  30.2647233  28.0642366   2.3127210
  84.2030907   8.4284866  50.7642937  84.5289421   8.8532490  51.5577841
  83.7810802   9.1324794  50.2718163  51.7636681  79.1634369  62.0000458
  51.6731167  78.9269304  62.9231358  52.5260687  78.6686802  61.6997147
  94.5125294  12.0774531  37.2427869  95.3618813  11.9860852  36.8109488
  94.3622303  11.2280846  37.6577711  40.7256889  95.4532051  31.0480165
  41.4118433  95.7951546  30.4748750  40.2787781  96.2326813  31.3780451
  64.0380430  91.8910503  53.0640125  64.5381975  91.2533092  53.5732889
  63.6438084  91.3780212  52.3585892  10.6141841  87.4581051  55.9219599
  11.2116623  86.8352985  55.5080032  10.3433192  88.0389309  55.2109718
  49.7925901  96.2285900  84.8202419  49.4983959  96.1554337  83.9123154
  49.2481089  95.6040192  85.2995014  24.6608162  84.3363571  31.2644053
  24.6316767  84.4813728  32.2101068  25.4278898  84.8276043  30.9702897
  27.0239425 108.0772305  72.8026485  27.6574469 107.5271130  73.2633877
  26.7984271 108.7618065  73.4325075  13.0749834  73.6797762  80.4408073
  12.1326149  73.6757946  80.2730083  13.3185041  72.7543020  80.4614162
  65.4882288  15.4703856  58.1968737  65.7648420  14.6985376  58.6908007
  65.3758049  16.1514688  58.8599873 103.3825111   4.9759576  67.9340029
 104.0357876   5.5196428  68.3743143 102.5447655   5.3847748  68.1514502
  29.7039986 104.6440029  31.4808083  29.9498820 105.5330849  31.2252760
  30.5354619 104.2131519  31.6789675  26.1038566 108.5304165  69.3694210
  26.7393923 108.6052132  70.0812721  25.8505034 109.4335461  69.1786528
  55.6465550  88.3869267  94.8161862  54.9230488  88.6673379  95.3766682
  55.2211030  88.0290103  94.0370091  40.8870697 101.1059856  62.4529314
  41.1963987 101.4097786  63.3063078  41.5869761 100.5366230  62.1332693
  60.1798487   3.7213296  45.1768351  60.5952454   3.9043036  46.0195637
  59.2473793   3.8721815  45.3316689  86.2168980   7.5534135  62.8552485
  86.1611938   8.5089445  62.8647280  85.7255363   7.2925669  62.0763063
  67.4906445  80.7614708  64.4162798  67.6919460  81.6555309  64.6926069
  67.3715210  80.8247471  63.4686327  41.0446548 101.1185932  21.1206651
  40.1208067 101.1651039  21.3667893  41.4270639 100.4986954  21.7417312
 104.7436237  24.6857381  58.3891630 105.2685070  24.8008060  59.1812992
 103.8373089  24.7350311  58.6931229  85.4064369  13.5777926  39.3085170
  85.1526642  12.6988780  39.5901942  84.5805645  14.0580368  39.2490482
  92.4611378  22.3871303  52.2064161  92.0892239  22.3730969  51.3245392
  92.1974659  23.2349372  52.5640917  81.6419697  33.2374740  54.0245104
  82.0717335  32.4070883  53.8195992  80.9632874  33.3273983  53.3555222
 107.5902653   3.4126753  64.9779606 106.8437481   2.8418219  64.7961378
 108.3518124   2.9110771  64.6869564 101.5926456  35.4427552   1.7349483
 102.1719933  34.9605155   1.1450014 101.4118958  34.8295164   2.4473411
  81.9635105   6.3058871  47.5383282  82.5742912   7.0326263  47.6608706
  81.0993671   6.6930950  47.6782322  35.3673053 101.9152069  43.4307766
  35.6220007 102.2766590  44.2797232  35.2814078 102.6795769  42.8610468
  63.7280846 104.3415737  36.5160871  64.4056416 104.6432304  35.9109783
  63.3421850 103.5800362  36.0832286 114.3019962  36.5285301   0.8724647
 114.9277306  36.9065952   1.4903331 114.8176193  36.3563013   0.0846174
  88.5516644  18.9052391  60.2087593  87.9871368  19.1529071  60.9410143
  87.9607105  18.4902585  59.5804358  59.6246815  92.2483921  52.9920816
  59.7880697  91.6156769  52.2926474  60.0416660  93.0545521  52.6880121
 115.7637323   7.1782672  65.5212831 115.4787155   8.0801558  65.6682301
 116.7099472   7.2440708  65.3925228  41.7769957 102.0201206  74.4819832
  42.1218157 101.1444759  74.6568489  41.8673086 102.1284485  73.5352278
  61.2587595   3.7726080  66.6904116  61.2851334   4.0162358  65.7651091
  61.9277811   3.0937278  66.7785025  18.0889404 101.1847115  28.0105567
  18.9515162 100.8697319  27.7403975  17.5597835 100.3914928  28.0944514
  86.2150860   4.2223802  47.0953417  86.4168930   4.3696302  48.0193663
  86.7028522   3.4311271  46.8667936  81.3132668   3.3435565  43.7862730
  80.9444427   3.3591664  42.9031181  82.2103119   3.0320889  43.6657429
  94.8113728  36.8093228  91.4760590  95.7174587  37.1066427  91.5588474
  94.3587494  37.2111535  92.2176075  27.5010014  73.6609745  71.3584566
  28.3149266  73.9822531  71.7464447  27.3357224  72.8294468  71.8028402
  65.0012445  86.2584782  50.1498032  65.6913137  86.8810558  49.9208498
  65.4693365  85.4553509  50.3780842  32.7029300  91.2498665  55.3101301
  31.8311095  91.0831738  54.9518394  32.5740385  91.9683075  55.9293747
  20.6745124  75.2607584  67.8001976  20.3414702  74.5780897  68.3826733
  21.2122583  74.7905874  67.1630144  70.7071972  21.2006974  92.3034763
  70.1195717  21.9297075  92.5021553  71.5321684  21.4353704  92.7284241
  48.8564157 105.8781338  72.2064018  49.4598293 105.1634979  72.4099302
  48.7599039 105.8463764  71.2546110  88.4643650  46.3809872   8.4636581
  89.1697311  46.3417101   9.1095275  88.8248920  46.9027090   7.7466798
 104.1772175  16.4119375  33.3867955 104.4777203  16.8242967  34.1966653
 103.2256889  16.3660491  33.4801483  20.8122924 109.2673163  42.8037930
  21.4064601 110.0138806  42.8802156  19.9667695 109.6026303  43.1019402
  61.1336231  88.8789845  69.0943766  60.9168482  87.9910851  69.3787432
  61.6058302  89.2591476  69.8351383 108.2528496  11.2280715  35.9405684
 108.6062813  11.1063635  36.8217611 107.5583935  11.8779039  36.0486865
  47.0577097 102.4551868  63.4413242  47.5821733 101.6610241  63.5436583
  47.6133871 103.0452156  62.9320860  47.7717781  94.6445084  81.0110664
  48.1908560  95.2250862  80.3758144  47.5841093  95.2071381  81.7623711
  36.5235543  13.8224053  34.6323037  36.7394829  14.7417057  34.7888064
  36.3093257  13.7820101  33.7002611  38.4447885  97.7582455  49.1438818
  37.8525710  97.0435715  49.3778658  38.2489538  98.4486866  49.7772646
  33.5513306 107.2434425  42.6044989  34.1128922 107.3306656  41.8342590
  32.8876948 107.9245663  42.4954414  62.7575684  86.2114525  68.5473728
  62.1994734  86.5085506  69.2660475  63.4143114  85.6563663  68.9678478
  32.0912933  96.8750095  89.2701817  31.5375710  97.3247814  89.9083996
  32.8251219  96.5387344  89.7846222  56.0070324  80.2598476  57.2616053
  56.9237757  79.9860001  57.2330523  55.9248924  80.7359123  58.0879498
  24.5907950 110.0378513  33.6771107  24.2064452 109.2128754  33.3806014
  24.9209595 109.8464298  34.5549369  65.4450274   6.8695778  43.8223314
  65.5432510   7.4694836  44.5617199  65.7839298   7.3572075  43.0716038
  98.2281494  23.5636282  74.8140860  97.5138760  24.1380858  75.0898552
  98.4041405  23.0160642  75.5792189  25.3119493  98.2787037  62.5033522
  25.0390959  97.3646927  62.4234915  24.5024276  98.7798309  62.4045038
  40.4762077  82.6910686  53.2261705  40.5047464  83.0764389  52.3504353
  41.3521528  82.3278618  53.3566809  42.7486515  21.7452812  52.8497887
  43.2760477  20.9500790  52.7740574  43.2912588  22.4306011  52.4597311
  45.3091002  87.7920055  80.1105690  44.5978928  88.4307384  80.1599407
  46.0615253  88.2410908  80.4958153  29.3914604  83.0042648  36.6931629
  28.8912034  82.7410126  37.4656057  30.1162720  82.3803425  36.6531348
   1.5135556  40.5404806   8.1325263   1.4466026  40.8451128   9.0374833
   2.1697406  39.8442197   8.1621158  19.1160572  78.7117863  67.0324469
  18.3817172  79.3256903  67.0426512  18.9985442  78.2111883  66.2250900
   1.6570769  21.7469287  78.1932783   2.1908557  21.0858345  77.7525187
   2.2798178  22.2410798  78.7264204  43.0018234 108.4330177  69.8282146
  43.7617970 107.8896236  69.6198750  42.9208755 109.0276241  69.0824842
  82.1146297  27.7457452  55.4569530  81.9938278  28.1929445  56.2945986
  82.3696709  26.8546009  55.6957960   9.0754664  50.8584738  88.4698772
   8.3857453  51.4248514  88.8159084   9.0535480  51.0047722  87.5241852
  53.9329863   6.4810401  56.9452667  53.5151339   5.6645781  56.6713619
  54.4648838   6.7418528  56.1934090  64.4039488   7.6132691  54.5073652
  63.9351559   7.1527886  53.8113594  65.0519657   6.9811940  54.8184776
  17.7470839  82.6039791  44.9468565  17.7668309  82.3474216  44.0248919
  17.3014188  81.8803883  45.3873348  89.8229599   9.1359943  74.1832113
  89.1123104   8.9544117  74.7982121  89.5008755   8.8112503  73.3423615
  86.7151070  36.1754680   2.4286596  86.8279552  36.9158053   3.0248117
  87.0750237  36.4813399   1.5961124  27.8468728 100.6088352  92.1837807
  28.6969781 101.0408688  92.1007061  28.0147052  99.7000122  91.9345665
  53.2507372  86.0938549  46.0481739  52.4038935  86.2009621  46.4813137
  53.8668346  86.5687084  46.6059971  92.5750160   5.2705967  52.2664022
  93.2449532   5.8206344  51.8603516  91.9713116   5.0626415  51.5532875
  60.9680319 102.1045399  41.9333124  61.8241549 102.2437954  42.3381519
  60.3427315 102.2247791  42.6479959  92.1756649  16.2195933  46.3322353
  92.3702717  17.0652628  46.7362213  92.8849888  15.6463838  46.6229582
  48.2804394  68.1151342  63.2441759  48.0354071  68.9822245  63.5672045
  47.7200127  67.9768133  62.4806213 100.3764820  53.0540991  61.1515379
  99.9826050  53.7080431  60.5740929 100.9123707  52.5136757  60.5710173
  78.0886173  10.3479552  77.1275806  78.2009554  10.8576393  76.3251877
  78.7145233   9.6285880  77.0439816  81.6393566   0.0092118  64.9540567
  81.0063934   0.1572376  65.6566858  82.3946381   0.5455359  65.1951694
  53.3946133  75.2346230  61.3057280  54.1368437  74.8687124  61.7868042
  53.6070490  76.1627531  61.2073517  91.9215679   6.8294609  35.8689356
  92.7244854   6.6419435  36.3551378  91.2202358   6.4888549  36.4242268
  60.5983019  83.4641552  43.5946655  60.7986259  83.1899071  44.4895887
  61.4297104  83.7935162  43.2533121  43.5713577  91.2778950  30.8687115
  43.0176592  91.9960880  31.1750579  43.6346054  90.6872749  31.6193080
  55.1969671  78.3180618  72.0989084  56.0445118  78.4123898  71.6641617
  55.0110435  77.3798895  72.0602417  62.1112156  20.8298659  33.2552218
  63.0049896  21.1522508  33.3712482  61.8315601  20.5773449  34.1351414
  67.1827412  29.3520689  51.3699770  66.4845371  29.9663758  51.1433172
  66.7918491  28.7774611  52.0282078  26.7344046   3.6802581  53.4067726
  26.0412550   3.2014781  53.8612461  27.2152591   4.1253251  54.1045713
  60.6211758  92.3268795  56.2692833  61.5613031  92.1852493  56.1582184
  60.4860878  93.2419682  56.0231161   5.6343681  96.7689896  74.7977257
   5.4018140  95.8546829  74.9595642   5.8948815  96.7904854  73.8769102
  46.7434406  78.8466978  69.2990351  46.7258024  79.0223598  70.2398157
  47.0579720  77.9453230  69.2295456  67.1268845  15.6524384  85.5397606
  67.3566008  16.5365028  85.8259296  66.9081974  15.7499290  84.6129894
  42.1701050  15.8391845  27.6002383  42.6653290  15.7650006  26.7844677
  41.3017368  16.1351979  27.3272038  81.2105846   8.2413298  64.7118521
  80.6978798   7.9797548  65.4766703  82.0217609   8.5949171  65.0768089
  71.4231539 104.9137211  91.4486980  70.9814405 104.1189671  91.1495399
  71.5996981 104.7550201  92.3759937  61.3410187  99.2014122  76.0687017
  61.8046474  99.7176838  76.7280483  61.1008310  99.8356819  75.3932428
  42.6819849  73.3505154  56.7124510  42.4810076  72.5090742  57.1221113
  41.9347811  73.5224676  56.1394310 105.8277988  14.2488647  41.1245584
 105.3751469  13.4145856  41.0008001 105.3004551  14.7133744  41.7744637
  28.7573242 107.3122406  51.1501694  29.4402647 106.7577457  50.7728767
  28.6473751 108.0213356  50.5166626  27.7739739 103.5538483  59.2705059
  28.6133695 103.6379433  59.7228050  27.1516395 103.3255577  59.9610233
  64.9233580  86.6568279  25.6142163  64.5448542  86.1355209  24.9062562
  64.8477745  86.0995579  26.3887978  92.7376747  72.7050972  92.5117779
  93.1568241  72.7104712  93.3723164  92.6067543  73.6301136  92.3033619
  73.6794806 109.3056583  54.2576122  73.0936670 109.7416878  54.8764277
  73.0982780 108.7826347  53.7054491   3.3201727 105.7794285  80.1617813
   4.1069975 105.5876827  80.6720543   2.8317609 106.4025402  80.6997585
  49.0071106  12.3685598  57.7706051  48.6459780  12.0548010  56.9415283
  49.9293995  12.1140313  57.7417231  44.7448874  79.1440821  54.8073959
  45.4770374  78.7185526  55.2536154  44.1951656  78.4208107  54.5058584
  52.5718117 101.3308334  53.0470705  53.0876017 102.0909882  53.3160591
  52.5344467 101.3923454  52.0925808  20.4588532  75.2317905  59.3445158
  20.4358768  75.5865717  58.4557915  19.5446110  75.2365398  59.6280146
  46.7008543  91.2959003  52.6052809  46.3688231  92.1038437  52.2138453
  46.5075874  91.3848686  53.5385323  43.8866806  91.9940472  51.7186594
  43.3379793  92.0261192  50.9349918  44.2265368  91.0993958  51.7366362
  47.4340343 101.4932346  56.9824505  47.3055506 101.5298176  56.0346174
  48.1214046 102.1363926  57.1559763  52.9045248 107.2436905  64.7208786
  52.7084589 106.8187523  63.8858843  52.5987720 106.6235638  65.3828335
  95.4828644   0.9035794  89.4668293  96.2624359   0.5073920  89.8561001
  95.6783581   0.9472390  88.5308266  63.1367397  83.1265831  26.1831737
  63.7978029  83.3609104  25.5317760  62.3772383  82.8562641  25.6671166
  31.8777537 103.2112980  50.0255251  31.5242791 102.6213646  50.6913042
  32.1710134 102.6312160  49.3228674  55.2445602  81.1410999  53.0585957
  54.8759508  81.6821194  52.3602772  55.3896379  80.2880287  52.6494026
  41.8004322 106.7890453  75.7606602  41.1759090 106.0999298  75.5341053
  42.6363325 106.4786053  75.4126358  97.9780978  20.8477616   0.3536571
  97.1793944  20.3581118   0.1573337  98.6502022  20.1752686   0.4643691
  58.2287502 106.1564350  66.6978025  58.3158827 106.0856438  65.7472086
  59.1272545 106.1111069  67.0247126  39.8727250 101.3616943  30.3068161
  39.8780656 102.2498703  29.9499416  38.9743519 101.2308788  30.6102037
 112.0971775  29.6645975   8.7921280 111.9363785  29.5847607   9.7323412
 111.3366795  29.2515349   8.3831525  61.3083935 102.3816776  62.4957228
  60.8204746 103.0222130  61.9781590  62.1561575 102.3145390  62.0563841
  17.8907502 102.9528427  78.8603592  18.2627559 103.3313465  79.6569633
  18.6501145 102.6550674  78.3594322 114.9256942   0.3630818  48.8646317
 114.4880340   0.7347191  49.6305084 115.3596875  -0.4235278  49.1949940
  17.0902586  96.0197926  27.5899339  16.3503480  95.8098507  27.0201182
  17.8157747  95.5020428  27.2409463  92.0304298   8.6569297  87.4599648
  91.7108440   8.3393854  86.6154194  92.4295330   7.8891015  87.8691006
   2.3489635  66.3245249  54.8387241   2.5052294  66.9467545  54.1283464
   1.5331139  65.8857584  54.5976686  45.0479031 102.7448463  38.0663824
  45.5449152 102.4271679  37.3125315  44.1324329 102.6788902  37.7947259
  65.5025339  89.2381191  33.6246276  65.3446960  88.5443687  32.9842877
  66.2880945  88.9568901  34.0937042  52.8217983   9.0502214  57.5979233
  53.1168699   8.1420326  57.6639462  52.6096249   9.2991209  58.4975147
 112.2888088   8.1956774  53.0869913 113.1109142   8.4120029  53.5269690
 112.5072956   8.2009530  52.1550751  60.6492567  88.8215637  31.9696879
  60.3686428  89.7245312  32.1184587  61.5316820  88.7811470  32.3383713
  88.1282425  14.0024102  38.4244537  88.4732151  13.3177388  37.8513455
  87.1987820  13.7926221  38.5156393  79.7894526  24.0392733  48.9615870
  79.9981642  24.9276924  48.6728239  79.8219156  24.0841889  49.9171782
  34.7882748 108.0507851  32.9320121  34.9130130 108.9743805  33.1503010
  33.9105201 108.0108547  32.5522995 110.5317211  24.7835016  70.4287004
 110.9401417  23.9806247  70.7524443 111.0636997  25.4884934  70.7977676
 113.9638424   3.6992404  38.6219788 114.2608547   4.1975617  37.8606057
 113.5975647   4.3583488  39.2115951  22.7013326  91.2740707  41.6843367
  23.1449556  92.1216679  41.7159843  23.1631136  90.7873917  41.0015965
  23.4803796  82.7528572  56.9775915  23.6406922  81.8838215  57.3454332
  22.5393009  82.7693462  56.8034315  66.2444162 104.1839027  31.7472458
  66.0977459 104.1021252  32.6896000  65.5865431 103.6119270  31.3519311
   7.6566762  80.6857586  46.3721085   7.8296304  80.0680923  45.6616116
   6.7776191  80.4604816  46.6766405  40.4083729 104.5457268  52.9456377
  39.8301053 104.6233654  53.7044621  40.8325434 105.4012394  52.8792286
  55.6399107  92.3400497  81.6005421  55.7921028  92.9879284  82.2885227
  55.5453396  91.5107727  82.0691586  38.3924985  80.8413887  64.3982458
  38.1988692  79.9341440  64.6341324  37.8742313  81.3638496  65.0103474
 115.2691555  34.7532058  60.4028797 116.0484886  35.0877571  59.9590874
 115.5179024  34.7134590  61.3263369  63.2465982  92.5848961  55.4134321
  63.3118773  92.2888374  54.5055103  63.3637667  93.5336590  55.3649902
  87.8777981  90.2571774  39.2207766  87.4562359  89.5069027  39.6398377
  87.9501152  90.0075531  38.2995319 109.2366219   5.6050390  40.6085253
 110.0356197   6.1092180  40.4548025 108.6544514   5.8540499  39.8906755
 102.5360680  29.5084357  73.2684040 102.3081112  28.6756945  73.6816978
 101.8239784  29.6717262  72.6499414  44.4978428 108.9410496  40.7305145
  44.7714233 108.8219833  41.6400242  43.6595011 109.3990993  40.7905769
 105.6565857  21.0656047  60.1128244 105.5500126  21.7344832  60.7891941
 104.8997784  21.1829114  59.5386124  70.1397419  17.6388371  66.6264772
  69.4485807  17.5549424  67.2833538  70.3891802  16.7369986  66.4247370
  43.8177347  96.4296627  43.1326103  44.0639639  97.3415565  42.9775572
  42.8956699  96.3842201  42.8796911   2.3683330  17.2930264  69.6007204
   2.4640548  17.6000082  70.5022907   1.7093039  16.6007328  69.6521235
 114.5242882  16.8883646  40.2702618 114.4941521  16.0879469  39.7461891
 114.7554207  16.5901101  41.1499548  82.4451637  15.7037020  51.8290281
  82.1479702  16.3942695  52.4214983  83.2263756  16.0662842  51.4113283
  79.0896273   6.2813646  50.5023575  78.4275818   6.2815231  51.1936808
  79.8684216   6.6531503  50.9164572  46.7673588  94.9287605  40.3077841
  47.3518372  94.6163273  39.6171331  45.8933496  94.6664810  40.0187349
  38.1506133  75.4095221  65.0454569  37.8138232  74.9952221  65.8399153
  37.7692151  74.9008179  64.3299198   8.1546295  12.8302240  53.5930443
   8.3425701  12.4989665  52.7148771   8.0280495  13.7712705  53.4720469
  84.0494156  29.5999217  35.0247622  84.9646950  29.8080230  35.2123690
  83.9615059  28.6754990  35.2570248  52.8191614 109.5542908  60.8565998
  52.3129368 108.7472153  60.7638788  53.4441853 109.5295620  60.1320553
  63.7683344 104.0042686  40.8485937  63.6475706 104.5366669  40.0623322
  63.5505962 104.5923138  41.5717983 101.7194366   3.4009987  42.1894646
 102.3480034   3.2834557  41.4771938 100.8784389   3.1436983  41.8116379
  84.4830894  31.2456679  90.8721066  83.6260986  31.5004921  91.2139320
  84.6609974  30.3979158  91.2794113   3.0014729   2.6273698  49.2044640
   2.4664024   2.1607584  49.8464966   3.5152557   1.9419032  48.7773895
  21.0883021  13.7071073  21.8833423  20.8105779  13.1105149  21.1882329
  22.0235038  13.5326862  21.9892120  85.6377602  10.6040084  69.5760679
  85.9864426  10.4560888  68.6969948  84.8275471  11.0932600  69.4331694
  78.2528782   0.2915130  62.0146656  77.5585175   0.5427001  61.4055681
  78.8484240   1.0408572  62.0211697 114.9077415  47.5611305  48.6042070
 114.8244858  47.4338388  49.5492458 115.3517628  48.4043360  48.5142994
  82.3815536  13.0536962  52.0579004  81.6891098  12.6885247  51.5070820
  82.1687222  13.9845514  52.1245527  31.5846872  93.8883400  86.4590645
  31.4513278  94.7723293  86.1170101  31.5895104  93.9976692  87.4099827
  55.7352400 108.0844307  53.5562420  55.4889202 107.5420189  52.8070116
  54.9109125 108.2490158  54.0140915  74.6844864  82.0741177  47.6969194
  75.0728416  82.8518581  48.0975914  75.3209114  81.8022156  47.0356607
 105.0758266  22.9073095  53.6228704 104.7309208  22.0154524  53.6660242
 105.5646229  22.9355431  52.8003645 115.1094723  38.0230308  41.7036915
 114.3781853  37.4876475  42.0116234 115.0310230  38.0097651  40.7498026
  79.6183968   8.8640779  25.4138780  78.8591719   8.3881527  25.0772667
  79.2494440   9.6517718  25.8134317 108.2960320  97.7760410  32.0724010
 109.2162991  97.6648331  32.3111033 108.0355167  98.5933590  32.4970818
 107.2711277 107.4757957  67.7044868 108.0556393 106.9411278  67.8265905
 107.5231934 108.3453751  68.0151892  32.4026418  82.8904057   0.9643354
  32.0918632  83.7796402   1.1343299  31.6093349  82.3936176   0.7640684
  65.6050158  14.7658885  64.1550303  65.2014256  14.8541129  65.0184870
  66.4401531  15.2271283  64.2327404 100.8633232  34.1073322  50.7271338
  99.9886894  34.4957185  50.7472515 100.7108879  33.1682873  50.8329010
  63.5356998 108.7278366  76.2959671  64.3692780 109.1981316  76.2818527
  63.5973072 108.1093025  75.5680561  89.4237232   4.6879131  47.7876472
  89.3352604   3.7350151  47.8074217  89.2535496   4.9253926  46.8761253
  68.6395931 104.1354275  45.0690794  68.7657642 103.7066555  44.2226362
  68.2919788 103.4474468  45.6366062  50.4600477 105.7589626  56.0475779
  49.9286747 104.9752522  55.9073448  50.7704687 105.6796265  56.9495630
  54.3064022  90.5122089  40.2536678  53.6142826  91.0316467  40.6627941
  54.2398262  90.7167721  39.3209553  20.7826900  80.0843906  76.0416031
  20.2240872  80.1582718  75.2678204  20.1936793  79.7860098  76.7346144
 105.2543640   6.0976595  69.5011520 105.1570129   5.4523468  70.2013874
 106.1788464   6.0493767  69.2577839  21.9309425  72.9607868   7.7985191
  22.7656007  72.5167370   7.6488543  21.5827775  73.1184340   6.9209325
  67.0888901 106.6988659  40.9518671  67.8316593 106.5075874  40.3792095
  66.9213009 105.8752728  41.4099407   7.3311627   2.1614970  19.6596825
   6.8599963   1.8675584  20.4393196   8.0074388   2.7495122  19.9960172
  33.7075925  96.5043736  76.6028690  33.5366440  95.5874348  76.3878298
  32.8385496  96.8931580  76.7020607 108.2064056  36.5707254  66.1818933
 107.8352928  37.3779273  65.8256292 107.4477863  36.0712337  66.4839458
  97.4457836   2.3824891  54.2383003  98.2723713   2.1922271  53.7947035
  97.2101688   1.5605688  54.6686077  76.6096878  31.4260864  31.9447398
  77.3373604  31.9768977  32.2334075  75.8259201  31.9275284  32.1694493
  43.5092545 102.3494625  76.6601562  43.0209541 102.7550697  77.3765850
  42.8699112 102.2636604  75.9529686 108.9716148  10.8918571  12.3659909
 108.3616161  10.3887963  12.9054856 109.1830063  10.3091002  11.6366470
 113.9856336  71.1958931   0.4654849 114.4024560  71.8325983  -0.1151120
 114.2571732  70.3447472   0.1219047   2.2412972  17.4530089  56.2202835
   2.7180842  17.0160484  55.5146122   2.8748339  17.5144184  56.9351912
  49.7128248  11.7559516  46.0321903  48.8823175  11.8145275  45.5598974
  49.8929739  12.6533997  46.3121319  59.5464230  97.4089146  61.1989927
  58.7188816  97.7507401  61.5374613  60.2045393  98.0372620  61.4961195
  99.4637775  42.0286560  60.1859379  99.2021370  42.7063227  60.8092690
 100.3629494  42.2556114  59.9488258  15.3648365  96.4179420  84.9367237
  15.7744431  95.9365845  84.2178631  16.0996461  96.7798710  85.4319954
  67.0831728  87.1309566  68.9163351  66.4455032  87.6620483  69.3933678
  67.0370054  86.2701416  69.3323803   9.4414860   7.9961532  59.6215010
   9.6187115   8.8237882  60.0685406   9.0802974   8.2545042  58.7735462
  71.3592768  15.8502674  52.5837612  70.7433748  15.4216743  53.1780720
  70.8137751  16.1768830  51.8682289 105.8296967   8.4610826  50.7419300
 106.4181042   8.9136130  50.1375914 106.3070679   7.6707155  50.9942484
  59.7293377  96.8593502  38.2584763  60.4273987  97.4309540  38.5781741
  59.0915823  97.4561214  37.8668666  96.4361286  38.7673759  82.2528744
  96.3941097  39.0543342  81.3406658  97.3450756  38.9209747  82.5106525
  45.8684731 109.6216965  19.6562243  46.4915895 108.8972282  19.6004534
  45.4978466 109.5516491  20.5359745  62.9371881 105.7847214  33.7147498
  62.6406145 105.2303886  34.4365501  62.7434683 106.6768074  34.0026402
  98.6209965  25.6618619  14.6821606  97.9553986  24.9739742  14.6778524
  98.3463955  26.2651706  13.9916193  21.6888595  31.3972473  41.5868950
  22.0874882  31.2700987  40.7259846  21.3136101  32.2770333  41.5495062
 101.8874836  23.3323216  51.6238928 102.1558857  24.2509246  51.6049051
 102.5615692  22.8753901  51.1208487  67.1063900  36.5483046  53.2253981
  67.7808046  36.5682411  53.9043617  67.5377083  36.9048762  52.4488354
  44.5099783 100.4216576  50.7357359  43.7419224 100.9839344  50.6348991
  44.9539804 100.7598782  51.5133619  72.5135612 107.7271080  63.0403233
  71.7684364 108.1976891  62.6667309  72.2110653 107.4466896  63.9040899
   0.2969673   9.6889037  71.0090399   0.0736561   9.8149282  71.9312525
   1.0644477  10.2438784  70.8704424  65.3879404 106.1587524  76.0711336
  64.5997620 105.9102535  75.5881643  65.7728720 106.8660831  75.5536985
 106.2847519   5.9007001  48.9384985 106.5668869   5.9805107  49.8496819
 106.7428207   5.1258415  48.6129236  85.5210304   1.0158011  67.2461939
  86.3707352   1.3746777  67.5019932  85.3458118   0.3314388  67.8920937
 102.0741940  17.5236118  80.4429150 101.5127850  18.2073951  80.8082771
 102.9469776  17.7243531  80.7808304  38.5342693  75.7110453  60.7966042
  39.0367508  76.4369583  61.1664677  37.7859306  75.6132412  61.3853788
  83.7699699  18.6327374  66.2148476  83.5534859  17.7224171  66.0131454
  84.1997337  18.9576840  65.4236794  44.2520046 106.8950653  59.3795919
  44.3650866 107.8453636  59.3602180  43.8483620 106.7191696  60.2295160
  45.7214403 101.4573669  18.8845444  44.9638224 100.8723736  18.8902640
  45.8872032 101.6436195  19.8086989  27.3908973  85.6916428  80.9465218
  26.9915342  84.8231411  80.8970642  27.6099491  85.8022022  81.8717289
  97.3536873  36.0383320  72.2563028  96.4093399  35.9292436  72.3682785
  97.7407074  35.3699446  72.8217268  45.0259972  83.6858368   6.5759873
  44.7415972  82.9678726   6.0104078  44.6143818  83.5028744   7.4205768
  80.3751850   4.7684634  45.9939528  81.1372185   5.0717425  46.4874554
  80.7412529   4.4040176  45.1880980  64.5780897  96.5622139  24.2308426
  65.0462103  96.7754936  23.4236217  64.5287180  95.6062984  24.2336535
  60.2369118   4.9947792  71.2825251  60.6604290   4.3202260  70.7516384
  60.5373240   5.8210868  70.9041023  47.7653599  99.5609283  74.0004444
  46.9445276  99.4827461  73.5142803  47.6821375 100.3851509  74.4799805
  88.8900089 106.0441494  57.8074789  88.6298847 106.3608170  58.6725187
  88.9159393 106.8305492  57.2623682  97.7707100  39.2291284  21.4323592
  97.7018738  39.8325396  22.1722174  97.9055500  38.3711600  21.8347740
  69.5642710  93.6241531  49.2750311  68.7894821  93.6843491  48.7161827
  69.2159986  93.6091137  50.1664972  89.6773338   3.6735019  35.9690762
  88.7210083   3.6562037  36.0062480  89.9273205   4.3817019  36.5625310
 113.2526398  35.4505849  62.8894711 113.0324173  35.7298994  62.0008135
 112.4059582  35.3299522  63.3193636   0.5334203  41.4216614  73.3052063
   0.0941606  40.8199739  73.9062548   1.4662673  41.2936544  73.4773779
  89.9128723  11.2385666  90.0283718  89.8616505  12.1466184  89.7299671
  89.4940376  11.2453103  90.8890533  74.7440434   4.0827051  49.5654869
  74.6636057   4.7191322  50.2759266  75.6796980   4.0653211  49.3642950
 110.3222084  33.5369945  48.4370852 109.4639587  33.4701180  48.8556290
 110.7752228  32.7325153  48.6897135 113.5926819  75.9764338  19.2671430
 113.3543110  76.7256546  18.7211728 113.2791328  76.2077904  20.1414371
  50.7713318  98.5209274  38.5115647  50.5139828  98.6376381  37.5970268
  49.9921227  98.7623692  39.0123320  79.0938377  13.8358736  37.2711182
  79.7683477  13.1608510  37.1962261  79.5802689  14.6429026  37.4393988
   4.9323124  16.7660296  41.3613224   4.1609609  16.4998448  41.8617201
   5.1026231  16.0296512  40.7739782  21.5810728  28.2992601  72.9230070
  20.7056260  28.4045291  72.5505257  21.9690013  27.5806522  72.4236631
  57.0127439 103.2669830  59.3618774  56.2463617 102.9096889  58.9132833
  57.5777769 103.5822868  58.6565018  48.2753563  31.5497780  60.0539112
  48.4924650  30.6906915  60.4159451  49.1106129  32.0165467  60.0273800
 106.2624168  63.4673405  55.6612301 106.5858459  62.6936293  56.1227465
 106.2470341  64.1545630  56.3273573   8.1074709  55.7495832  63.8455200
   8.0119652  56.7019129  63.8588476   8.1972843  55.5308342  62.9179907
 113.0386162  13.9060104  72.8328180 113.0358505  13.3489454  73.6112118
 113.7274361  14.5490479  73.0009270  58.2394409  58.8626194  89.3399620
  59.0636730  59.1146231  88.9235783  57.9859209  58.0521774  88.8982105
 100.5300617 107.5148487  88.2393456 100.3353596 106.6160488  87.9738712
 101.2604046 107.7772141  87.6790047   9.5018011   3.3539146  67.2229052
   9.3447119   3.0305195  66.3357925   8.8757175   2.8756812  67.7665424
  88.6184788  91.2833309  59.2936230  88.0536938  90.5822849  58.9683628
  88.3092880  91.4459705  60.1847887  88.3734798  85.8131790  71.6769981
  88.8883114  85.0295544  71.8696690  87.4645424  85.5138588  71.6984749
  59.4914246  97.8209496  21.0993075  59.6769238  98.7316036  21.3285041
  59.4349623  97.3688316  21.9411111  96.1682224  11.6717410  28.1999373
  95.8507633  12.3640883  28.7796855  97.0572186  11.9413817  27.9692698
  20.2157950  33.4250116  67.6354790  19.6717763  32.6390600  67.5849533
  20.0866890  33.7487626  68.5269642  91.1767673 109.7761631  42.1142149
  91.2537861 109.4546127  41.2159348  91.1839008 108.9851570  42.6531935
 115.6537437  27.8992248  43.1437826 115.5239773  27.8206968  42.1986771
 115.4259109  28.8074994  43.3421755  16.0195100   2.1338397  45.9253407
  15.1508081   2.3900078  45.6155586  16.4698637   2.9626852  46.0879135
   7.8963500  35.1702809  62.1858692   7.9474318  34.5335817  61.4729643
   6.9617057  35.3574061  62.2733641  47.4040842  24.4304824  38.5714436
  48.0537939  24.7586370  39.1930723  47.3577929  25.1057076  37.8945684
 115.6655312  46.2072229  64.5411301 116.0523129  47.0554543  64.3239927
 114.7239113  46.3754511  64.5768547  37.9187179  49.9310684  69.6258307
  38.7000346  49.6554947  69.1464186  37.2667527  50.0984716  68.9452791
  85.9907627   8.2826513  71.3805056  86.0793114   9.1094327  70.9063530
  86.8902016   8.0247927  71.5823746  67.6668835  95.2015591  58.6652613
  66.8348312  95.1962185  59.1384363  68.3057737  95.5103207  59.3076897
 105.9015369   1.1923251  70.9836864 106.6788006   0.6336869  70.9882545
 105.6717205   1.2905145  71.9076872 104.1613865  18.1802118  44.0782976
 104.9948406  18.4617305  43.7010384 103.5000229  18.6733866  43.5928965
   9.3987405  22.6810384  48.8668633   9.9865031  22.3169136  49.5288181
   8.5808688  22.8443837  49.3365860 102.4263382  16.3794696  49.8985720
 103.1931591  16.9239521  49.7203827 102.7622604  15.4831755  49.8920536
 108.2717705  79.6036863  38.5791969 107.8154182  79.2282534  39.3322062
 108.5883141  80.4520416  38.8895512   8.0143625   9.7787035  58.0167627
   8.8525951  10.1958072  57.8177071   7.6660156   9.5216894  57.1630478
 111.5334892  95.7163143  37.3826647 111.2029552  95.3061104  38.1818581
 111.6484165  94.9896240  36.7703366  70.1587725  72.4298763  52.8220797
  69.6698380  71.7747307  53.3200359  69.5947552  72.6337051  52.0760441
  57.1574545 106.8488216  39.7527289  57.1322203 107.0169735  40.6947041
  57.3170853 105.9077072  39.6816278   4.2279142  34.9300838  54.8260832
   4.6160033  34.7100997  55.6729746   4.9456483  35.3213859  54.3281126
  21.4794230   5.0509548  25.0427794  20.7220340   4.5431221  24.7517467
  22.2022700   4.7350293  24.5006394  13.9255786  54.7136068  22.4120784
  14.7305965  55.1892376  22.2072482  14.2172265  53.8241625  22.6122332
  13.9527690  39.6718287  53.7592602  13.8161349  39.2345238  52.9188299
  14.0762866  38.9570975  54.3838692  30.6298089  21.4916253  45.3861713
  30.1335669  21.2338996  46.1630583  29.9668241  21.8081856  44.7725964
  81.9185983 109.0212704  44.2763567  81.5860234 108.1750413  43.9771557
  82.8619342 108.9766325  44.1202927  12.3552823  10.9927630  39.5862818
  12.0600939  11.7335093  39.0567613  13.0805540  11.3423514  40.1039696
 107.1336651  22.2175026  78.8112879 107.0772934  22.0661211  77.8678179
 107.3374939  23.1492090  78.8926077  89.9094582  59.2919683  24.6397090
  90.3895950  58.4706926  24.7455287  89.1188812  59.1768646  25.1669407
   8.0649716  20.8774734  19.6036458   7.3358154  20.2697372  19.7270191
   8.8334775  20.3942919  19.9072349  24.6928430  45.8781004  89.7927952
  23.7384653  45.9155560  89.7296143  24.8609376  45.4850769  90.6492424
  13.2661152  28.8402653  12.6290989  12.3229480  28.9969754  12.5831652
  13.3494127  27.8871393  12.6581144   2.6242045  44.1604328  69.7549295
   2.3349945  44.8513222  69.1588926   2.2084552  43.3658409  69.4202614
   2.6630768  54.2160654  30.1177335   1.8113360  53.8175201  29.9390364
   2.4558304  55.0225639  30.5897880 105.5748081 109.3667126  55.8421040
 104.8004055 109.6766853  56.3116217 105.2322102 108.7475395  55.1975298
  99.5948982   2.1676455  40.7803154  99.2257404   2.0443308  39.9058127
  98.9668179   2.7348006  41.2276316  18.4241271   6.3901567  42.0611620
  18.1581378   6.3308084  41.1435795  18.5081077   5.4800409  42.3455334
  39.0418482  28.4933639  59.7701597  39.4117928  28.1958079  58.9389992
  38.1261778  28.2163858  59.7375917  34.7464442   4.6489066  49.9210405
  34.3597627   4.0374786  49.2942524  35.2651429   5.2471727  49.3832111
  91.7181110  23.0503702  37.1549773  92.1413040  23.9088702  37.1657872
  91.2261295  23.0155158  37.9753208  29.4016337  42.0725584  56.6411209
  29.1021967  42.5232172  55.8515167  28.6127210  41.9733953  57.1740484
  92.1678734  32.7482367  49.8234844  91.7283916  32.3621130  49.0658617
  92.5516605  32.0019007  50.2838373 112.8805447  47.1237803  78.3665180
 113.3432579  46.3573360  78.7051725 113.0946445  47.8243780  78.9826012
  18.2153511  46.4753962  28.5252714  18.8721311  46.7664099  27.8926706
  17.4655581  46.2158680  27.9898381  97.2526932   4.5684102  55.7621956
  98.1319141   4.9017003  55.9414387  97.3954868   3.8040751  55.2039528
   4.1429165  42.4974871  31.0987067   3.7575319  41.8525505  30.5056047
   4.9403048  42.7852631  30.6541991  30.9023428  42.4796820  27.0082712
  30.1426148  43.0448914  27.1482158  31.4546013  42.9676294  26.3974094
 115.8892062  17.3378932  56.8059444 116.8173268  17.4845707  56.6234350
 115.6525398  16.5899575  56.2574816  70.5453491  97.5894260  10.5891371
  70.5175495  98.5054588  10.3128409  71.2751627  97.2129631  10.0973296
  29.2907500  18.9739609  58.6770010  28.9526010  19.4067574  59.4609499
  28.5186338  18.8338077  58.1288862  33.4783268  17.3769784  70.3477907
  33.5274744  17.4493206  69.3945980  34.3750095  17.5292957  70.6461048
   9.6706355  38.7949038  76.3226557   9.2214578  39.3289566  75.6674767
   9.1632026  37.9841137  76.3595676 107.2065926  48.1164789  39.8776913
 107.9138088  48.6957312  39.5938778 107.6507378  47.3174334  40.1613951
 108.2477856  38.2532215  43.6513186 108.6114120  38.3500504  42.7711916
 108.2242393  37.3076248  43.7980461 114.2051411  15.0864434  57.7669764
 114.0614510  15.3229296  56.8506479 113.4365749  14.5673132  58.0037165
  15.3871691  55.5608845  29.6229815  14.7482514  54.8519087  29.6962762
  14.8724484  56.3598633  29.7366571  92.1440315   9.5504832  52.5237608
  92.0746994   8.6166185  52.7220583  91.2375546   9.8435497  52.4308348
 101.9954395 101.7391205  54.3395329 101.3758755 102.3247051  53.9042568
 101.4661407 101.2634182  54.9796677  87.8079033  20.4348087  34.1865873
  86.9698429  20.3029537  33.7432981  88.2451820  19.5852268  34.1297746
  36.4287877  38.0557489  65.5152178  36.5494394  37.4669385  64.7702503
  36.2132645  38.9006209  65.1202869  44.2836905  10.1804388  59.5715380
  44.5028210   9.5798880  60.2839661  43.6168289   9.7173679  59.0644979
   6.6208130  12.0953608  55.7604361   7.1343881  12.5038290  55.0635672
   7.0850015  11.2809718  55.9541655 114.3755531  48.5060740  70.9270906
 113.6244965  47.9334164  70.7714844 115.1125717  47.9072094  71.0470629
 106.7374897  27.7834487  63.3904219 106.2303829  27.0222163  63.1082869
 107.4107552  27.4223757  63.9671135  10.2089620  26.1918378  22.0612025
  10.3688848  27.0818067  22.3752284   9.2596942  26.1449242  21.9475269
  13.9915276  22.2441792  64.1343021  14.4249296  22.6152945  64.9028540
  13.0597556  22.2622466  64.3527222  61.0443735  93.2405853   6.0673088
  61.3751411  92.9252911   5.2262300  61.3671780  92.6042652   6.7053723
  19.2909229  29.5512199  19.5076811  18.4877455  29.7735739  19.0368330
  19.9427724  30.1674700  19.1736758 113.1904411  12.1163607  59.4988871
 113.9619637  11.7536116  59.0636969 112.8781128  11.4082873  60.0621939
 115.2042770  24.7769690  39.0424299 114.5142174  24.4032669  39.5905113
 114.7348690  25.2648091  38.3657503   5.5856800  45.3144455  43.5279512
   6.0756993  45.4945517  42.7256584   5.4840750  44.3627071  43.5379982
 104.5609951  11.6446197  38.6555672 104.1636658  10.9261858  38.1634212
 104.0778351  11.6650796  39.4816208   3.4782398  32.2405577  53.2833719
   3.3937508  31.5154290  53.9024687   3.3206093  33.0244088  53.8096428
  19.5644057  53.1068659  16.0433161  18.6091626  53.1039906  15.9822047
  19.8541725  52.5928545  15.2896166  80.4939651  24.6807146  59.9409771
  81.4163780  24.4282413  59.9815798  80.4222298  25.1976442  59.1385651
   5.3781259  64.7370005  15.9762144   4.6746045  64.2232561  16.3728940
   6.1061490  64.1212749  15.8919930  96.2456417  15.9595633  71.0212708
  95.6859303  16.6146326  70.6043291  96.6813469  15.5179083  70.2923441
  22.0683408  54.0044451  86.4982319  22.2378159  53.3228397  85.8479023
  22.9377866  54.2784739  86.7901325  17.1857369  44.8691273  35.6501269
  16.8123937  44.9475718  34.7722363  18.0245173  44.4281483  35.5151629
  25.5349708  25.1666141   7.3146087  24.8168087  25.2059031   7.9462183
  25.1020050  25.1040578   6.4632225  21.1357903  55.6289291  33.2442856
  20.4218960  55.0646877  33.5413003  20.6976676  56.3620853  32.8121328
  24.7414255  62.4456882  32.7398109  24.9431801  63.2657814  32.2892857
  25.1718330  61.7714453  32.2140980 114.0955257  50.1418257  30.2234006
 113.9958191  51.0312033  29.8838520 114.4233131  49.6367216  29.4793200
  27.0972395  31.7054462  70.5517054  26.7355514  32.5703120  70.7451534
  27.3374081  31.7478418  69.6260929 109.1257858  28.3629322  11.4500356
 108.2719517  28.4792924  11.8667662 109.5181561  27.6213789  11.9108748
  24.6823144  51.3826084  38.9599109  24.1395545  50.8941889  39.5788527
  25.1847625  51.9865799  39.5067143  50.8849001   7.6695055  36.8168736
  50.6849575   7.0586783  37.5261998  50.8146381   8.5351539  37.2193003
 101.2348175  27.9610872  40.8879900 100.9179497  28.2344317  40.0271130
 101.4418221  27.0324278  40.7832384  96.7999268  45.2128410  53.2035065
  96.2848854  44.4074106  53.1562090  96.6342545  45.5517673  54.0832329
  45.1949930   4.8025566  48.8532448  44.6181440   4.1600108  49.2662907
  44.6404696   5.2433610  48.2094860  91.0331535  23.5777378  33.8255262
  91.0128021  22.6986456  33.4473562  90.4258251  23.5348511  34.5641398
 104.1445923  44.3720579  51.7674446 104.5924664  45.0615072  52.2576475
 103.3302879  44.2261600  52.2489548  74.6727467  60.6396103  53.0838394
  75.4669333  61.1671591  52.9990292  74.9688578  59.7385359  52.9549408
 114.7949886  33.6903906  25.5469227 113.9472866  33.9297557  25.1723003
 114.6198368  33.5737395  26.4807034   5.3919566  39.3212628  50.8332157
   5.4297197  39.4764733  49.8894358   4.4787544  39.0888476  51.0013676
 105.4646587  44.4638634  79.9028444 105.8470440  44.5805216  80.7725620
 104.7271347  45.0736523  79.8817158  87.0659256  57.7714872  35.9443641
  87.7804756  57.1776104  36.1745024  86.2915611  57.3838472  36.3521838
  35.8954263  62.4403858  60.0687885  35.5333948  63.3190393  60.1833630
  36.7024207  62.5766993  59.5723867  37.8822231  45.0261641  51.8462038
  38.7558508  45.2486944  51.5245056  37.2958541  45.6197071  51.3770437
 111.4223099  37.4553871  33.4307933 110.6121445  37.9608727  33.3649659
 111.8991947  37.6614761  32.6268411   3.3159462  28.8498306  46.0229969
   2.8582445  29.0716648  45.2121162   3.4920114  27.9118180  45.9497356
  18.8235879  99.7485828  32.1678615  18.3349288  98.9315796  32.0681167
  18.2277679 100.4249001  31.8456364   1.2585330  34.1203952  36.8185616
   1.1174982  33.2732487  36.3958526   2.1274267  34.3933392  36.5240169
  94.1898346  68.8081264  52.9383802  93.8756084  69.6657324  52.6520014
  94.1127682  68.2533598  52.1621513  34.1117549  58.3943892  28.9324546
  34.1136670  58.1357527  29.8540473  34.9324679  58.0459881  28.5842085
 114.9900436  42.2953224  34.3487239 114.0577030  42.0797491  34.3267083
 115.2494621  42.1440268  35.2575946  14.9620819  47.3979712  37.7618432
  15.8141792  47.5103521  38.1831932  15.1163507  47.6256943  36.8450165
 105.0788307  38.9029765  42.3748684 105.7021141  39.2555642  41.7397070
 105.1366234  37.9537892  42.2656202  14.1494083  48.6383295  54.4004059
  13.5936940  49.3480492  54.7224522  13.5340273  47.9783058  54.0811777
   1.0303425  28.9730525  35.7519746   0.9215742  28.2595158  35.1232743
   1.2251205  28.5347772  36.5803528 112.6600075  52.5539827  17.5678968
 112.8730488  53.1235504  18.3071125 112.9478455  51.6841602  17.8450048
  40.7848692  21.9241166  73.7109327  41.0849571  21.2076426  74.2702579
  40.0988245  22.3548508  74.2208767  19.3859422  43.1165743  63.5947323
  18.5909915  42.6170635  63.4082556  19.1730380  43.6213541  64.3796539
  25.6672621  73.7940693  61.8643856  25.7440639  74.7063589  62.1437836
  25.5444217  73.8434458  60.9163857  27.4438572  30.4366875  60.3168774
  28.1964421  30.3672647  60.9042692  27.7527213  30.0715947  59.4876957
  86.5740490 101.8038940  42.0505571  87.1740055 101.1101627  41.7766571
  85.7096195 101.3931179  42.0345259 107.0744610  35.4104066  54.9566412
 107.8797913  35.0509548  54.5845127 106.4903164  34.6563768  55.0369120
  43.8309669  47.6433516  30.3983474  43.9344788  48.3178234  29.7270799
  44.5956326  47.0779276  30.2896714   2.6333603  37.9605699  10.7197773
   3.2528198  38.1373549  10.0117874   1.8168494  37.7365971  10.2732587
 103.6842251  13.7300789  91.1946774 102.9191113  14.0953994  91.6389561
 103.5115623  13.8726878  90.2640438  46.4940023  36.4942575  53.1940556
  46.7232895  37.1481466  52.5336885  47.2833252  35.9608340  53.2871056
  86.8319893  37.7800345  52.5091028  87.5352859  37.5476098  51.9028282
  87.1017170  38.6212540  52.8776550  40.6929159  40.4904509  33.7455988
  41.5744543  40.8615351  33.7079787  40.7670546  39.6505809  33.2924390
 105.0569344  30.8345389  47.0391178 104.6920109  31.0308075  46.1762476
 106.0048866  30.8490872  46.9072151  36.1680675  19.7455227  43.9379263
  36.3405776  18.8111043  43.8224506  36.8703079  20.0494528  44.5130062
 115.4845333  34.2956972  69.5901251 115.1887417  35.1970506  69.7178030
 116.4219475  34.3740463  69.4130707  15.6296396  29.9753332  11.8171489
  14.7400093  29.6395802  11.9269657  16.1648083  29.1942310  11.6767728
  41.8909025  49.8294353  77.5646544  41.6262054  49.6693373  78.4704876
  41.0800743  49.7548056  77.0614386  24.0187287  87.6584244  84.4425488
  23.1543493  87.2489929  84.4805145  24.0767336  88.1707096  85.2490425
  10.9455895  72.2758722  23.6690903  10.9447229  73.2013941  23.9133072
  10.3024960  71.8735218  24.2528534   3.6586574  62.2242975  87.2303486
   2.8689274  61.8041277  86.8897343   3.5212454  63.1579638  87.0702839
  14.0433753  26.1115456  45.3618240  14.2351127  26.9412780  45.7988787
  13.1386566  26.2019277  45.0625849   6.1801982  26.2173033  92.7584743
   7.0148581  25.7532549  92.8235340   5.6742984  25.7121754  92.1219635
  35.6647229  38.0925417  77.2045279  35.5566978  38.0984831  78.1555939
  35.5326629  39.0037394  76.9427776  49.3202877  92.3649406  88.5527039
  49.9359322  93.0977631  88.5661316  49.8757029  91.5853882  88.5585690
 111.7014122  41.8642282  48.3585167 112.5255775  42.0770836  48.7963152
 111.5972710  40.9217215  48.4891415  98.8692284  20.6640029  25.1608467
  99.7956276  20.8837485  25.2595186  98.6329651  20.2451086  25.9884548
  76.0938597  25.3570604  28.8430333  75.6974888  26.2281489  28.8250113
  75.4542780  24.8123312  29.3017650 104.1334724  48.4961987  39.8963118
 105.0078678  48.1906700  40.1378250 103.5709381  47.7309942  40.0156546
  12.3452806  32.8398323  46.9160271  12.1733701  33.7708259  47.0571947
  13.1500065  32.8207135  46.3980675  24.7159028  31.5604806  60.8324146
  23.8237953  31.2923980  60.6121635  25.2698946  30.8677959  60.4725409
   4.1323897  46.7177057  60.6783962   5.0090235  47.0459509  60.8784008
   3.5433468  47.3002529  61.1578751   9.3762356  51.9422817  29.5861626
   9.3702829  52.8245449  29.9573946   8.5766059  51.8976164  29.0619206
   2.6987943  21.0345006  14.7060132   2.3522167  20.3217912  14.1692078
   2.6801902  20.6921148  15.5996895  40.9702206  29.4469500  54.3990755
  40.8217430  30.3193665  54.7638702  40.4313707  29.4231081  53.6083126
  36.7439294  39.5182896  82.5175095  36.1153626  40.1080179  82.9338646
  37.1975112  40.0655890  81.8764496   1.6451442  11.5629506  36.4108443
   1.6451874  11.6842079  37.3603344   0.7744474  11.2177253  36.2135148
   9.6961766  47.5904989  41.0419464   9.4654787  48.4412432  41.4151049
  10.4752982  47.3193550  41.5274191  35.2688384  25.5849195  23.5373306
  36.0274506  26.1124825  23.2875013  35.3939891  25.4122901  24.4704819
  39.3591571  35.4339814  32.4307919  40.1861382  34.9631691  32.5340891
  38.8933301  35.2831650  33.2532859  52.4435234   7.4655902  45.6310129
  52.2331190   6.8159652  44.9602318  51.7064142   7.4278921  46.2405109
  15.6073153  44.6663904  37.8896546  16.1406076  44.9167109  37.1352196
  14.8119009  45.1922274  37.8057528   0.1690876  88.7309074  38.2020974
   0.1671614  89.5521927  37.7104568  -0.0321667  88.0604649  37.5492287
  28.5385799  24.4198275  40.5386066  28.6872602  23.5960507  40.0743675
  27.5986719  24.5781016  40.4505730  36.8223453  53.2070827  56.1008692
  36.3636851  54.0471697  56.1114550  37.7481723  53.4405041  56.0331202
  13.6244583  62.8193998  61.0661173  12.8169239  62.9097939  60.5602074
  14.3015397  63.1996441  60.5064726  59.4033003  86.6020775   3.6301753
  58.7445974  87.2605896   3.8508743  60.0028276  87.0529079   3.0355757
  12.8361869  78.3757210  43.7698269  13.6287296  78.9112616  43.8059807
  13.1045187  77.5267935  44.1213274   0.4150725  46.3506317  81.8578625
   0.0751331  45.9742355  81.0460758   0.8014123  45.6083775  82.3226547
  19.5972562  64.4637442  57.2164106  19.9057674  64.0490246  58.0220556
  20.0848055  64.0249634  56.5192747  96.2509537  28.1350279  46.4350224
  96.0595417  28.9979053  46.0675478  96.3098717  28.2842779  47.3786783
  44.6184444  49.7838545  69.7389841  44.3921614  48.8576794  69.6540165
  43.8269472  50.1926422  70.0892162  28.0606818  55.7236719  39.2596030
  27.3192573  56.2399960  38.9434886  28.7980437  56.0077190  38.7193751
  96.5891743  25.5124998  73.5677719  95.9118462  25.4203415  72.8977251
  97.1841145  26.1754298  73.2173395 115.0867271  15.6048357  30.6995535
 114.4642448  14.9903345  30.3107953 115.8656883  15.0772524  30.8759379
  16.1198533  33.4865904  76.0875893  15.8677030  32.6307774  75.7408381
  16.4505410  33.3009529  76.9664621  45.7201672  92.9535198   3.7993896
  46.3574362  92.5039482   3.2444066  44.9700165  93.1086826   3.2254288
  25.8978820  51.4485550  46.4933729  25.6855536  52.1633387  47.0935726
  26.3914585  50.8260679  47.0273399  86.7122173  35.5300641  36.5462470
  86.5444088  36.2238216  35.9084582  86.0456467  34.8684382  36.3614058
   4.6136132  65.2732706  26.0289502   4.2327449  65.2750063  25.1507878
   4.6970978  64.3461657  26.2519765  11.2000966  81.3954830  36.0412478
  11.1536181  81.5749645  35.1021743  10.6947958  82.1009636  36.4452291
  71.7782784  73.1622171  73.5325527  72.1865225  73.9212847  73.9489508
  72.2205353  73.0861425  72.6870584  37.4578118  53.4329319  24.8739195
  37.0128775  52.7761841  24.3382430  38.2952762  53.0290556  25.1014543
  17.8472590   7.1722484  26.4206004  17.8154981   7.2659957  27.3726678
  18.1988823   8.0063617  26.1093950  33.6036849  42.2666931  49.4840813
  33.0937815  41.7360020  48.8720369  34.4311643  42.4268866  49.0303802
  39.1146183  32.3257732  63.6175299  39.2816567  31.6092014  63.0052757
  39.9432635  32.4416327  64.0824556  25.1404953  27.5975919  60.1303196
  25.6542611  28.1012750  60.7616520  25.7918024  27.2149944  59.5424032
   1.9944035  55.5591917  26.7883801   2.5465798  55.0267982  27.3609948
   1.3234375  54.9540567  26.4723897   3.1770372  30.8099794  55.6713009
   3.7860954  30.7384133  56.4062548   2.4367321  30.2560210  55.9189129
  14.9945235  74.6363926  70.7589245  15.3041124  75.5418444  70.7822466
  15.4481804  74.2093611  71.4856100 100.9782982  29.5462942  15.9960711
 100.4489613  29.2254663  15.2659333 101.5672207  30.1890039  15.6006944
 112.0659256  47.9520082  16.8622899 112.8092384  47.4478626  16.5313148
 111.2970161  47.4479628  16.5959120   0.5294096  57.8774023  28.0787802
   1.2133793  57.2188759  28.2002687  -0.2834511  57.4215746  28.2972074
 101.6612720  31.5293336  34.2148685 101.3151360  32.2595787  33.7018704
 102.2370338  31.9409943  34.8592782   9.2985153  40.1238012  51.8277550
   8.4161180  40.4603863  51.9836903   9.2734206  39.2249107  52.1557760
 111.6979313  57.1704102  52.9306984 111.6750336  57.6709652  53.7462664
 112.6152515  57.1976185  52.6586437   3.3256456   7.9439676  61.9214821
   4.1538852   7.8100556  62.3822641   3.4015658   8.8193959  61.5418863
 112.9108334  33.2196760  43.6785984 113.8490772  33.3980942  43.6145830
 112.8327465  32.6080823  44.4107771 106.5098763  55.4069710  46.0446882
 106.6988564  56.3234758  45.8433437 106.2918377  55.4065371  46.9767237
  15.3356934  39.8927379  35.4939532  14.8686790  40.7275009  35.4579210
  15.5408525  39.6934438  34.5804858   2.5948000  59.9327564  32.2146249
   2.4926504  60.1259327  33.1465459   1.6992646  59.8389006  31.8899107
   2.1928290  25.2634740  60.8140087   2.6942769  24.4495726  60.7655668
   2.4409275  25.6479716  61.6547441 116.4859519   5.7805347  28.8938642
 116.9678659   4.9543321  28.8567185 115.6659040   5.5598426  29.3355060
 110.8138180  69.3709135  22.8919935 111.5885925  69.7975302  22.5259829
 110.2040577  70.0884390  23.0639672  27.1709895  66.2431622  25.9422517
  27.2528481  65.4941463  26.5325999  27.8771758  66.1256313  25.3068638
   7.8806782  25.4189920  88.5594463   7.6772869  24.5694137  88.1681919
   7.2261715  26.0140014  88.1936359 112.2635651   2.9877353  68.6714029
 113.1912518   2.7583531  68.7263203 112.0005035   2.7130431  67.7930117
 112.9579258  18.2673848  31.4196467 112.8730774  19.2010498  31.6127825
 113.7995148  18.0191827  31.8021989   0.7857857  42.9753685  46.1274242
   0.5887375  43.0431223  45.1931763   0.4720746  43.7999392  46.4987850
   4.5185933  30.9175563  57.9641581   4.7891530  30.0526261  57.6560545
   4.9810588  31.0315204  58.7944412   6.1569196  30.4355502  63.4410572
   7.0404732  30.4596567  63.8084555   5.8351809  29.5582008  63.6483574
 105.2850437  47.9401398  65.8925724 105.3103256  47.7113867  66.8216896
 104.4708729  48.4327745  65.7892609  23.7715816  57.1541977  50.0136757
  24.4132972  57.8518057  50.1470041  24.0963864  56.4256525  50.5427837
   7.0769888  56.3863134  41.2228394   6.8245560  56.8585491  40.4294300
   7.8498167  56.8516541  41.5428829   2.1303877  51.4042139  20.4468679
   2.7432045  52.0730734  20.1413941   1.2811342  51.6832256  20.1045918
   7.8612918  55.3748417  47.0566559   8.4775436  55.2233648  46.3400555
   7.3275864  54.5807648  47.0854712   5.2929115  30.3703856  90.2225971
   4.4865486  30.2545619  90.7251835   5.4742670  29.5042109  89.8577976
   1.3150500  23.4082937  37.8044415   0.4699385  23.8383675  37.9350376
   1.1261079  22.4748349  37.9002929  35.5010080   3.9409682  16.4341021
  34.8592234   4.2832553  17.0563424  36.3451314   4.0650895  16.8680179
  11.0814965  15.5398166  66.7458057  11.5502584  16.3646805  66.8726635
  11.7555928  14.8656428  66.8313313  40.9887934  35.2163124  29.4145417
  40.9814358  36.1560917  29.5961785  41.5878630  35.1201367  28.6742091
   2.0760231  70.9225655  73.3993959   1.3266888  70.4234838  73.0743647
   2.5954062  71.1111403  72.6177883 109.8998451 106.8253613  66.3975143
 109.8204994 105.9989643  66.8739605 110.5109978 107.3451138  66.9196081
   8.4040523  36.5781188  35.4847670   9.2607462  36.7546129  35.8735561
   8.3441585  37.1885824  34.7499347  20.5318594  50.4233265  36.9655323
  20.4319882  50.7928801  36.0882139  21.3472629  50.8023596  37.2936869
 104.5506668  50.8442402  23.3848214 105.3728199  50.5016994  23.0341625
 104.3072510  51.5466166  22.7817917  92.7220535  29.1265941  87.1201134
  93.1945801  29.6593308  86.4804745  92.0396042  28.6897469  86.6105461
   4.2012486  39.0470982  59.7264242   3.2463637  39.1007400  59.7657871
   4.4155923  39.2559648  58.8172102 108.7350941  32.9309273  56.8800831
 109.4430542  32.4168015  56.4918804 107.9351521  32.5439787  56.5242767
  74.9631977  85.6329155   5.5301327  75.4672766  85.8289719   4.7403887
  74.1527700  85.2402782   5.2056736   5.0510055  51.7675686  58.9870119
   5.2995211  51.6553593  58.0694723   4.0988386  51.6696167  58.9909601
  20.2249384  61.3248062  41.4171457  20.8076954  62.0797873  41.4985704
  20.7943606  60.5671597  41.5511608 100.0924683  23.2697964  45.0856972
 100.9967232  23.4237957  45.3592587  99.8582363  24.0498114  44.5827579
   9.2634678  36.5358806  16.4526761   8.6273777  36.1416531  15.8558464
   9.0589476  36.1547089  17.3065567 107.3719311  23.3326054  45.1408815
 107.4678040  22.4026179  44.9355459 108.1171703  23.5307455  45.7079649
 113.2198048  58.7021542  49.0778303 113.5650730  59.2244148  49.8018932
 113.9833832  58.2426262  48.7285376 103.2898426  46.8273306  49.0971851
 103.8486958  46.0639858  48.9514923 103.7143993  47.5319052  48.6077356
  91.7239094  66.2797022  25.1959777  92.5692844  65.8545065  25.0518107
  91.3423729  65.8090639  25.9370327 104.1474533  54.1747475  60.8870649
 104.7471237  54.0890694  61.6282082 103.8920784  53.2756805  60.6804323
 100.7014465   9.1549921   8.6996114 100.1318932   8.8368547   9.4000608
 100.1076412   9.5873302   8.0858374  99.7617149  61.9307995  36.4555931
  99.1831875  62.2960901  35.7861924  99.3018246  62.0865107  37.2805119
  16.7575371  54.6549129  62.5928307  17.0125544  54.3479824  63.4628820
  16.1637306  53.9794779  62.2651005  52.4132395  24.8554015  45.2441311
  52.6718616  24.4276881  44.4277906  51.8549442  25.5820060  44.9674034
   7.0884347  58.4325266  66.7427969   6.1543256  58.3151340  66.5699100
   7.2119272  59.3816185  66.7571926  18.3484042  45.7841396  39.9830174
  18.3462536  46.6609669  39.5990872  17.7089632  45.8322763  40.6936693
  82.8845500 109.2591302  11.0018671  83.2543676 108.5561415  10.4677570
  82.3926978 108.8061309  11.6867793  12.1036661  48.4136629  38.8010406
  12.4702215  49.2172194  38.4320331  12.8676438  47.8782892  39.0153956
  41.0741901  38.7097359  77.5115967  40.2736712  38.2082343  77.3570013
  40.9865761  39.4798732  76.9499540   3.8592413  24.8688626  25.1326728
   4.2100313  24.3786979  25.8762550   3.3298975  25.5603933  25.5299282
  92.7235126 100.4452610   9.7840267  92.5061226 100.5995369   8.8646936
  93.4997463 100.9831429   9.9401200 110.8158112  68.3951283  43.6157227
 110.3418064  67.5642872  43.6510658 110.2939892  68.9438629  43.0302095
 102.7270508  40.3883076  34.8373508 101.8129349  40.1918268  35.0423455
 103.2238483  39.6919775  35.2669358   7.4460709  34.0889668  36.1782455
   7.6374471  35.0180531  36.0501719   7.0323908  34.0462613  37.0403790
  95.9837437  96.7416954  16.2120891  95.6371021  97.1241188  15.4059684
  95.8298588  95.8017731  16.1167574   7.0907336  24.5697165  74.0148497
   7.4828297  24.2312646  73.2099009   7.3798138  25.4812360  74.0572166
  17.7767265  23.4152532  43.6768532  18.5076976  23.7501740  43.1574869
  17.0330477  23.9625168  43.4245110  15.3864825  32.1519518  64.0961552
  14.8743176  31.3558745  64.2382145  15.2115929  32.6902127  64.8681164
 105.0829029  57.1093988   9.0281248 104.6028996  57.9357529   9.0826142
 105.2852345  57.0108366   8.0977595  34.2831111  28.1705952  52.9163742
  34.1449213  29.0335512  53.3068180  35.2337599  28.0588675  52.9125977
  30.5960155  34.5158267  48.5081291  29.9050283  34.3881345  47.8581572
  30.1276755  34.6619034  49.3300486   7.2757947  13.0433738  23.3827448
   6.5529382  13.0633783  22.7555990   8.0638313  13.0296600  22.8395653
   9.6242416  58.3153582  33.6620426   9.2159498  58.8874149  34.3118715
  10.4513502  58.0489254  34.0634632   2.9416546   3.7370551  42.6219893
   3.1869024   2.8135386  42.6785803   2.0075873   3.7244591  42.4132061
  29.0496516  28.4003973  49.5509052  29.5722508  29.1575718  49.2866850
  29.1647887  27.7700233  48.8398457 113.3160877  41.6608286   7.0386416
 113.9015102  42.4018049   6.8822199 112.4396515  42.0094776   6.8757457
  11.2947845 100.6645775  64.3495226  10.5553889 100.0693512  64.4729090
  11.9869018 100.3050232  64.9044323 108.5067558  17.3862815  21.4236331
 108.5746574  16.4445364  21.2663460 108.9390850  17.5200176  22.2671008
  90.0278378  25.0391603  50.2155590  89.9447823  25.3053713  49.2998791
  89.3792820  24.3433332  50.3224564  25.0673294  80.5977917  82.7515030
  25.7790422  79.9739885  82.8949451  24.7890878  80.8502960  83.6318779
 105.9373951  58.8894892  27.6269245 105.3797054  59.0735531  26.8710589
 105.5517101  59.3997478  28.3390474  11.9751120   8.8968885  67.9317188
  11.9189179   8.0080187  67.5810289  12.3864877   8.7904090  68.7894297
   4.3476957  99.8730946  33.5719323   3.8824829  99.2689800  32.9932690
   5.2605754  99.8207760  33.2888317  95.2960396  15.4131150  34.6617484
  94.6034241  14.9476933  35.1306939  94.8649883  15.7602620  33.8807726
  39.7037840 101.8342781  93.0616951  39.6093988 102.4158859  93.8160610
  40.4727173 102.1661091  92.5981617  32.1415472  34.1886878  73.5427999
  31.6743755  34.8539782  73.0374575  32.9907131  34.1101670  73.1080818
  37.1465588  30.3158903  70.2102995  37.1900892  31.0316467  69.5762396
  36.9359994  30.7436585  71.0403061  11.0770237  56.7246056  16.2215436
  10.5859411  56.7268419  15.3999209  10.8481264  55.8922625  16.6351223
  91.7308807  72.9631186  60.2030754  90.9253502  73.1965351  60.6644535
  91.6878510  73.4542274  59.3825912  46.9589806  47.4399185  50.3246593
  46.3892412  46.9466972  49.7344398  47.4706411  46.7703772  50.7786942
  10.7197881  33.9280248  38.9727736   9.7766888  34.0899539  38.9488101
  10.8098876  33.0030513  38.7435603  10.3573406  35.7976532  31.9448471
   9.4325048  35.7630062  32.1892023  10.7594967  35.0745845  32.4261713
 107.3310757  33.7517381  28.8681960 108.2534409  33.4974241  28.8399458
 107.1600533  33.9302111  29.7929287  15.6758559  25.7823753  37.1366549
  15.8964133  25.1217103  36.4800668  15.1021576  25.3261018  37.7522159
  23.0063534  23.7466431  48.7602758  22.6781130  24.2388630  48.0078077
  22.4306822  24.0000296  49.4818211   8.8480467  45.4802799  21.5755153
   8.6613077  45.9614134  20.7693696   8.5698032  46.0699558  22.2762966
  19.8678112  71.5086508  26.8600202  19.3113935  70.9506845  27.4034405
  20.7057047  71.0473919  26.8224669  54.1289043  34.4155145  16.9477308
  53.6858702  33.6127901  16.6728091  55.0447464  34.2786551  16.7053711
   2.6508394  65.6274939  44.3794823   2.9624954  64.9899864  43.7370729
   2.5041884  65.1145601  45.1742315  87.4139500  25.9650707  59.6903515
  88.0842018  25.7661986  59.0365601  87.5241756  25.2895498  60.3594971
  95.1481152  40.7967806   8.4514713  94.2521954  40.9757280   8.1658983
  95.1251316  40.9158182   9.4009632  34.4565916  63.5300684  72.7368069
  33.7512159  64.0952492  73.0518436  34.4468904  62.7805233  73.3320522
  91.0383701  46.0853815  31.4924908  91.1404514  45.5745888  30.6894326
  90.4889870  45.5397272  32.0552135  42.8172255  20.2920151  42.2077036
  42.8399181  19.3450201  42.0701647  41.9576168  20.4572558  42.5950050
  31.1821985  36.0557532  71.9493723  31.3808179  36.7847419  71.3617039
  30.2799916  36.2119913  72.2283745 112.7927589  36.2267733  80.5205345
 112.1083450  36.4658713  79.8955250 112.8066730  36.9491100  81.1484432
  11.6698229  19.4144046  57.2099972  11.3878846  20.2196598  57.6439428
  10.8778393  19.0786576  56.7901564   6.9621468  68.4105158  75.9415865
   6.6423184  69.3123150  75.9152317   7.7120429  68.4048605  75.3467321
  25.1082587  38.7373018  60.9570122  25.5104017  38.2906771  61.7020178
  25.1204062  39.6635842  61.1980200  43.4360027  39.0308976  67.5801992
  43.3069181  39.9217057  67.9058218  42.5500202  38.6893702  67.4592400
  26.0488367  69.2560053  53.2301521  25.6996107  69.2526245  54.1213655
  25.5956793  69.9800158  52.7980804   7.4603075  53.6926937  65.6844330
   7.7091235  54.0219879  64.8207855   6.7720717  54.2891645  65.9790325
  16.8294811  55.7276058  22.9539013  17.1617341  55.6465149  22.0598865
  17.5492275  55.4213142  23.5056090  57.0695686  20.6729555  37.6481581
  57.4379969  19.8342609  37.9257917  56.1382580  20.6070733  37.8592491
   5.3808504  58.7722015  36.3147688   4.4635904  58.7383270  36.5862775
   5.6414145  57.8545094  36.2361622   5.5602670  45.2505684  40.4958820
   4.6088427  45.2767563  40.3942108   5.8507162  46.1315441  40.2597666
  58.2930279  38.1723809  33.5247946  58.5039282  37.6325774  32.7629781
  57.5385571  38.6925292  33.2483006  32.3168874  50.2622938  32.2114801
  31.9803166  49.5429564  31.6771555  31.8113780  50.2147865  33.0229211
  22.1587729  65.0755310  13.6563969  21.7228150  65.3646278  12.8547764
  22.5569558  64.2368507  13.4233773  24.9712634  52.8743696  34.9047327
  25.0381875  51.9197130  34.9242163  24.6720314  53.0754471  34.0180182
  90.7348824  41.3819265  18.5456252  89.7964096  41.2641954  18.6927724
  91.1059475  40.5062008  18.6535156 108.7092686  60.1456738  37.1484804
 108.7716198  60.9108925  36.5768266 108.7511158  59.3976212  36.5527463
  20.2392673  38.3764601  68.2450008  20.2295732  39.1203427  68.8473082
  19.5721042  37.7818918  68.5879469   9.9146169  22.6051879  53.4339809
  10.5592752  23.2982230  53.5766411   9.8459756  22.5342131  52.4818897
  26.6158915  61.1898804  49.8946333  27.1167350  61.4666653  50.6619549
  26.1653805  61.9828129  49.6038866  28.5994172  37.9858685  30.7636499
  28.7757111  38.6276197  31.4516234  29.2642593  38.1601787  30.0974441
   5.8248979  70.9390259  70.4437065   6.4575356  70.7589340  71.1391020
   6.2031525  71.6733694  69.9600792 111.7176247  49.2088890  64.1371393
 111.0455799  48.6216307  64.4831276 111.2259197  49.9220276  63.7298536
   5.4922992  41.3301611  71.8613052   5.5365050  42.2611618  72.0792866
   5.0378555  41.3026285  71.0193110 112.9442883  58.0649805  55.0704241
 113.8436890  58.1048203  55.3955698 112.5594997  57.3136663  55.5217552
  50.1032972  38.3813500  54.2782688  49.2311811  38.3695102  54.6726179
  50.4865789  37.5379801  54.5192194  34.2507124  33.7203622  59.5831394
  34.2721701  32.7876759  59.3689728  33.3191705  33.9278340  59.6567583
   1.8000782  75.1685810  46.1467838   0.9637867  74.8729515  45.7869911
   2.4595331  74.6905565  45.6439495  27.4642944  62.7762461  41.0800934
  28.1138611  62.2604752  41.5578747  27.0753312  63.3457613  41.7438650
 105.0033188  22.8348446  62.2857523 104.3469906  22.7606392  62.9785395
 104.9164009  23.7338471  61.9687796  13.2501364  31.8338609  14.7532570
  14.0604925  31.4513588  14.4167364  12.9456270  32.4070597  14.0497315
   9.7299522  51.2274027  53.5210323   9.3910813  50.4188919  53.1367064
  10.1237130  51.6958094  52.7849770  10.2695525  55.9988499  81.5196133
  10.3407168  56.6317272  80.8050251  10.9292138  56.2788963  82.1541595
  30.4868579  70.1657104  75.0248432  30.2688837  70.5766344  75.8614159
  30.5070639  69.2281294  75.2165985  21.9223475  35.0801373  66.1497688
  22.1510172  35.8457518  66.6768169  21.5007615  34.4819069  66.7667103
  16.4021730  57.4044275  62.3593426  16.4913273  56.4843273  62.1109438
  16.5055549  57.4067163  63.3109379   8.7909389  24.1492534  56.6294956
   7.9460484  24.1189170  56.1806393   8.9194226  23.2596183  56.9585419
  23.2066631  69.3468189  58.6529350  24.1602921  69.4271946  58.6338711
  22.9247212  69.9931574  59.3002272   1.8747242  56.9656849  35.6006312
   2.2899157  57.5487995  36.2361002   1.1905313  57.4996519  35.1969075
  21.4003587  56.3711500  44.7571468  21.2295341  55.8777094  43.9549208
  20.7404447  57.0645094  44.7569704  14.5044398  61.5682268  68.0570650
  13.6454284  61.6199541  68.4761810  14.7588837  60.6496572  68.1449175
  16.1124313  63.8469934  67.2746468  15.3479564  63.3530521  67.5710058
  16.1506605  64.6032667  67.8601599   3.8710871  51.9351387  50.2612305
   4.6103707  52.5431347  50.2558231   3.0975205  52.4984694  50.2392626
  22.2758317  26.0229278  13.3652675  22.1883154  26.9324636  13.6504233
  22.3540282  26.0770011  12.4128008  94.6615028  30.1387739  74.6627569
  93.9299870  30.2441573  74.0544701  94.4810104  29.3140435  75.1138353
  15.9491456  71.0139990  29.8085976  15.5088258  70.1659822  29.8653054
  15.5598807  71.5335083  30.5120301   1.0912231  47.5867081  70.5005455
   1.7482159  48.2489347  70.7151318   0.8505498  47.7733326  69.5930910
  35.0664568  38.8380909  40.9005690  34.6331811  39.4921350  41.4489555
  35.8687878  38.6210227  41.3753128 115.5216484  74.2450476  12.8937232
 116.3581348  74.1953707  13.3563840 114.8973219  73.8193178  13.4812617
  24.2148209  57.3656464  71.1534309  23.9354038  57.3257780  70.2387905
  25.0357819  57.8573656  71.1318541 113.5137844  74.6807241  57.5203180
 112.7978706  74.6632433  56.8851900 113.5702133  75.5966806  57.7924776
  28.3369946  50.5025578  27.3939943  29.1568995  50.0760174  27.6430988
  28.1104946  51.0455990  28.1489992  14.0104687  71.7951298  41.2474918
  14.1448998  70.9500599  40.8185148  13.6432314  71.5736008  42.1032381
  37.0092654  39.9504089  44.7049952  36.1830902  40.3125906  44.3848515
  37.6350689  40.1231909  44.0016127  43.8049173  42.5897121  50.1952076
  44.4404030  42.9478407  49.5754242  44.3383884  42.2247887  50.9012365
  23.9940619  47.7479410  94.6352005  24.1586518  47.9979897  93.7260151
  24.6182227  47.0427132  94.8064041  23.1091285  68.9953899  45.3826094
  24.0190148  68.7293863  45.5151987  22.6075912  68.4385443  45.9781027
  73.6661816  20.2922106  24.8641396  74.2074585  20.1095963  24.0960908
  74.2293406  20.0828576  25.6092954  38.0988312  39.5909595  41.9907856
  37.4169517  40.2333784  41.7943954  38.7365770  39.6951342  41.2846279
  12.5306034  54.8128557  35.5127239  11.7292452  54.3425274  35.2828288
  13.1550944  54.5704889  34.8289824  93.6793995  46.7885876  59.7545338
  94.3648529  46.8575621  60.4190826  93.5263729  47.6907969  59.4737530
  27.6858687  36.2177134  38.1969810  27.4121261  35.3240061  38.4033465
  28.4719992  36.3554716  38.7254262  12.1312213  32.6029873  77.4038887
  12.4738550  33.0178332  78.1955576  12.1205378  33.3036089  76.7517805
  26.9547319  63.1951618  55.3385973  27.1679425  62.6976919  54.5491076
  27.7891850  63.2823944  55.7993698 115.0076389  10.2680194   2.1931368
 115.1688385  10.7238925   3.0192274 115.5115700   9.4573593   2.2646339
  35.6104279  24.8239207  31.9060564  36.3104081  24.8329663  32.5588799
  35.3792739  23.8994718  31.8155336  30.8201122  36.6006613  17.9665601
  31.5343523  36.5534425  18.6020613  30.0387979  36.7608476  18.4958243
  23.8012552  41.0141850  52.7779961  23.2071972  41.6435480  53.1869316
  23.8977909  41.3257551  51.8780899 112.8638458  76.3010406  21.9770765
 111.9667530  76.5623045  22.1849155 113.4097385  76.9725227  22.3861504
   4.1791013  40.9325027  79.1035938   3.9812338  40.0282001  79.3471432
   3.8573846  41.0146284  78.2058287  16.6621661  32.6305246  23.4840608
  15.8216536  32.8651595  23.0907202  16.5554202  31.7173028  23.7502599
  31.3655496  58.9213133  29.8596358  32.2223496  58.6357498  29.5424891
  31.4975405  59.0826082  30.7938695 104.2422104  51.4575577  60.1284742
 104.2945099  50.5354548  59.8770285 104.8976803  51.5550089  60.8191872
  69.0726662  61.6414309  11.5784490  69.2096376  61.4530277  10.6500232
  69.3118954  62.5633574  11.6735947  33.2344747  45.2565002   8.1693089
  33.4854007  44.4566870   8.6314416  32.6404810  44.9586916   7.4803174
 110.3059959  39.1507721  30.4793763 110.0621128  39.2669153  29.5610809
 111.1500645  39.5947409  30.5610156  14.2771423  57.2571898  75.4045343
  13.8737249  56.7845106  74.6764803  14.6811163  56.5737629  75.9392929
   4.6482828  26.3814092  45.6992149   4.4656482  25.4421353  45.7245255
   4.8142248  26.5683270  44.7752285  12.2096229  68.8383675  45.1828051
  11.2595606  68.8125801  45.0690126  12.3388755  68.7876177  46.1298800
  14.7556806  48.9327431  44.1242456  15.1872027  49.6309948  44.6166515
  15.1501215  48.1263494  44.4564819  16.7465413  76.2819052  67.5037241
  16.7682266  77.2107077  67.2733068  16.5742660  76.2726688  68.4452486
   0.3925070  45.4231215  51.9072771  -0.0064837  46.2266922  51.5736437
   1.3106254  45.4841805  51.6435289   8.0077606  71.0957050  72.0980978
   8.2580900  70.4733801  72.7809429   8.7012416  71.0234547  71.4422798
  18.4746099  54.8934078  25.3302336  18.6622202  53.9881706  25.5783916
  18.6621618  55.4018402  26.1192560  16.5713906  44.0043211  11.0298395
  16.2856495  43.2755804  11.5807629  15.9984195  43.9646864  10.2640939
   3.2895175  56.1594677  58.5609770   3.6885980  56.8200016  57.9947090
   4.0317857  55.6866884  58.9374733  45.5244064  29.2240715  59.4621706
  45.3461123  29.8931336  58.8012648  45.7032633  29.7189307  60.2617693
  18.5479724  44.3174648  46.1744928  17.9852736  43.5629368  46.0004616
  19.2468941  44.2501307  45.5239487  22.5498533  94.9308491  64.0443468
  22.2663832  94.1093922  64.4457054  23.5028481  94.8565769  63.9942074
  26.2886214  37.7835798  34.0001678  27.1850324  37.5399899  34.2311239
  25.7505012  37.4021697  34.6938419  24.4693637  50.0188017  43.1070900
  24.7698212  50.8023548  43.5675240  23.7314510  49.7027874  43.6284781
  29.5431924  62.6949549  31.3519239  30.2245069  62.3677063  31.9392514
  29.9007320  63.5107422  31.0013652 105.4255009  67.3706055  53.5891199
 104.9287796  66.9652176  54.2998695 105.2221394  68.3035231  53.6565495
  23.0581260  67.0120096  43.3517790  22.9451275  67.1136475  42.4067259
  22.8759623  67.8809214  43.7096024  29.9518442  52.7935839  16.4341283
  30.4081273  52.1098566  16.9245911  30.5772448  53.5170841  16.3934660
  99.9007034  73.9819384  46.0092354 100.3369808  74.5901775  46.6058350
  99.6835899  73.2258368  46.5545797   4.6630087  38.0994511  41.2280703
   4.9424106  38.9954305  41.4161921   4.3877271  37.7513528  42.0761776
   2.9919758  43.6737871  65.5807400   3.0368990  42.8969002  66.1381102
   3.8905936  43.8033152  65.2775240  39.8009181  26.0555053  45.4780197
  39.7812033  26.9641662  45.7783222  39.6559858  26.1121869  44.5335579
  35.8168197  33.4722447  46.3060570  36.2694788  32.6503849  46.4954758
  36.4847064  34.0257883  45.9013987  17.1469533  34.1932273  11.4706862
  18.0701172  34.1486335  11.2216616  17.0146441  35.1027822  11.7379582
 105.9709263  48.3720398  47.7365208 106.7330742  47.8104973  47.8780842
 106.2731647  49.0336609  47.1143055  57.4841118  27.9772115  10.2561629
  57.2432756  27.9034519   9.3326968  58.1407595  27.2933125  10.3877974
 108.6001492  80.3811073  51.9795704 108.8586521  79.6564770  52.5490618
 107.6478004  80.4250813  52.0652485  43.1698704  41.8758345  56.4017820
  43.9566660  42.2469378  56.8011189  43.3482695  41.8916368  55.4614878
  69.9423218  46.2599087  22.3736477  70.7418203  46.2085867  22.8974819
  69.2804289  46.5941763  22.9789519 107.9193497  59.4219303  82.8182602
 108.7615776  59.1380596  83.1736469 107.3127937  58.7181330  83.0484676
  84.9394417  69.1444397  53.8014412  85.3724003  69.7951984  53.2489109
  84.5954418  68.4977913  53.1852102  58.2267189  31.1502481  48.9164114
  57.7003622  30.3577185  48.8111687  57.6007175  31.8680048  48.8206100
   8.1960410  32.4193048  18.6271000   9.0557283  32.0212293  18.4903288
   7.5797802  31.6909933  18.5495365  20.8485174  52.0052147  64.2401361
  21.3402700  51.2722254  64.6104574  19.9485505  51.6845322  64.1813803
  50.4680204   2.1162881  52.5322247  50.1544714   1.2654272  52.8387451
  49.6728992   2.5926876  52.2933578  39.4667125  40.3396559  59.8841524
  38.7078428  40.7017422  60.3415775  39.0923095  39.8253751  59.1689110
   5.0687945  61.1795378  51.9376469   4.9870819  61.4587879  51.0257435
   4.2373925  60.7463408  52.1308994  25.7036901  39.1825032  58.4428215
  26.4240694  39.7923994  58.6019135  25.2972221  39.0628099  59.3011284
  32.7576089  62.3250294  63.4744740  32.4140382  61.8704271  62.7053642
  32.7105188  63.2531261  63.2450199 115.9961414  40.5754519  25.5432630
 115.0508499  40.5583668  25.6928015 116.1072636  40.2001953  24.6697259
 107.1529579  74.8966408  17.3000813 106.2613869  74.7827578  16.9708812
 107.4273396  74.0165758  17.5578284  97.2819901  82.7074051  68.2894135
  98.2285309  82.6879692  68.4305334  96.9802856  83.4636974  68.7926197
  24.4279218  50.4872513  55.3039837  25.1524663  49.9655914  54.9588251
  24.1712284  50.0375462  56.1090326 109.8378563  39.9039412  63.2764339
 109.7092342  40.8455706  63.3905602 110.7645607  39.7635126  63.4706593
   6.6966504  48.3638144  60.5634212   6.9172519  47.5258732  60.9701347
   7.3754644  48.4947872  59.9013853 113.5461521  62.2672462  78.1407833
 112.9536057  61.6452932  78.5630369 113.3220863  62.2183943  77.2114611
  20.6337976  56.3236904  56.2520123  21.5597725  56.5111971  56.4057875
  20.4949903  56.5422201  55.3304863  43.7149572  33.8808036  39.9804091
  43.5552692  33.3601236  40.7675743  43.9825630  34.7384214  40.3107309
  34.7934604  33.1510401  82.4656487  35.5378580  32.5567818  82.3709869
  34.3882751  32.8971791  83.2948780   9.5880461  84.0152359  90.7051659
   9.7585326  84.0053558  89.7633266   9.4438356  83.0965805  90.9321117
  47.9438782  26.0908818  74.7044230  48.2659340  26.3149929  73.8313341
  48.6582804  26.3345194  75.2930689 108.1409931  38.8460946  87.9832935
 108.1200981  39.1858554  88.8779259 108.6025047  38.0105805  88.0551243
  36.8466187  49.3786812  37.5936246  37.2860312  49.5500135  38.4265661
  35.9339833  49.2173719  37.8330159  43.0590010  36.6552186  59.5569515
  43.0339289  37.1027660  60.4027128  42.8250694  37.3314118  58.9211273
  28.1484818  41.2026787  51.8210411  29.0037584  40.8859062  51.5305424
  27.5213385  40.7511282  51.2562180  49.1310644  24.9859285  62.4909258
  49.5646381  25.8043146  62.7327776  48.2855272  25.0215816  62.9381657
  61.9201851  63.6415195  31.0788584  62.3880291  62.9006624  30.6935120
  61.5614700  63.2986879  31.8974090  28.7177515  36.0827136  27.6739669
  28.1674743  35.7754707  28.3944035  28.2299805  35.8500051  26.8839335
  10.6484365  72.8625441  42.6528454  10.3551221  73.4889412  43.3145332
  11.4012039  72.4268436  43.0525208  24.0401196  66.4791346  39.0443134
  23.1836843  66.7579222  39.3683958  24.6499062  66.7188883  39.7421050
  19.7117412  58.3322001  26.3787389  19.8447478  58.5330248  25.4523420
  20.4971719  58.6668873  26.8115377  53.2712698  38.8869333  18.8806629
  53.0475473  38.6788058  19.7877800  54.1261005  39.3139577  18.9367318
  34.3815494  46.5351915  42.3659229  34.5955610  46.6015816  41.4353180
  34.9590015  47.1697378  42.7903461  25.2154899  27.5640917  45.8032131
  25.6788540  28.3881116  45.6531525  24.2886209  27.7989507  45.7586432
  18.2246470  66.2165737  63.9495420  18.1916630  66.7839050  64.7197914
  18.8849378  66.6178942  63.3845758   8.8137996  56.8778419  49.2264128
   8.3155584  56.6296053  48.4477186   8.9050025  57.8283310  49.1594744
  36.3271809  48.2778597  43.1159592  36.9959426  48.4020472  43.7894297
  36.8183875  48.2360983  42.2954702  42.9939699  61.3787556  72.8252268
  42.6640129  61.9762182  73.4963417  42.4800444  60.5797434  72.9422617
  11.6080976  30.0565481  43.9796209  10.9344935  29.8070765  43.3469677
  11.2961709  29.7040701  44.8131037  23.2122850  43.4560585  69.5385551
  22.6095629  43.7946224  68.8764858  24.0830493  43.6331940  69.1827059
  23.3557653  43.1348228  26.3558650  23.3721638  44.0734148  26.1687660
  23.3293009  42.7192211  25.4940033  10.7689893  68.0692911  25.0215316
  10.2371025  67.2873020  25.1692653  10.2787745  68.7754393  25.4425669
  45.3726387  50.7375669  62.9502869  46.2521696  50.4158831  63.1482172
  45.3814793  50.8933401  62.0058870 112.6355934  64.5243502  35.4355884
 112.3403072  64.8811674  34.5979023 113.4934998  64.9245358  35.5773139
 103.7068462  34.3074059  82.9670429 103.6746120  34.6838570  83.8465214
 103.3302498  34.9831462  82.4033165   8.7640005  70.2077389  66.6066074
   8.2322150  70.0674200  65.8231878   8.4062147  69.5974684  67.2514248
  25.1897526  47.2770405  34.5714998  24.2390370  47.1945572  34.6461272
  25.5337405  46.7319632  35.2791691  45.7407284  53.6267996  45.0037956
  46.5547943  53.3839512  44.5627069  45.7618904  53.1425667  45.8292055
  29.5076728  33.2211351  27.6185131  29.4182968  34.1680050  27.5104284
  30.1081395  33.1199932  28.3570528  23.3067441  64.3077278  36.8539619
  23.4060335  65.1777172  37.2406101  22.8514767  64.4638824  36.0265684
  10.2474630  33.8317919  51.3802481   9.8315823  33.7769437  52.2406340
   9.7549665  33.2169318  50.8365345  94.9071884   9.4909000  92.0050526
  95.2886677  10.1943827  92.5302315  94.0808296   9.8523676  91.6845894
  49.7758007  31.1489320  35.3182220  49.7270155  31.9095111  34.7391105
  48.9505816  31.1636949  35.8030152  33.0865049  38.8222504   5.6464499
  32.1587276  39.0193939   5.7752752  33.2115984  37.9722643   6.0684782
  96.4578438  39.3775249  66.3484669  96.9839954  39.1955781  67.1271133
  95.5954361  39.6116590  66.6914988  21.1252475  69.0485001  43.5875845
  21.2828112  69.8486137  43.0863571  21.4480639  69.2487812  44.4661665
  33.3911014 106.6154194  15.5678165  32.5106740 106.7128563  15.2050662
  33.5500240 107.4359131  16.0344779  20.5249953  47.8282261  73.7150383
  19.6922755  47.7841663  73.2450724  20.3632164  48.4414005  74.4320297
  31.7551351  54.3362617  58.1318903  31.8564749  55.2605867  58.3590221
  31.4283490  54.3451262  57.2322464  99.2778015  47.5499058  42.9789877
  99.1655827  48.4798622  42.7819490 100.0199032  47.5208712  43.5828733
  26.7922139  58.5740042  49.0102291  26.6392326  59.4636345  49.3286371
  27.5016165  58.6659288  48.3742046  72.4824762  96.4789486  45.1713943
  71.8161488  96.0561848  45.7131672  72.0275450  96.6951942  44.3574476
  29.4771528  41.7327404  37.9206061  29.4567895  42.6812840  37.7938080
  28.6363268  41.5276480  38.3294821  33.4297371  56.0706758   4.4909468
  33.4542704  56.3966370   5.3906024  32.5010824  56.0773468   4.2590246
  93.7535191  66.7488766  51.0926151  93.1222916  66.7724943  51.8118000
  93.3397388  66.1972046  50.4287815   8.4874493  46.6492176  14.1518342
   8.1695318  46.2413359  13.3463585   9.1747606  47.2488546  13.8615334
   4.7252119  34.2135143  38.5256886   4.4100535  33.3966875  38.1387734
   4.0785822  34.4246864  39.1991186   5.6814289  49.7757864  75.4549456
   5.0938827  49.1037798  75.1093578   5.3207952  49.9897528  76.3154030
 103.0559158  58.2045078  10.8525133 103.3545971  58.2530022  11.7606270
 102.1018696  58.1602001  10.9162080 104.8900795  68.6468601  44.7852945
 105.5071449  69.3503332  44.9867535 104.4508648  68.4680986  45.6167793
  73.9386415   3.9197320   9.4394028  74.1135883   4.8344097   9.6607393
  73.7713242   3.4972283  10.2818561  32.0323920  56.0215187  74.1453791
  31.9213176  55.0741100  74.0659618  32.9776883  56.1455297  74.2306471
  24.7925091  68.3270502  31.1432481  24.1726208  69.0560722  31.1655259
  24.3919444  67.6900530  30.5516291  35.6154895  63.6324024  35.3577709
  35.2704549  64.0271139  36.1586356  36.3256192  63.0647135  35.6572342
 108.2186985  67.9655409   4.9725443 107.5430012  67.5422478   5.5021662
 108.9746475  67.3820019   5.0377274  33.5188794  22.1196985  25.8954883
  33.6952162  22.9064083  26.4114571  33.1145334  21.5124798  26.5151834
  34.6132302  47.1619892  27.1725202  34.6760702  47.0524454  28.1213522
  35.2105093  46.5047264  26.8154573   8.4091425  25.1920295  44.9135637
   8.8769722  24.4267726  44.5792818   8.6885774  25.2637577  45.8262539
 107.0601273  45.2071142  72.6063967 107.2578144  44.9660873  71.7013788
 107.8847980  45.0767899  73.0745602  20.7148290  77.7493668  72.3853350
  20.5284333  77.4223948  71.5052366  21.5915370  78.1278944  72.3195219
  26.0428309  54.1304111  56.8200684  25.2588916  53.9325953  57.3324537
  26.4118719  54.9086285  57.2376966  15.6631124  59.9126101  40.5049849
  15.3711927  59.0864563  40.1196480  15.2045035  60.5863190  40.0029612
 107.6806164 100.1101875  60.6208706 107.3948383 100.9911728  60.3791523
 108.1313038  99.7826004  59.8425388  19.2567360  56.5318537  53.7416220
  18.6060095  56.9558477  54.3011045  18.9755690  56.7364120  52.8498077
  20.3758001  80.8391285  83.4211349  20.7471418  81.5414333  83.9550877
  20.7297659  80.0356579  83.8024139  68.7901258  79.8258877  94.3349552
  69.4184542  80.2859306  94.8915482  68.2606936  79.3124294  94.9451160
  14.3843949  68.5467529  43.7280178  14.9810076  68.8205099  44.4246864
  13.5246086  68.5154009  44.1475582  47.9280949  17.9379201  53.1081724
  47.7056932  18.6858821  53.6625385  47.2833920  17.2689545  53.3385563
  11.4484692  70.0158978  39.5944858  11.6070449  70.9492922  39.7354174
  11.4688790  69.9104261  38.6433339  21.9394708  43.2256889  53.8550138
  21.4231539  43.8407946  53.3341551  21.3345766  42.9160833  54.5291662
   6.4091837  72.3235750  51.9984579   5.7453990  72.4160576  52.6818800
   6.5187359  73.2082176  51.6496897  35.7358980  63.4737587  65.0309420
  35.7742596  62.6165628  64.6067047  35.9947300  63.3044767  65.9367990
  24.4855571  72.7318907  19.9862766  24.4049954  73.5699034  19.5307791
  25.3947425  72.7079105  20.2846718   3.6355600  59.9563599  27.2970986
   4.3460461  59.3546295  27.0749331   3.0306363  59.4300795  27.8199077
  12.4307704  55.0601673  70.6738520  13.1678557  55.0630951  70.0631714
  11.7988753  55.6677914  70.2894878  25.8553243  52.7715254  51.1473846
  25.2602267  53.3318710  51.6454887  26.3410497  52.2857189  51.8139362
  -0.1147178 102.2586727  13.7116480   0.0195940 102.9944420  13.1142879
   0.7112818 101.7756557  13.6862206  55.6117105  44.9205112  36.1659670
  55.5027390  45.7950211  35.7923484  55.5766726  45.0583935  37.1125364
  69.6913195  88.6018848  15.0921810  68.9427328  89.0797234  15.4492772
  69.5524120  87.6965904  15.3703630 115.8007431  74.6579838  32.6253366
 115.3187943  74.7723627  33.4444094 116.5598965  74.1270685  32.8662634
  22.3668838  54.1420889  62.8428984  21.9696760  54.1513920  61.9720507
  22.0553422  53.3285618  63.2395697  22.8970528  93.2932472  73.6177015
  22.3443151  92.9408932  72.9201603  23.6801982  92.7430439  73.6037207
  69.6680689  98.7057877  41.7258739  68.7610722  98.6929989  41.4202261
  70.0464678  99.4859600  41.3204432  25.4506373  47.0757246  42.2344017
  24.8662210  47.4003172  42.9194784  24.8822546  46.5675735  41.6556454
 114.6885681  62.5648451  13.8328564 114.5207500  62.3796606  14.7568560
 115.6217098  62.7749348  13.7963223  26.4111018  64.4310760  43.0893183
  25.8760619  65.2192783  43.1826115  27.1731877  64.5916557  43.6458015
  96.7326736  28.1128478  52.6807880  97.4011803  27.9670620  52.0114040
  95.9623623  28.4011793  52.1911764  11.8222749  54.4566059  42.2678661
  12.4519753  54.8518658  41.6649723  11.3819253  53.7845564  41.7476034
  11.2562251  66.3405323  41.1628294  10.6866956  66.5330553  40.4179764
  10.9748542  66.9516420  41.8437195 105.1629066  37.8041029  58.0116224
 105.3197193  37.1476293  58.6903620 104.2177773  37.7740169  57.8631163
  15.4297924  45.2084732  65.7862949  16.2709188  44.7812462  65.9482050
  15.6407642  46.1406755  65.7340956  76.7024517  12.2853839  54.6372604
  76.8531656  11.4007413  54.3042040  75.7844019  12.2861195  54.9082232
  75.9919739  15.0683832  54.5480871  75.1748610  15.1706767  54.0601397
  76.1705589  14.1283572  54.5218039  62.4360895  86.2316990  44.3298674
  62.5409651  85.2829838  44.2580414  63.3167791  86.5565205  44.5172501
  14.6580458  82.9126644  41.3836527  13.8779771  82.5291157  41.7844200
  14.5254803  82.7968979  40.4427719  94.3497562  20.2810097  34.4553137
  94.3996811  19.6590471  33.7294340  93.4227371  20.2975488  34.6932244
 103.3796024   7.0799321   5.2813178 103.2470989   6.2000078   4.9286023
 102.6338291   7.2187817   5.8650756   8.2735264  10.2297807  17.7324462
   7.6554352   9.5071799  17.8421891   7.7362859  11.0182607  17.8092778
  43.5660124 106.3494968  40.3661156  43.0970860 107.1787643  40.2730751
  44.3449354 106.5707588  40.8765650  66.3233757  88.1780720  42.6436996
  66.6844082  87.5654888  42.0029020  65.5379772  88.5287762  42.2237110
  46.6236830  84.8066139  48.0082941  46.7934227  85.2391338  48.8451576
  45.8360195  85.2347279  47.6728392  39.4298840  88.3465958  43.1950712
  38.7026739  88.5976887  42.6255560  39.2924953  87.4141216  43.3619356
  56.9726562  91.0806370  31.4157009  56.6684675  91.6431427  30.7034540
  57.8979826  91.3031578  31.5181255  31.6154695 103.4033108  35.7420015
  30.8562493 103.6230087  36.2819552  32.2913742 104.0234852  36.0154414
  33.6819175 108.9403551  26.6199112  34.0934566 108.7936697  27.4715853
  33.9824012 108.2095579  26.0796571  17.1632338 104.3700600  71.1289930
  17.4545050 105.2403736  70.8570766  17.4434423 103.7913227  70.4199219
  37.2653246  81.4814758  66.6707325  37.3078179  82.4181557  66.4782429
  37.7155638  81.3888359  67.5103378  12.9138851  75.1069450  19.7687006
  12.0570838  75.4155350  20.0634837  13.1774139  74.4654655  20.4284620
  31.4701223  99.4578266   7.8598225  31.1420083  99.5082569   6.9620311
  31.1453056 100.2548790   8.2786649  72.9109955  93.1129742  46.9305801
  73.7477493  92.7086926  46.7011642  72.3926258  92.3978233  47.2994804
  43.9747763  84.3900871  19.0280509  44.8765373  84.0752506  18.9653182
  43.4744406  83.6273956  19.3182147  49.0112734  82.6798725  58.1934071
  49.6651316  83.2300377  58.6247015  48.4772635  83.2933998  57.6887846
  45.5319357  94.3083477  52.0913839  45.0773382  93.5237122  52.3978567
  44.9645233  94.6616554  51.4062214  27.7823043  75.5647039   4.7529504
  28.2630444  75.7244349   5.5651116  26.9603157  75.1641464   5.0360042
  14.0279639  89.3106937  41.1631489  13.5751414  88.8670731  40.4459429
  14.9260104  89.4176865  40.8496284 115.1862335  11.3738525  29.8720598
 115.9993935  10.8807540  29.9809813 115.0466537  11.3995183  28.9254403
  48.9050913 101.3909531  71.7878532  48.2648849 100.7195950  71.5519667
  49.4959784 100.9535885  72.4008751 114.2925453   5.4065275  45.0044203
 115.0638008   5.9475791  44.8351192 114.2188072   5.3864700  45.9585667
  63.9427185  96.3116074  51.7371559  62.9882336  96.3770008  51.7673779
  64.2473841  96.9587612  52.3732471   8.3030558  90.1729679  39.5169854
   8.6367762  89.3003178  39.3088078   8.5389066  90.3068924  40.4349566
   3.7780204  11.2605882  42.9964876   4.5635855  10.7635975  43.2247877
   3.1285244  10.5933690  42.7746677  34.5016503  88.4892654  61.4825535
  34.3275881  87.9540920  62.2568417  34.3567824  89.3888855  61.7756939
  36.5648007  84.2506504  66.5011787  37.4649191  84.5742130  66.4647627
  36.1626506  84.5699120  65.6933594  60.8639336 103.0482674  49.7094059
  61.6985703 103.1398678  50.1690006  60.5565739 102.1724510  49.9432945
  47.6051521  88.0296993  83.6680698  47.0701218  87.3439789  83.2683659
  47.8953552  88.5671806  82.9310989  61.4318275  97.6672459  24.0570283
  62.2762299  97.7804756  23.6206841  61.1785603  98.5515404  24.3218064
  88.4702587   4.3868491  12.7403271  88.1624222   3.4934956  12.8932571
  88.8861179   4.3527082  11.8788552  62.4740171  90.8552933  26.0217690
  62.9617023  91.4207172  26.6206789  62.3877478  90.0260735  26.4920759
  42.7789927 108.1770802  49.1998863  42.8184557 107.4015331  49.7595406
  41.9437647 108.5893536  49.4204521  68.5651445   5.9483480  67.3067284
  67.8471136   6.5772122  67.2346354  68.6279392   5.7629025  68.2436895
  39.9898505  96.7074776  39.4554090  40.5452728  95.9552574  39.2507243
  40.0083160  97.2419167  38.6615133  35.7962441 103.4784985  17.6755464
  34.8783159 103.2710934  17.5005460  35.9440470 103.1742191  18.5709774
  26.9836140  65.6367350  29.9039078  26.3803506  66.3454342  29.6801877
  27.2361732  65.2618694  29.0601516  88.0004406   1.7092027  42.7367830
  87.4126053   1.2462012  42.1398640  87.4261856   2.0480439  43.4235477
  67.4905014  94.3214130  55.9378147  67.0747280  95.1790237  55.8490419
  67.6835394  94.2443943  56.8721819 107.7358532   3.1046045  21.1368299
 108.3283520   2.9189801  20.4083276 107.1265221   2.3664317  21.1440444
  73.1991768  85.7429790  30.8726835  73.7808943  86.3960457  30.4836535
  73.7197208  85.3433514  31.5695071  56.0966492  85.6055546  39.6971345
  55.9354162  85.0025558  38.9714384  55.4401779  86.2934589  39.5873070
  78.9564276   5.6038845  29.5529437  78.7737083   4.7858405  30.0151658
  79.8940659   5.5678457  29.3638206  85.8209515  20.1163220  69.2741156
  85.9493732  20.4548860  68.3880472  86.6968727  19.8583567  69.5612431
  75.3699636  36.7804694  52.2495842  75.6677675  37.1102715  53.0973911
  75.9342527  37.2167444  51.6112423  12.7685261 105.9337521  55.9330606
  12.4761581 105.3250790  55.2546263  12.1202552 105.8433247  56.6314840
  68.0400133  14.0742683  37.2186303  68.3179188  14.9822211  37.3395443
  67.6084328  14.0676403  36.3642740  44.9487543 101.3266659  27.2355127
  44.8441458 100.4565811  27.6205277  45.1123047 101.9013882  27.9832959
  34.7631574 100.9700203  48.3637762  34.9981737 100.9258270  49.2906237
  35.5688000 100.7394886  47.9011440  46.1594105  84.1928387  61.5778208
  45.8970022  83.3007145  61.3509178  46.6020727  84.5189095  60.7942677
  81.1129761   4.9281225  35.5311298  80.9724903   5.6440395  36.1507750
  80.3636837   4.9748197  34.9373174  21.0575318  78.2397842  40.7548523
  21.1760759  78.9293957  41.4080143  21.8604612  78.2623959  40.2342510
 106.9338989 105.0356102  41.7768764 106.8393517 105.1784706  40.8351278
 107.8718853 104.8939037  41.9046497  13.1231821  74.8581123  32.5840116
  13.5900116  75.4267979  31.9717193  12.2210479  74.8510933  32.2641087
 102.2132301   6.5378720  39.7743893 102.4095440   7.4546868  39.9671125
 101.3206673   6.4112908  40.0961733  17.4099779  77.0525599  48.0425739
  17.8466272  76.4345980  47.4563217  17.3237288  76.5781546  48.8694572
  46.5540695  79.2563152  71.9376230  45.9649658  79.9937057  71.7781210
  47.4251509  79.6507263  71.9811249  58.9073277  94.1900349  35.4267645
  59.4600916  94.9138737  35.1322651  58.0410910  94.5810890  35.5405259
 101.7535496   7.5258243  33.7620497 102.6406670   7.1825302  33.8688588
 101.2937450   6.8503469  33.2635093  50.1700974  95.8374119  64.4080019
  50.1426268  95.3213596  65.2137136  50.2287912  96.7449093  64.7067022
  36.5527081  94.2548752  59.9205160  36.6955018  94.6534538  60.7789898
  35.8149242  94.7399807  59.5509529  32.7061033  94.5335674  65.2506447
  31.9772959  95.0722885  65.5586386  33.4178400  95.1560497  65.1016903
  49.0138292  84.7633743  51.1769962  49.2833996  84.3872356  52.0148993
  49.8342609  84.9174690  50.7086134  72.5555372  14.2425656  56.4647388
  71.6591644  14.3152535  56.1369228  72.8951025  15.1369798  56.4339209
  61.6785240  97.2079754  46.4972019  61.5413284  97.6360703  45.6521320
  60.9663582  97.5323296  47.0484209 112.8083083  -0.1750003  74.3746328
 112.2775599  -0.0712501  75.1644278 112.8633878   0.7064713  74.0055752
  30.7810569  93.2119846  32.9855561  31.7154169  93.3557320  33.1356812
  30.3461385  93.7785053  33.6228418  64.2973614   1.6275829  18.1161666
  63.7698126   0.8364999  18.0061150  63.7837124   2.3181966  17.6972985
  48.6645317  84.2266083  46.1305428  48.0201340  84.3367004  46.8297338
  48.1965017  83.7474537  45.4467344  56.4812803  78.7681532  51.9599867
  56.3915491  77.9890537  51.4111853  56.7512417  78.4299088  52.8137732
  66.4034510  92.0444679  48.8371754  65.8845520  92.5939751  49.4245625
  65.9834957  91.1853600  48.8795900 100.9808540  13.4238112  51.7033291
 101.2747478  13.5948372  50.8085632 101.7620850  13.1048501  52.1551895
  54.0819597 100.7838631  34.9301124  54.8114777 101.0085678  35.5076432
  54.4759417 100.7207298  34.0600395  65.6765175  84.7386932  64.2639017
  65.4758167  83.9542389  63.7534285  65.7161283  85.4423237  63.6161613
  85.3506279  99.1280746  32.6532555  85.0012970  98.2538223  32.8261566
  84.6765041  99.7241879  32.9794884  30.5482554 109.3479252  25.8021903
  31.4440966 109.0948772  25.5793214  30.2989292 108.7503529  26.5071535
  58.8237047  85.5722904  43.6738682  58.2165766  85.3536320  44.3808460
  59.5165873  84.9153423  43.7414169  43.7654305 107.9415417  45.7880068
  43.0578995 107.8276730  45.1534462  43.5702944 108.7744713  46.2173986
  28.2458615  87.7308655  37.5609159  29.1686630  87.5656033  37.3676300
  28.1716466  87.5983810  38.5059929  26.9976068  97.5184536  58.5132647
  27.4655986  97.6754856  59.3333626  26.0913610  97.7599812  58.7046194
  52.5807762  87.9793262  44.1515446  53.2047510  88.6785698  44.3463659
  52.8404284  87.2595310  44.7266102  75.2743053 107.5819492  23.6936378
  74.6505404 108.0787945  24.2230654  74.8050117 106.7813587  23.4590030
  62.8065825  89.4998169  33.8983440  63.7154818  89.2509270  33.7304616
  62.6988125  89.3901157  34.8431110  83.4945011  84.8374462  44.1369915
  84.1880131  84.9632359  43.4893465  83.0939388  84.0011311  43.8996172
 101.2425900  96.8142414  66.4680529 101.7028236  97.6354504  66.6413212
 100.7050419  96.6719437  67.2471762  62.5158405  92.9457378  19.1554034
  62.9611349  93.6650085  18.7075257  62.4045515  93.2555676  20.0542092
  39.3550086 103.0857754  42.8088331  39.3755436 102.7103424  43.6890936
  40.2715826 103.2743549  42.6074314  94.8312473 100.5043221  51.2094879
  95.0345039 101.2871838  50.6975842  95.5266571  99.8853779  50.9869051
  71.9083834 108.5364437  14.4459295  71.4414215 108.9972591  13.7489152
  72.4600935 109.2070484  14.8485923  59.8579359  92.4061584  18.6396289
  59.5319176  93.3012104  18.7335026  60.8015871  92.4787140  18.7827754
  45.8268070  88.4127903  54.0561485  46.3222885  88.7455750  53.3078241
  46.4926004  88.0599213  54.6464300  83.7840176  80.8970261  14.0733087
  84.4566059  81.5506744  14.2646003  83.5743141  81.0324955  13.1492364
 115.4125690  15.4698753  42.4477768 114.7148609  15.5658460  43.0960178
 116.0791874  14.9437928  42.8894758  98.7907982 107.1886635  45.2670288
  97.9373646 107.5621700  45.4869461  99.0376186 106.6829109  46.0413170
  51.4762926  99.3777180  33.5199785  52.2423267  99.0721226  33.0341482
  51.2060642 100.1749516  33.0643129  88.7052345  10.5386674  48.9774513
  89.4424820  10.9744263  49.4050217  88.2135677  10.1399100  49.6954250
  45.0608540  92.7976990  42.3961163  44.1510963  92.5605679  42.5759411
  45.0020790  93.6158276  41.9027138  40.9682560  93.9535046  37.7149248
  41.2416935  94.8705292  37.7381349  41.7852783  93.4620285  37.6303649
  50.7136011 105.6249523  30.6588221  50.2682972 104.8180962  30.9174991
  51.3524294 105.3461933  30.0027537  42.6158667  51.4842701  70.8044052
  41.6999197  51.5266943  70.5296659  42.5769615  51.2578058  71.7336130
  51.2721777  94.4377422  29.9233031  51.4472723  93.6433029  29.4188762
  50.4285812  94.7488499  29.5949984  40.6055406 109.2297871  50.5135107
  40.7816890 110.1567021  50.3521633  39.7408631 109.2182083  50.9239149
  42.8685713  95.1360989  46.5628958  43.3303690  94.5130825  47.1239948
  41.9969034  95.2081966  46.9517708  64.6931887 108.8088703  88.1450272
  64.7223377 109.2627811  87.3027992  63.8879395 108.2924843  88.1110668
 109.5315647  14.1168976  81.4112186 109.1376781  14.8662841  80.9645557
 110.0335693  13.6689901  80.7303333  53.9304781 106.5470982   8.8636571
  54.7166777 106.7432213   9.3732274  54.0478897 107.0311928   8.0462825
  62.8796816 109.1517735  26.2532806  63.5136414 109.7109890  26.7022896
  62.2397280 109.7618198  25.8864832  94.7906494   4.9090615  29.5457077
  95.5187511   5.5279899  29.4906735  95.1130390   4.1205716  29.1091537
 114.0762711   6.9887120  26.8115902 114.6439552   6.5035105  27.4103808
 114.6483898   7.2326326  26.0839772  42.1329403  95.2709866  74.4950390
  43.0756092  95.1194286  74.5631027  41.7376328  94.5340347  74.9607372
   7.3404479   4.7466683  53.2888603   7.3731619   5.3519833  54.0296412
   7.8126496   3.9712477  53.5921431  53.0002451  79.3192720  73.8628674
  52.4628735  78.8043213  73.2609606  53.8772583  79.2967653  73.4800243
  39.6377635  73.5430908  69.8923206  39.8326993  72.9633808  69.1559982
  39.2389941  74.3149137  69.4904518  72.8849602 107.7328396  51.7565346
  73.0370140 108.4103394  51.0976744  72.1204948 108.0399513  52.2438765
  53.1035185 108.6287880  70.0796318  53.0535078 109.0915871  70.9160233
  53.5427999 109.2433262  69.4917488 113.1154251   2.4917763  56.8910933
 113.8326645   3.0045035  57.2637987 112.6693821   3.0982885  56.2999821
  28.7649298  91.3744640  35.1274681  27.8704810  91.0434055  35.0462508
  28.7218595  92.0075226  35.8441377  56.2129545   2.6088214  32.8672218
  56.3956928   3.1686097  32.1125841  55.4831648   3.0386710  33.3131647
  73.9107847  97.0975208  54.6221399  74.2486048  96.4110756  55.1973867
  73.2885265  97.5807953  55.1657104  46.8403149 101.2545490  68.5766029
  46.3109255 100.9371090  67.8450203  47.0758247 102.1493149  68.3313084
  75.3246927 101.8202591  60.0382853  75.1002216 101.1107349  59.4362736
  75.0286579 101.5107155  60.8943129  35.3053737  98.1851864  66.5573263
  35.4827690  98.7843418  65.8322239  36.0652232  98.2738304  67.1326542
  79.8571825  18.1569064  58.2712507  79.0777493  18.7026620  58.3755064
  80.4066086  18.3778358  59.0232849  63.9137554 107.7291965  78.9099741
  63.3958912 108.0862045  78.1884527  64.3845320 108.4840202  79.2633104
  74.2900467   7.4479830  48.8886118  74.8222923   6.9904923  49.5394945
  74.7226524   8.2946140  48.7777042  81.7965412  90.2265549  38.2175612
  81.2624454  90.9556675  37.9023528  82.0792961  90.4969120  39.0911674
  56.0388803  87.6459026  51.7614746  56.6750860  88.0606842  51.1788654
  56.5425491  87.4183846  52.5430012  82.7422523   7.5526708  33.3647823
  83.0870724   7.1083885  34.1393423  83.1927967   7.1368551  32.6297069
  53.8807297  91.6853523  37.6182151  53.1538868  92.1234608  38.0609274
  53.4887791  90.9021759  37.2318935  88.1436729  97.7724361  76.8846941
  87.9698944  98.6272717  77.2787714  88.0481243  97.1517849  77.6071167
  64.8702097 109.4588852  69.8602676  64.8520374 109.6319866  68.9190245
  65.5539989 110.0378418  70.1971149 104.1535759  24.9181962   4.6136114
 104.0499306  24.2012048   3.9879841 104.9083424  24.6650767   5.1451057
  33.3273554 109.5375824  39.6116209  33.5357141 108.6054516  39.6745205
  33.4104943 109.7392273  38.6796021  44.2802811  94.2334557  40.0674629
  44.2181158  93.7993622  39.2166209  43.3768606  94.2767811  40.3808165
 104.3979263   6.2798750  34.4305944 104.9977589   6.4502168  33.7043643
 104.7974968   5.5510628  34.9053645  51.2506533  94.4853306  52.5483751
  50.6612062  95.2101612  52.7567148  50.8864164  93.7369537  53.0211258
  70.5661058  98.0275249  87.1207047  71.3425922  97.4728584  87.0455265
  70.3205776  97.9719448  88.0442142  69.9543238  90.7123852  59.1638565
  70.2378988  90.8969975  58.2684612  69.4842291  89.8810577  59.0996170
  36.8949962 102.7807331  23.7897348  36.4778614 102.0015430  24.1572952
  37.1743941 103.2856464  24.5534348  25.9977555  83.7536144  56.5580034
  26.1656642  83.8794708  55.6240845  25.0911260  83.4494209  56.5994883
  41.6553020  86.1186600  37.8971267  41.3835907  85.7260609  38.7267470
  41.5624714  85.4134083  37.2566319  38.9996767 106.0793304  50.1192522
  38.8353872 106.8914413  49.6399641  39.7638679 105.6970310  49.6878672
  36.9579029  92.0701790  52.0799112  37.3480487  92.9341888  52.2122383
  36.0973215  92.1299076  52.4947214  36.1509562 108.8836002  69.2329788
  35.2073216 108.7996387  69.0960932  36.3712788 108.1672478  69.8283958
  76.2799644  12.3980403  16.1237395  75.6519127  11.7714679  15.7643092
  77.1364355  12.0327747  15.9017706 108.1151867  99.3327332  63.2304525
 107.8243542  99.6102715  62.3617649 108.5536480  98.4952641  63.0800056
  42.6155281  30.9379840  72.9128838  42.0230007  30.1875544  72.9575396
  43.3930969  30.6029654  72.4663591  51.2378502  95.8324623  56.7042446
  50.6635475  95.4942799  56.0171986  50.6838655  95.8668423  57.4840879
  46.1234140 105.5590725  37.4174309  46.2723255 104.8331451  36.8115473
  46.4603949 106.3279152  36.9574785  73.2548189 103.4225845  56.7303658
  73.8635015 103.4409809  55.9918547  73.7287188 103.8527966  57.4421024
  44.0408373 101.3683796  84.4483089  44.0712023 102.3116302  84.2883301
  44.6650982 101.2259102  85.1598072   4.1373196  88.2623196  31.4699912
   3.8882983  87.3470783  31.5986395   5.0382465  88.2225704  31.1490798
  43.1247854  88.3102226  36.8530059  42.6790619  87.5159454  37.1474171
  42.4293756  88.8495445  36.4764905  49.8210049  98.5470104  55.3789949
  49.6105385  97.8406715  54.7682428  49.5973015  99.3480110  54.9050903
  23.5521793  87.6764679  42.2028399  22.8860593  87.5317192  41.5308523
  23.9526010  88.5132504  41.9668388  48.4008408  84.5814228  24.8561597
  49.2168379  84.4745827  24.3673229  47.8573370  83.8438034  24.5791268
  24.1266656  43.5935402  88.1094360  23.4529734  43.1202412  88.5976505
  24.3754601  44.3170881  88.6845970  37.8090191 100.7628918  32.0400524
  37.0302629 101.0165119  31.5446305  37.5074196 100.7036304  32.9465604
  80.4011345 100.5060005  62.1313715  79.5283031 100.6710625  62.4879599
  80.9325218 101.2348366  62.4517679  75.0667000  92.5111961  34.8503828
  74.8095465  92.6617050  33.9407396  74.4778919  91.8205547  35.1546025
  28.5086203  97.5408554  60.5740881  29.4518280  97.5730610  60.4142284
  28.3034611  96.6065693  60.6095123  72.5418711   4.3508223   4.6371326
  72.9831028   4.0108430   5.4155689  72.2309971   5.2178812   4.8975116
  60.9434319  90.8152962   7.6965618  61.3318491  90.2147865   7.0603591
  60.0960159  90.4240704   7.9088312  26.9368052  89.9832249  68.3821440
  27.7356172  89.6358681  68.7789726  26.8441701  90.8589172  68.7573957
  74.1854906  63.4546328  51.3062906  74.9402952  63.5933256  51.8783617
  74.4730520  62.7817249  50.6892586  94.1328239  12.8903747  41.3366461
  93.6250114  13.1332970  40.5624723  93.7696552  13.4286761  42.0399046
  86.7496204  67.6270580  74.3759203  86.3876152  68.1244135  73.6425591
  86.4469433  66.7307615  74.2300892  27.9228830  78.4971285  15.7245588
  28.7068868  79.0277243  15.8661234  27.2736382  79.1143513  15.3872931
  56.8349314  77.0579576  54.5429802  56.0264635  76.5460443  54.5194006
  57.1203375  77.0130301  55.4555368  14.5773757  80.2354908  66.9408941
  13.7205291  80.6000710  67.1625376  14.4466484  79.8165846  66.0902119
  69.5100307  87.9494572  82.4114704  68.7112904  88.4214401  82.1759319
  70.2138281  88.5813046  82.2642708  19.3499732 100.2411366  48.7069273
  19.3410659  99.5464039  48.0485201  19.5911050 101.0293007  48.2202148
  35.3171110  88.3779144  64.9261045  34.8986292  88.6435413  65.7449722
  35.4614282  87.4368477  65.0251532  43.0162621  86.7145061  20.2462292
  43.2521296  85.9837437  19.6747589  43.8491917  87.1431065  20.4431176
  53.6245966  78.5131216  51.0736036  53.6236095  78.5086775  50.1164150
  54.5210552  78.2782984  51.3132906  85.4895878  11.7899334  22.3289752
  86.2110806  12.0703042  22.8920698  85.1469612  12.6023269  21.9563413
 102.3078346   6.5808141  27.3005080 103.0513763   7.1106774  27.0130539
 101.5436745   7.0143354  26.9205761  30.4232788 101.8934155  25.5170250
  30.7208228 101.0638523  25.1434970  29.8237729 101.6389084  26.2184858
  43.3042145 108.1523800  32.5857282  43.6944628 109.0258980  32.6158094
  43.4916782 107.7765560  33.4458685  94.6878242  13.6128044  74.6101093
  94.1817284  14.2237246  74.0745020  94.1039085  12.8650224  74.7369671
  58.1702614  87.8922749  37.6077843  57.4871349  87.7556324  38.2642126
  58.6366415  87.0572281  37.5700521  73.0955267  27.6585245  42.0789289
  72.7314949  27.0373988  41.4481258  73.5326672  27.1099615  42.7302504
  78.8709021  77.8614664  67.4432516  79.3780708  77.7054358  68.2399130
  78.3192587  77.0842695  67.3544359  48.1412077  78.3944082  17.4837947
  47.2659636  78.2648945  17.8490424  48.5722446  77.5461531  17.5882280
 103.0944633   7.7641636  58.3557129 103.5744190   8.3856922  58.9030504
 102.1891594   8.0742133  58.3786297 102.1485615   2.6065525  24.0923381
 102.2623634   3.5510102  23.9861298 102.8718567   2.3404953  24.6600413
  46.3382244 108.4117126  54.5190620  46.8652725 109.1911602  54.3432379
  46.9470644 107.6812363  54.4097424  51.8411779  75.2085590  82.1150684
  51.1326027  74.8752928  82.6655960  51.4713430  75.9832191  81.6915607
  50.6411409  85.8272839  47.2415066  49.9814415  85.2116203  46.9221640
  50.1520443  86.4373875  47.7935839   7.0623320  82.9875278  26.6138959
   7.5877440  82.2036171  26.4537120   7.7018350  83.6977768  26.6668868
  15.4979146  93.3590031  67.0638895  14.5724213  93.4109783  66.8251562
  15.9590268  93.7499237  66.3217402  55.8771229  85.2676105  84.3215084
  56.5760708  85.5631828  84.9048996  55.0960159  85.7251644  84.6325397
  60.5023003  78.9335394  59.3917704  61.2102556  79.4408464  58.9946938
  60.9093714  78.5011339  60.1424694  56.0855341  84.2498970  37.4143505
  55.5062389  83.8309288  36.7778659  56.9249105  84.3258667  36.9605803
  52.1418095  81.3847923  43.8781643  52.2595024  81.9516850  44.6404076
  51.2593365  81.0280037  43.9790010 113.8185215   8.0824518  50.9330511
 114.2237568   7.6054513  51.6572618 113.5073280   7.3984772  50.3401136
  47.9091454 101.1046410  35.0146556  47.9644108 100.2580738  34.5713663
  48.2663441 100.9416580  35.8876252  21.4484334  96.7649460  73.5172319
  20.5818057  96.9272709  73.8898373  21.6015482  95.8316422  73.6646652
  62.3610258  89.4991207  36.4908552  61.4554119  89.7804356  36.3606334
  62.4684000  89.4699001  37.4415636  54.1125870  85.5173779  29.0224862
  53.6035109  86.0194397  29.6588922  54.9040174  85.2622604  29.4965935
 111.9518185  13.5108411  50.8596754 111.7545223  12.9304910  50.1244879
 111.9026756  12.9458010  51.6307449  90.7800770  16.3849008  66.7702913
  90.4234314  16.4572453  65.8849669  91.7220020  16.2743163  66.6407633
  83.0870533  24.0666890  32.9407287  82.8648186  23.2505870  32.4925971
  82.2863770  24.3106771  33.4050679  88.0634403  16.9428515  42.8382874
  87.1601009  17.2104752  42.6692247  88.1135368  16.0461390  42.5071859
  46.8375015  88.5755157  25.5329585  47.6768446  88.3641434  25.1242280
  46.9791222  89.4284916  25.9435773  10.8892369   4.4093063  16.7636347
   9.9452591   4.2507711  16.7616320  11.0359359   4.9913397  16.0180140
  29.8881531  90.1778316  80.5615807  29.7661877  89.3401241  80.1148033
  30.5422354  89.9963379  81.2364674  38.9771461  93.5316658  35.6971383
  39.6923685  93.6685276  36.3183928  38.2745814  93.1474781  36.2215757
  77.2312021  96.7734432  22.4252844  76.4680004  96.2143803  22.5708985
  77.2176361  96.9574070  21.4860249  43.4550190  97.0373917  60.9635639
  42.8725147  96.4350510  60.5008554  44.2890978  96.5707588  61.0164690
  62.1545601 106.5745258  25.5245876  62.2465992 107.4490452  25.9027076
  61.4562941 106.1649895  26.0354066  80.9548664  89.0560150  64.8374796
  80.2161789  89.6521950  64.9605036  80.5531025  88.2278347  64.5749378
  44.6948957   6.3164651  40.8977175  45.3569889   5.8491313  40.3883410
  44.7780657   7.2284597  40.6191874  76.9341898  16.0139346  64.5700502
  76.1814356  16.0552335  65.1598644  77.0560360  15.0794601  64.4022846
  68.3796501  89.8607254  22.7701497  68.8060617  90.7129955  22.8598237
  68.6310911  89.3827724  23.5604453  57.6984310 107.5340271  50.9606552
  57.3228121 106.6587257  50.8657932  57.1673012 108.0860710  50.3867435
  15.2203441  94.6185207  34.9937701  14.8832238  94.6522999  35.8890033
  16.1098313  94.9659729  35.0595260  16.1629343   9.3758124  70.2215099
  15.2192998   9.5239049  70.1594257  16.5521657  10.1063657  69.7408628
  85.9254551  16.5394354  39.3122554  85.4974747  15.6891179  39.4123721
  86.2916470  16.7265117  40.1766253  86.8248940  13.8445008  57.6881838
  85.9315586  14.0644932  57.4240160  86.7179489  13.3245957  58.4847355
  90.8319378  11.6280746  38.8542795  91.4663601  12.3174489  39.0505075
  91.2828827  11.0577130  38.2317328  42.7221680  91.7563725  42.8747654
  42.7905035  90.8430672  43.1530571  42.0245981  91.7554760  42.2193050
  76.8275738  79.3854904  54.1043806  77.2663784  79.8519135  53.3929491
  76.3715267  80.0699329  54.5940733  79.8890972   1.0256501  44.8847342
  79.4441509   1.8388402  44.6460295  80.1742268   1.1648210  45.7878208
 101.2212086  28.0975485  46.4409399 101.3311768  28.8707924  46.9943237
 100.4606819  28.2993150  45.8958530 101.4854908  30.4939842  47.9580975
 100.7981968  31.1445713  47.8145885 102.1881485  30.9792829  48.3905125
  77.4652004  99.8786926  79.3459177  78.2981968 100.3096676  79.1546011
  76.8730307 100.5941486  79.5776224  33.3596230  79.6039438  17.9290795
  33.0286217  78.7233496  17.7523720  33.9844465  79.7710276  17.2234511
  30.4903483  11.6566133  62.7127600  29.7882390  12.2959197  62.8334379
  31.2659264  12.1852279  62.5249386  60.3099251  89.7505093  29.2930651
  60.1809835  89.4331551  30.1868701  60.8938742  89.1066647  28.8921976
  64.9598837 105.4498959  56.8944263  65.9047031 105.5978298  56.9352579
  64.5814180 106.1835194  57.3789740  99.3420315   2.5241762  37.6542807
  99.5620632   3.0598921  36.8921614  99.8658371   1.7300750  37.5481296
  84.6342754 107.5045872  33.2415962  84.9529648 106.7524719  33.7405896
  84.9363041 108.2659817  33.7368703 105.9656811  24.6424937  69.2179346
 106.5476704  25.1522756  69.7815371 105.1908684  25.1944613  69.1119957
  83.1833649  94.9564743  36.1312675  83.9920998  95.1700306  36.5966320
  82.9550648  94.0789795  36.4380646  79.0300035   1.6696645  20.3660250
  79.0119743   1.1299694  19.5756853  78.1652927   2.0790467  20.3962755
  41.5361261  93.5629177  50.2128410  41.5811443  92.6888561  50.6004190
  41.0732841  93.4342480  49.3849182 108.5430813   1.2260736  47.1470594
 107.9479122   1.0962765  47.8854132 109.0730286   0.4293057  47.1236706
  89.1698170  79.7479057  43.9148903  88.3934689  80.1379490  44.3166161
  88.8383675  79.3049335  43.1337643 105.3059578   3.0684555  48.6755848
 105.4020500   2.9093760  47.7366018 105.4352951   4.0118456  48.7731552
  78.5909271  82.0347786  55.7177639  78.9392614  82.9136848  55.5680466
  78.3269215  81.7306423  54.8494101  60.1045084 109.2649269  59.4376135
  60.8689737 109.8078060  59.6302271  60.1571894 109.1026020  58.4957504
  29.5940948  94.4079304  35.1951146  28.9454889  94.1012859  35.8287621
  29.1354060  95.0776958  34.6879101   1.1142026  52.9140949  93.6110878
   0.8589853  52.1690655  93.0669975   0.3796759  53.5239506  93.5419178
  14.5379221  15.2878618  64.0604162  15.0328195  15.1632011  63.2506227
  14.0743804  14.4601130  64.1876650 104.4436836   6.9301999  77.6002455
 104.1319561   7.7592975  77.9630947 104.4526768   7.0713711  76.6535568
  76.6448212 100.5734825  75.0224209  77.2743750 100.7305527  75.7261419
  77.1849251 100.4345703  74.2444611  70.8642006  14.8541975  20.3956914
  71.2280464  14.0547478  20.7761216  70.4719639  15.3152943  21.1371565
  95.7830048 107.9154968  57.3451853  96.0390377 108.5910892  57.9730797
  96.4734364 107.9305077  56.6823816  67.4260569  97.4693871  33.3848405
  67.2930145  96.7500210  32.7675557  67.6075363  98.2291889  32.8316712
  70.1146081   8.6406435  94.4280979  70.0889066   9.4866432  93.9810460
  70.6735185   8.7896408  95.1907573  98.7215137   8.6985946  70.3213406
  99.1668987   9.5135534  70.5530739  99.3571472   8.0122364  70.5241013
  21.6009402  13.7082481  50.8195972  21.7035222  12.7779198  50.6191015
  22.1797132  13.8573647  51.5672684  81.9924355  14.3670905  59.1638279
  81.9842720  15.0327218  59.8516512  81.3397217  13.7253618  59.4437981
  58.4700441  94.5015717  50.0186825  58.4342051  93.6492634  49.5844936
  59.3893147  94.6070766  50.2637291  89.9985695   1.4798844  47.9979372
  89.5287418   1.8089996  47.2316647  90.5716991   0.7957703  47.6518965
   7.1668029  26.5972471  36.4709806   6.9777709  26.1956334  37.3190379
   7.6394951  27.4011469  36.6867089  75.8209038   5.4902959  22.8893781
  76.7327547   5.7715535  22.8141975  75.8745956   4.5647812  23.1276464
  25.2676010 108.3222866  46.3146496  26.1753178 108.2412529  46.6074181
  25.3230405 108.8156128  45.4962397  76.2433481  81.4220047  34.5673156
  76.6521502  81.5638733  35.4211235  76.9788742  81.3394833  33.9603400
  38.0055404 101.8788815  67.1219969  38.5353184 101.6821480  66.3494253
  37.1113276 101.9488239  66.7877436 104.3101978  23.2388997  49.2444229
 103.7868500  23.8480353  48.7235641 105.1505089  23.1944084  48.7882137
  93.5156631   6.9168454  70.9393215  93.9308357   6.0570872  70.8709049
  94.1763306   7.5284094  70.6141376   8.9408058  18.6969793  16.6379392
   8.0900913  19.0687907  16.4049745   9.5650303  19.4026518  16.4688194
 106.4779186  13.6876404  56.2172270 106.3064671  12.7702558  56.4299345
 107.1919346  13.6564696  55.5804873  16.3164651  18.8167012  27.0910478
  16.0410416  17.9080331  26.9698215  17.1630764  18.8715267  26.6477919
  31.8601823  88.8128281  40.8973694  31.8882036  88.9605236  39.9520469
  31.5331388  87.9180527  40.9904003  65.0204468  84.4195175  27.7289128
  64.3068790  83.7995911  27.5781107  65.7667494  84.0439320  27.2617888
  83.2355404  22.6894951  11.3649404  83.6830235  21.8435478  11.3841212
  82.3984528  22.5275779  11.8000126  70.2840281  99.3005657  35.6994581
  70.7768536  99.0874577  36.4918852  70.8394337  98.9945698  34.9824333
  83.1126213  86.2325478  68.1086588  82.5411892  86.0227966  67.3699427
  83.9069366  86.5825462  67.7051926  77.3252058  89.1532993  12.0909369
  77.9623365  89.5875835  11.5237594  76.5830803  88.9642239  11.5167153
  68.4816122 102.2369099  47.2401810  68.6719179 101.2991428  47.2158432
  69.2147446 102.6176167  47.7237225  12.0316696   1.6569020  64.3247700
  12.6801288   0.9773442  64.5089817  12.5502038   2.4197079  64.0688753
  72.0675611  86.9028759  71.8561077  72.7386236  86.3047123  72.1849155
  72.2283840  86.9484901  70.9136200  67.0689297   3.8788950  27.7088571
  67.3265171   3.1005761  27.2147918  66.8057108   4.5109582  27.0399427
 106.9364643  25.5798602  11.9943941 106.9115067  25.7196569  11.0477865
 107.5059223  24.8190928  12.1092176  44.2312336  91.4037323  67.8402042
  44.7656870  90.8031559  68.3597279  43.3736753  90.9811592  67.7926207
  76.6947651 102.8476620  44.9697828  76.0153008 102.2869396  45.3441525
  76.2134266 103.5000801  44.4609737  52.6160192  92.1473026  20.5302238
  52.9099560  91.4786053  19.9116099  51.7715454  91.8263054  20.8465505
  33.7222648 100.3954887  67.8954124  33.4335804  99.4960117  67.7409887
  33.0025291 100.9369946  67.5714016  33.5302973  75.0979376  66.3426781
  33.6575723  74.2869854  66.8350124  33.6547041  75.7927036  66.9892454
  43.1028748  48.9264727  87.9255867  44.0170765  49.0142298  87.6558495
  42.6361084  48.7021399  87.1205807  99.2826176  22.1541905  50.8524036
 100.1523876  22.4916220  51.0665560  99.0658760  22.5647068  50.0153065
  53.6499166 103.3982754  55.1353645  53.0113077 103.6942005  55.7840872
  53.6544943 104.0881062  54.4717836 115.1599216  39.9669313  43.8082790
 115.0605202  40.7715178  43.2993698 115.2680206  39.2795706  43.1509495
   0.4406220   3.2126626  47.1735144   0.2464644   3.2668975  48.1092453
   0.9765835   3.9853749  46.9949293  83.5877228  99.6951485  36.0835552
  83.0495930  99.7961521  36.8686938  84.2441273  99.0418243  36.3254976
  89.3924427 104.1257763  77.9405832  89.6145630 104.8602486  78.5128164
  90.2350330 103.7243843  77.7280760 112.7183533   9.5142639  21.6580176
 112.2317219   9.8092222  22.4277067 112.9727364   8.6151236  21.8655515
  34.6817684 101.5947437  13.2892823  34.7346115 102.3221111  13.9092636
  35.3013015 100.9474564  13.6260843  61.6344786  95.4819870  25.9615159
  60.8784628  94.9549770  25.7028103  61.6519833  96.2016106  25.3305888
  50.7529688  56.2296200  92.7544498  51.4897776  56.8172836  92.5871277
  50.6420326  56.2492275  93.7049961  76.8755865   0.5765904  34.9454737
  77.8205061   0.5570214  34.7938752  76.6601610  -0.3117023  35.2296543
 113.0161953  21.3692212  73.4376717 112.7515507  20.9607339  72.6134491
 112.2224140  21.3653946  73.9725876  88.8877678  84.2914867  93.6816025
  88.5060215  84.6399307  94.4872665  89.7883511  84.6158123  93.6834908
  25.8077073   5.7577062  33.3623028  25.3938127   6.2611359  32.6612473
  25.0775027   5.3483200  33.8264513  63.1468582  88.4598160  49.9902439
  62.7335691  88.3693886  49.1316128  63.6399317  87.6475143  50.1054668
   7.6988214  13.7382805  39.5408249   7.8918648  14.1738880  40.3710127
   6.8317711  13.3533013  39.6682882  47.1712112  79.4848442  56.1721134
  47.4267006  79.7826004  57.0452118  47.9594088  79.5968914  55.6406784
  87.8544235 108.7656784  35.1792097  88.2909775 108.4199715  35.9577584
  86.9485283 108.9056683  35.4548597  15.7491338  22.4018455  35.5637646
  14.8258972  22.2652912  35.3511167  16.0963368  22.8929305  34.8191047
 108.9874458  16.6068614  43.6199331 108.0589294  16.7288125  43.8179684
 109.4347382  16.7913699  44.4458389  38.1079078  93.0736732  71.3006639
  37.5442910  93.7846756  70.9956312  37.7937508  92.3008347  70.8313417
  52.1887159 106.1090755  69.5000792  52.9861212 105.5797958  69.4847250
  52.4954462 106.9993496  69.6720171  92.5975895  17.3317206  85.2535915
  92.5992584  17.4037695  86.2080765  91.6706944  17.3361397  85.0146866
  74.7996807  10.6915271  18.7930036  74.7887087  11.6382420  18.6521339
  74.0137386  10.5173111  19.3108630  66.3288879  74.6736908  14.4888830
  66.6360331  75.5270052  14.1826975  66.6113234  74.6311712  15.4024768
  71.1975241  78.2227945  81.1172009  70.5212307  78.8148975  81.4462471
  71.7507076  78.7746716  80.5643463  48.4178495  98.5398197  46.1569834
  48.4761953  99.1134167  46.9210577  49.2389441  98.0478859  46.1635303
  48.4668922  86.8760681  16.4581358  48.8728809  86.1360645  16.9095719
  49.1132259  87.5792408  16.5216875  52.5173950  97.7380753  78.6290741
  52.7598572  97.7503586  77.7031708  51.8650389  97.0408630  78.6965990
  92.4814987  10.5432737  13.9712572  92.8342247   9.9668455  13.2933545
  91.6191292  10.1788545  14.1706181  75.4506111  95.1771164  61.4710903
  75.1752663  94.4452286  62.0231438  74.8288345  95.1753426  60.7433414
   8.8436592  74.6265554  40.0979900   7.8998727  74.5790148  39.9455476
   8.9385605  74.5273590  41.0452938  86.6481781   3.6676681  58.0530739
  86.1948490   4.1117334  58.7696838  87.2903824   4.3064326  57.7435827
 109.6469784   3.6397693  73.7333918 109.1800308   4.4489390  73.9418077
 110.4754639   3.7124744  74.2072678  59.6391964  90.6996632  50.5793095
  59.8107815  90.3676033  49.6981001  60.3386021  90.3269386  51.1161041
  86.8874550   9.0807199  10.5301619  87.3066998   8.4625208   9.9315846
  87.5259018   9.2044848  11.2325180  79.9485874   2.6997596  53.9028931
  80.1088238   2.7217802  54.8463297  79.9280167   3.6204585  53.6418915
  92.1619225  17.9961050  56.5246582  93.0664730  18.3090520  56.5155315
  91.9871521  17.7422345  55.6184340  94.4795322  25.9850788  30.6190658
  93.7108898  25.7045221  31.1157656  94.6135712  25.2914858  29.9731636
  58.6177874 102.2447681  43.5034227  57.7889156 101.9594765  43.1189537
  58.7868261 101.6140366  44.2033100  65.4298401  78.5230541  62.7569389
  65.7902765  79.3243170  62.3770809  65.7987785  77.8184700  62.2243261
  84.6443462  90.0563431  32.3350835  83.7327003  90.3473949  32.3555970
  84.8342896  89.7999859  33.2375431  80.7307053 109.1036797  81.3373089
  81.0461521 110.0072670  81.3531780  81.5267277 108.5723495  81.3209343
  87.9172516   2.6627043  18.7392020  87.1400166   2.3292983  18.2909036
  88.4842300   2.9760826  18.0345321  51.4085293  93.6618900  36.3774610
  50.7665730  93.6686420  35.6674743  51.7338037  94.5613575  36.4148116
  75.6953526  26.2262273  58.1791353  75.5257463  25.6464386  58.9216375
  76.2655258  26.9085813  58.5334301   1.8518387   5.4258460  44.9623537
   2.7625090   5.2278566  44.7439241   1.3388322   4.9148777  44.3362808
  77.9136133  99.6676445  55.4971218  77.8307867  99.5567322  56.4442587
  78.4208918 100.4727554  55.3937101  60.0699806 105.1933670  26.8329453
  60.4727030 104.9448109  27.6649714  59.9561501 104.3659687  26.3653159
  37.9598808 107.6067162  63.2349777  37.5466394 108.3249950  62.7558851
  38.4750700 107.1434212  62.5745440 106.9932175   5.9604794  32.1369076
 106.7023754   6.8708038  32.1912074 107.4815083   5.8162934  32.9474711
  84.5767593  13.9991748  35.6074715  85.0944424  13.2183123  35.8036637
  84.7261620  14.5793819  36.3539791  94.8895073  15.3343356  62.8459406
  95.1815605  14.9861717  62.0034933  95.0087452  14.6090782  63.4591436
  11.4667666  36.6044235  36.6797805  11.4323604  36.0642624  37.4692583
  12.3424506  36.9907665  36.6918850  56.1888218 100.9018040  24.8030567
  56.3614559 100.7592773  23.8724041  55.7631683 101.7583942  24.8392606
   2.4142443  19.1332185  90.8601570   2.5041085  19.8230672  90.2026844
   1.5588281  18.7424254  90.6818962  82.9475117  23.9607811  63.1498098
  82.2013474  23.9068222  63.7469339  83.2712555  24.8558378  63.2512999
 112.0122719  23.3159328  12.3249924 112.1207809  22.8487921  11.4965975
 111.2898445  23.9230943  12.1647274 102.5322247   2.5537929  18.2940018
 102.3202133   2.7004182  19.2158377 102.0734596   1.7445219  18.0685091
  83.1045818  11.0536098  58.0636835  83.7804031  10.4570830  58.3856392
  83.5729599  11.8668282  57.8751802  62.2528362 104.6758461  23.7642503
  62.5775433 105.3641033  24.3448591  62.6946735 103.8813972  24.0640306
 110.2265167  28.7623525  39.3888307 110.8788967  29.2308664  39.9095225
 109.6090984  29.4396663  39.1126585  63.8552237  98.5174179  41.9429684
  64.1648769  99.4081306  41.7787313  64.4817257  98.1580448  42.5711298
  44.0368366  97.3836327  10.7701159  44.1149521  96.7359257  10.0696754
  44.6157551  98.0972481  10.5021000  42.9005146 105.4621887  47.1448278
  42.8854179 105.3955555  46.1900711  42.9152679 106.4032841  47.3190403
 100.3885078  10.3513420  30.2396035 100.6444454  10.2992463  31.1604810
  99.7861481  11.0941970  30.2000809 112.7279758   9.6646786  60.7108068
 113.2788467  10.0838697  61.3719082 112.7309418   8.7376815  60.9493399
  96.3313389   6.7297202  57.5314140  97.1502209   6.9180512  57.9898787
  96.6058254   6.4200211  56.6682959  34.4041443  80.2667999  29.7382069
  33.5695004  80.7292843  29.6626616  34.3477774  79.5636702  29.0911627
  71.0141134  79.4407511  11.4455605  70.0728750  79.2765188  11.3878214
  71.1561203  79.7030640  12.3550975 106.6686726  11.0040534  45.2814054
 106.4658928  11.9370401  45.2132416 106.4294434  10.6439328  44.4274092
  31.1429739  92.2751904  40.8650398  30.3544426  91.8614769  41.2161636
  31.6743183  92.4714851  41.6366434  44.5160389  83.1257057   9.4045198
  44.8822212  82.2738266   9.6421182  43.7298107  83.2074165   9.9443322
 104.6141243  20.4369402  38.8297486 105.2721024  20.6448436  39.4931316
 104.1275406  19.6994317  39.1979122  90.3844738 105.7833862  75.6953192
  91.1672783 106.0305500  76.1876202  89.9142742 105.1861763  76.2771130
  89.3655682   4.8855266  44.9886179  88.6554050   5.4714090  44.7265959
  90.1382732   5.4490018  45.0292587  75.1145077  97.2408485  35.9709001
  75.2741957  97.4742699  35.0564384  75.6325293  97.8701878  36.4727139
  74.9390316  97.1921158  58.7785816  75.7517481  96.7846966  58.4790373
  74.2471790  96.6985035  58.3382177  68.6351776 109.0851498   6.9674486
  68.4007788 108.5842705   7.7487320  68.2099390 109.9338341   7.0905215
  49.2073107  83.3091545   8.2538241  48.7142992  83.4328938   7.4427384
  48.7774849  83.8855457   8.8856894  84.7211266  20.3507209  41.9268322
  84.3522549  19.6507716  41.3880968  83.9701557  20.7109499  42.3985481
  89.9501133  20.1639032  37.6136947  89.4893265  19.9386561  38.4218812
  90.0639725  21.1132026  37.6595140  62.2042513   7.4955422  47.0120716
  62.1874046   7.8231579  47.9113007  62.8654861   8.0315375  46.5742254
   3.6721948  59.5028973  89.4307518   4.4116884  59.5938587  88.8298321
   2.9153636  59.8006248  88.9259720  55.6523800   7.4766642  23.1488061
  55.1922321   8.3006585  22.9890203  56.4394379   7.7313375  23.6303759
 110.8330250   1.2033752  35.1125741 111.3235664   0.6132138  34.5404673
 111.2984371   1.1685554  35.9482837   4.4176883 106.0286713  64.5900154
   4.9508497 106.5512466  63.9909506   4.1891584 105.2468204  64.0873003
  81.3501263   4.3240631  14.3181515  80.4685688   4.4359586  13.9623773
  81.3634491   4.8730132  15.1021850  19.6526754  23.5341120  34.7668076
  20.1897025  23.5293770  33.9744616  19.2017424  24.3781710  34.7454810
 100.9492207   2.7503717  27.4004364 100.4694462   3.3904245  26.8747234
 101.7637730   3.1951827  27.6347041  62.7673054   7.0968443  17.7626109
  63.1843948   7.4536800  16.9784307  61.8977737   6.8251109  17.4688351
  63.5554647 108.7150478  62.6116085  64.2650604 108.1579113  62.9314375
  62.8765249 108.1011200  62.3316669  82.8399658  15.4712212  28.3186531
  82.5685883  15.5913126  29.2286897  83.7561989  15.7478440  28.3034515
   3.6421832  18.0428421  52.4142218   2.7248442  18.1608856  52.6607704
   3.6561322  18.1857073  51.4678431  44.0836525  97.2012997  57.2775555
  44.5668411  96.6573334  56.6555691  44.7304201  97.8292656  57.5994062
  72.0841646  75.4016399  45.2814150  72.0763111  76.3582039  45.3154087
  72.3302364  75.1325369  46.1664391  77.3147154  20.8666325  52.5261068
  77.8713989  21.4317799  51.9904423  77.4153948  19.9963307  52.1405315
  79.0635967 104.9061394  52.3712635  78.6243963 104.0573692  52.4253035
  79.9798536 104.6910191  52.1968126  39.8432207 104.0837193  29.2143965
  40.0135517 103.6885548  28.3593750  39.0006042 104.5257759  29.1103649
  91.6746616  99.0857410  60.2148628  90.9685326  99.6868610  59.9776316
  91.2302208  98.3449650  60.6271124 113.6069298  31.2793469  54.6075153
 114.0630054  31.9561124  55.1077271 114.1783714  30.5135393  54.6642733
 110.8424187   6.8799669  54.9893665 110.1340199   7.4597800  55.2690363
 111.2574387   7.3427188  54.2614555 108.1931591   8.3751547  58.5185194
 107.8888607   7.8975326  57.7468252 108.8195419   7.7831835  58.9349937
  15.2851248  44.0428638  49.5531178  14.6298707  43.3584833  49.4171286
  16.0993576  43.5662031  49.7145224  10.6822336  31.6590190  60.5765295
   9.8610991  31.1671257  60.5795860  10.7720780  31.9806981  61.4735699
  63.1688452  95.3329086  55.9475803  63.7870741  96.0619450  55.9977770
  63.3993244  94.7719955  56.6881847  71.3477230  28.0423427   5.4147893
  72.2738934  27.9488254   5.6377304  71.2576342  28.9560032   5.1439708
  52.1240807  85.6264877  26.6786766  52.7136326  85.1361752  27.2516108
  52.6696157  86.3229275  26.3131738  66.5791798  93.7665081  23.3571434
  67.3479319  93.3517838  22.9656601  66.7983913  94.6977997  23.3866501
  91.6225433  76.5418625  51.2892914  91.3116455  77.2907639  50.7806492
  90.9958935  75.8445072  51.0963058  76.5794563  14.2791426  49.6215248
  75.7951450  14.8240995  49.5574045  76.4151859  13.5514629  49.0217495
  91.1989784 100.0033379  56.0660267  90.4536915 100.5639458  56.2816811
  91.9641685 100.5661011  56.1844254  49.9500418 102.4692059  40.9782219
  49.9787188 103.3394718  40.5806732  50.2910423 102.5987911  41.8631840
  78.5558414   3.7728715  56.4351940  79.0811014   4.5679897  56.3450956
  79.1792250   3.1051171  56.7210770 108.2328129  10.7594144  63.2680798
 109.1370106  10.5327523  63.4854889 107.7242851  10.4682291  64.0249395
  96.3570023   0.0545984  15.6562436  95.7597828   0.7314164  15.9747958
  96.4639568  -0.5394228  16.3991642  33.9910102  88.0162716  50.3610945
  34.4255352  88.1424332  49.5175886  33.3293676  87.3456097  50.1917410
  52.5069523  95.8248520  73.9814377  52.3126411  95.7200718  73.0500412
  51.6560030  95.7507801  74.4134426  71.0612440  18.9143097   4.4286770
  70.1631546  19.0838659   4.1442189  71.2144232  19.5485353   5.1290524
  46.5740538 108.7419891  69.3298531  46.0364389 108.0056381  69.0383244
  47.4277020 108.3539677  69.5220947  16.0308790   0.8411859  25.1884937
  15.2186477   0.5963306  24.7451472  15.8705688   0.6399105  26.1104608
  21.4898682  99.6397495  50.4673815  20.7216334 100.0790405  50.1025963
  22.2059131  99.8826981  49.8804474   3.1358737   6.1730695  31.8165970
   3.6379820   6.8404692  31.3489461   2.4699566   6.6662633  32.2957063
  96.4827347  18.4625793  51.3863802  96.5054989  18.6316538  50.4445028
  97.1218967  19.0725172  51.7547226  55.5234098  75.5118752  71.5097046
  56.3689137  75.4581690  71.0642052  55.5709410  74.8451853  72.1949053
  79.9890947  12.4906015  50.7888365  80.1906776  13.2066417  50.1864386
  79.2953825  12.8375888  51.3497257  73.1154966 101.8789673  35.8076477
  72.9480457 100.9641361  35.5812025  73.2017851 102.3226357  34.9638796
  78.9973021  96.6280174  24.4134045  78.4201431  96.4518261  23.6703849
  79.1938066  95.7635117  24.7743130  81.8447018  51.2724495  24.4468141
  82.0098209  50.6856728  25.1848269  80.9774208  51.0203648  24.1297865
  96.7101574  31.6505384  16.1157668  96.3922882  31.8199182  17.0026159
  95.9233189  31.6721940  15.5711019  59.7713089 108.8848019  49.6760988
  59.4525051 108.9063454  48.7738037  59.1620398 108.3038044  50.1315832
  61.9062424  93.9654446  22.2007895  62.5561380  93.5816669  22.7895021
  62.3234844  94.7604752  21.8690395  93.2349396 107.9150391  37.6559520
  93.8743973 108.2395458  37.0219016  93.3277225 106.9628906  37.6237893
 103.7582016  32.1402740  72.8358746 103.2790184  31.3311625  72.6571083
 103.4058189  32.7710319  72.2080135  83.7479496 100.7092285  41.7816544
  84.1818333  99.9251938  41.4451075  83.8533592 100.6523323  42.7313280
  87.7326870   6.8445647  26.8421626  87.9751396   6.3928407  26.0338354
  88.5267448   6.8226117  27.3762274 110.0030231  92.2361660  56.6841459
 109.6459675  91.3862801  56.9418907 110.0766277  92.1859646  55.7311010
   4.9672171  13.5884821  80.5223560   4.6837211  12.7324152  80.8433056
   5.0757039  13.4667385  79.5791483  84.6476746  29.2806292  57.6477909
  83.7176418  29.4979620  57.7113676  84.7757244  28.5850310  58.2927561
 112.8369236   5.6161189  57.9247427 112.8222561   5.3733546  56.9989538
 113.7672329   5.6704772  58.1433868  62.6148605 106.7063522  64.4202518
  63.1532335 107.2107315  65.0301600  63.1758451 105.9791851  64.1505194
 114.5965767  18.1887352  60.7498837 115.0549793  17.4721265  61.1887169
 113.8220692  18.3442378  61.2904263  89.2710781  36.9412398  30.8075905
  88.6441135  37.2866511  30.1721048  88.7843227  36.9092035  31.6311646
   0.2458472   0.4529767  46.8013668  -0.4302097   0.3331172  47.4683094
   0.3256179   1.4023739  46.7090988  16.9571340   8.3370423  55.0335217
  16.9819200   8.6865509  54.1427565  16.8680274   9.1096288  55.5915546
  87.9178429  39.2651343  32.6526499  87.9594994  39.6263981  31.7672205
  87.2669125  38.5656619  32.5955606  84.4737053  93.1432819  29.9739337
  84.7330475  93.9735222  29.5743251  83.5947990  93.3064175  30.3161955
 114.7554779  10.3829265   7.5903207 115.4831314   9.8278463   7.8707486
 115.1576900  11.2329519   7.4116719 116.4270306   7.1770358  56.6800117
 115.7097340   7.5245732  56.1499643 116.3305950   7.6111215  57.5276566
 107.0984840  22.5364828  17.8462160 106.3136292  22.0299554  18.0552006
 107.3894978  22.8857231  18.6885774  71.2635803   7.0567900  57.9744339
  71.6475773   7.2976243  57.1313572  71.8058681   6.3323462  58.2864189
  73.5549355  89.6918011  57.8323841  73.3915329  90.3827190  58.4743738
  73.4602213  90.1255417  56.9843674  99.3441582  23.7377334  36.3381076
  98.7515450  24.4378233  36.0643911 100.2196026  24.1103888  36.2334442
  21.8969584  20.1750612  32.0355368  21.8899655  19.2653584  31.7378402
  20.9742069  20.4290748  32.0511127   9.1162592  35.9505200  64.4925976
   8.3486634  36.4130855  64.8288441   8.8068622  35.5213094  63.6949253
  23.9691544   2.5474870  68.4322929  24.0569878   1.9773249  69.1961193
  24.8104644   3.0002061  68.3733368  77.9856157  81.3753796  52.7336264
  77.7469158  82.3023319  52.7367115  77.7962494  81.0822487  51.8423080
 114.5786667  31.1629510   3.0737081 114.7793770  31.0189676   3.9984864
 114.9121380  30.3820658   2.6318425  62.4805403  85.7852268  28.2021737
  61.9184828  85.2031898  28.7136006  63.3141518  85.3189850  28.1394076
 102.1716022 104.6299553  54.4230127 102.5551987 104.4394588  53.5669804
 102.4014091 103.8731956  54.9622107 101.6492558   1.5154733  35.0905299
 101.9287491   1.9792138  35.8798718 102.3007488   1.7521150  34.4303799
   3.3041418  10.7559884  60.6085539   4.2183131  11.0396218  60.6171942
   2.8746614  11.3121355  61.2585402  96.7693615  23.2691836   7.5199711
  96.2001896  23.9070439   7.9505622  97.6113224  23.3598185   7.9662073
  84.0200615  97.0084476  58.5714531  84.7553539  97.4773788  58.1768894
  83.6560631  96.4878273  57.8554249   2.1519655   7.5677687  29.1260457
   2.5234032   6.9406080  28.5056138   1.2330262   7.3115605  29.2044020
  93.4033775  41.5773678  32.4825358  92.9723358  41.4879131  31.6325760
  92.8074932  42.1217203  32.9971647  44.0560150  63.4583235  89.7320557
  43.7741613  62.7589607  90.3217030  44.4080734  63.0006123  88.9686584
  90.8187866  59.6078873  41.0287428  90.4460430  58.7574244  41.2611341
  90.2298737  60.2457428  41.4319324  85.3768826  19.5001554  45.5259323
  84.7101402  19.3471229  46.1954641  85.0560856  19.0297103  44.7565222
  86.9617176  12.7954316  51.5235710  87.6461124  12.7122378  50.8595562
  87.3682022  12.4734569  52.3281431   0.5912972  36.0104156  51.8339825
   0.0174009  35.2549052  51.7071724   1.2516719  35.7076263  52.4572420
   5.4389721   1.1192170  30.7202983   4.5903826   1.1990599  30.2846909
   5.4897851   1.8878514  31.2884974 108.9532185  95.7010174  15.9651995
 109.0067959  94.9949741  16.6093016 109.7883129  95.6637001  15.4988849
  92.3136902  15.4993546  36.9427109  91.4030647  15.4402792  37.2316933
  92.5686169  16.4012790  37.1370697 113.2555962  16.4906240  25.5975819
 113.0662823  15.7976830  24.9649477 112.8294563  17.2678256  25.2362013
 115.0760460  17.3938584  65.7421541 115.1749134  17.3343360  64.7919321
 115.5399799  18.1961942  65.9814358  26.0472107  27.6935196  52.2072601
  25.8938384  26.7654419  52.0301104  25.3336668  28.1445956  51.7560196
 114.5331097  26.5054417  60.8592081 113.7789059  26.7528033  60.3242159
 115.1937771  26.2241101  60.2262735   7.1852595  48.9472437  55.3677559
   7.1864921  49.8813009  55.1585340   6.8720824  48.5232449  54.5687723
  91.6371155  36.5172815  71.4224911  92.4523449  36.2052822  71.0297012
  91.7928600  37.4465156  71.5913105  82.3415184  13.2353950  72.5304413
  81.5043163  13.5591233  72.1979952  82.4942303  13.7415481  73.3283901
 106.7009926  31.7469001  16.8346894 106.5962982  32.5686646  16.3551319
 107.1611691  31.1705017  16.2245846 102.2863865  25.5459285  53.8992262
 103.1298828  25.1046968  53.7989092 102.4767685  26.4683127  53.7283707
 112.6942825   3.4305629  14.9021292 113.5979366   3.7437630  14.8628509
 112.2756195   3.8095880  14.1292822 114.7766781   1.7013516  79.5274448
 114.3129158   0.9769432  79.9474335 115.6597996   1.6655321  79.8949432
   1.9336466  38.8102317  45.0258636   0.9968840  38.6850595  45.1776505
   1.9785920  39.3411493  44.2306662  98.2216358  18.0050731  55.3349018
  98.8075352  18.7434578  55.5014467  97.3576641  18.4036839  55.2305269
  11.3586295  68.0416775  71.4070797  10.6396270  67.4465895  71.1946249
  11.7806888  67.6449299  72.1691084  55.3278923 101.2969685  81.6302013
  54.5620775 101.8641853  81.5406227  55.8122444 101.4177418  80.8134651
 106.5661430  44.1918087  77.3053503 106.7818832  43.3261824  76.9583845
 106.2476254  44.0219355  78.1918716  92.6121616  32.6562548  45.2834177
  91.8597031  32.0986629  45.0855732  92.2289085  33.4598994  45.6348515
   3.6632499   8.4404272  16.6121745   3.8710845   7.5280041  16.8134713
   2.7927721   8.4059107  16.2155521  52.3546314 105.7886124  62.4835062
  51.8553257 106.3341331  61.8757772  53.1629801 105.5843925  62.0132971
  80.0867748  16.6213608  93.4700394  79.6079159  15.8561659  93.7884808
  80.4101372  16.3598359  92.6079082  80.3321171  93.3454514  71.4105701
  81.1591244  93.7351799  71.1270094  80.0211430  93.9238071  72.1070099
  14.6671152  33.7967944  66.3915205  14.4740403  34.7025418  66.6335535
  13.8078713  33.3939028  66.2665844  19.5980632   5.3986573   9.6458763
  19.0662527   4.6882626   9.2870611  19.2759645   5.5107629  10.5402565
  90.8584309 104.9435806  19.3391442  91.0552979 105.8493042  19.5781696
  89.9401093 104.8259258  19.5821738  59.6122169 107.2682571  75.1942158
  58.7931728 106.8470573  75.4549551  59.6423626 107.1651459  74.2430592
  89.4306850  29.6719527  66.4545107  88.5918427  29.2124295  66.4922714
  90.0444412  29.0223098  66.1117268 113.9047050  29.6599889  33.6535978
 114.7129059  29.5021892  33.1655860 113.6140442  28.7888980  33.9236832
   4.5160246  14.7961593  84.6667385   4.5595893  15.3950334  85.4121780
   4.6626550  15.3537548  83.9026546  68.1439114 107.7993011  43.2360697
  67.5896549 107.5878620  42.4848509  68.9964199 107.4223995  43.0183458
  85.3382683  14.5631921  49.0215302  86.1884880  14.1265774  48.9693785
  85.3148365  14.9374712  49.9022102  -0.1013603   4.6860883  88.1220245
   0.6189786   4.0783000  87.9548740  -0.3331508   5.0262415  87.2578430
  86.7364216   3.5086536  87.2608471  85.9658527   4.0641832  87.3785210
  87.1919823   3.8871405  86.5088844  23.0628419  23.8112926  42.3961639
  22.9661322  23.6106563  41.4652395  22.7011991  23.0469441  42.8447390
  75.1178980   7.7646792  38.9706993  74.4822216   8.1735498  39.5580435
  75.9697390   8.0013657  39.3375421  87.7337456  99.1049290   7.6400411
  88.3380222  99.6844864   7.1761626  87.7997780  98.2698250   7.1769273
  13.8679683  15.1462877  36.8440104  14.6413922  15.6869853  36.6837215
  14.2062938  14.2520738  36.8903708  38.7416482  43.6293411  48.8099909
  38.4050155  44.5072603  48.6306477  39.6312118  43.7750721  49.1319704
  85.8307266  31.8376780  50.8031273  86.3944626  31.4284396  50.1466560
  85.3849506  31.1041832  51.2268066  15.7122290   5.1108253  42.7771378
  16.4006674   5.0100338  42.1197748  15.1604462   4.3364972  42.6667547
   3.2352021  15.9543455  43.8601208   2.6522857  16.4471292  44.4377041
   3.5921100  15.2608728  44.4150448  89.1497517  98.3167839   3.8777503
  89.6859360  98.4665394   3.0990893  89.7720718  98.0277157   4.5451194
 115.2443981  20.0130200  23.3020210 115.7884026  19.9522090  22.5167871
 114.6772003  20.7674122  23.1426120  15.8272660  15.4666686  46.7720366
  15.9419560  14.5368755  46.5756655  15.2902448  15.4796743  47.5642967
 107.3696041  51.9343996  41.9047260 106.4149666  51.8788481  41.8621969
 107.6276684  51.2000990  42.4618912  42.9316711  12.4175286  29.1578054
  42.3532963  12.4281585  28.3951759  42.4701309  11.8794107  29.8009539
 111.5315437  39.3408370  23.9981365 111.5884209  39.5659804  23.0695319
 112.4243546  39.4489264  24.3259192 114.1429234  33.3426714  28.0935669
 114.9425983  33.6680746  28.5069323 113.4375095  33.6450744  28.6655545
 100.1386738  78.5436344  21.9179273 100.4509354  77.7729750  21.4437938
 100.2794456  78.3306074  22.8404427  72.4789906  98.0779266  39.0642357
  72.4416494  97.1530533  38.8203907  73.1541777  98.1200027  39.7414255
  18.0521071  27.2971535  56.3868141  18.9013779  27.7182651  56.5196133
  17.5670588  27.4769688  57.1921825   0.5207228  19.2995548  71.6274357
   1.2412212  19.2041230  71.0045338   0.7948799  20.0133586  72.2032452
  13.0901718  31.1322808  17.6781142  13.4856021  31.2145066  16.8102980
  13.0449784  30.1886606  17.8322935 113.0612564   2.5034684  33.7675071
 112.3885345   2.1613497  34.3562603 113.4969616   3.1887871  34.2741919
 114.8079681  19.7632682  56.3629246 115.1143646  18.8823617  56.5782404
 113.9493465  19.6269870  55.9624004  20.6236267  43.4280920  44.4120216
  20.1592588  42.9779530  43.7063503  21.2447572  42.7789545  44.7422457
 102.5075436 103.0678749  46.0398483 101.6041374 103.1366158  45.7310295
 102.7226353 102.1398449  45.9464407  82.3618698  96.8275452  48.3851528
  81.4745998  97.1863079  48.3684969  82.7756214  97.2468185  49.1396379
  88.9825344 108.7179661  45.1061583  88.9673710 108.0591393  44.4119310
  88.6111355 108.2722569  45.8674955   6.1923230  54.0534973  32.5917745
   5.5560476  53.6628342  33.1907487   6.9936454  54.1294670  33.1097937
 107.0350266 103.0997658  26.1760640 106.2100315 103.4955883  25.8951283
 107.4665451 103.7835503  26.6883707   8.5079110  75.5054426  64.7338247
   8.5558528  76.4023495  65.0647211   9.4084519  75.1844120  64.7806740
  60.9737968  25.1739192  48.8906050  61.8347883  25.5711317  49.0215683
  60.3686047  25.7578015  49.3478298   3.8751686  14.5939624  29.2871785
   3.9341134  13.7241566  29.6823955   4.4214964  15.1479125  29.8447585
  39.7618733  -0.0841152  38.4075594  40.2100641  -0.0171005  39.2506886
  40.1376677   0.6205453  37.8798699   9.6809083  28.3300686  48.9010954
  10.0184143  28.5150218  48.0246735   8.7791198  28.6505103  48.8830280
 104.1680336  96.0894394  80.7133865 104.2208099  96.7195129  79.9947453
 104.1836166  96.6272354  81.5050697 112.7156258  31.6177940  46.2062073
 111.8456173  31.4823532  46.5816879 113.3136749  31.5246749  46.9477558
  24.2213368   8.9394075  16.1740029  24.7179985   9.2013156  16.9492221
  24.8468113   9.0118819  15.4530573  26.8704796  10.9445810  35.5066895
  26.0903931  10.4186440  35.6830025  27.1405482  10.6846535  34.6259332
  23.3430648  21.8333554  56.6753578  23.0709553  22.2991586  57.4660635
  24.0941143  22.3303533  56.3510942  91.3230419  91.2165451  52.7238703
  91.9789791  91.0491562  53.4005928  91.2135887  92.1674728  52.7263927
  21.3881183   1.0887090  18.1657231  20.4452896   1.2161086  18.2709563
  21.7702270   1.4602053  18.9608431  41.1195421   4.6658316  44.1108990
  41.3694191   4.4633424  43.2093477  41.1823273   3.8286155  44.5706367
  69.6332407  14.5849264  49.4961500  69.0925026  15.3399324  49.7280979
  70.2690792  14.9293303  48.8689899 113.3111477  37.5304079  29.0877151
 114.2604542  37.5293946  29.2104387 113.0525017  36.6173482  29.2128086
 114.2387962  38.8961339  24.0705109 114.8549652  38.5090756  24.6924090
 114.7776413  39.1338682  23.3159518  40.4757881   1.4025718  51.5549898
  40.0056267   1.5454413  52.3764324  40.4519129   2.2520512  51.1144829
  40.6541681  55.0099182  77.7107382  40.8535099  54.6758413  78.5853195
  41.5065289  55.0788736  77.2806692  16.2959576  22.9686284   8.8972718
  16.9214952  22.5009298   8.3439261  16.5898311  22.7940512   9.7913599
 108.3487892  23.4673119  41.3997936 108.7520027  22.6563907  41.7097235
 108.9430618  23.7858582  40.7203865  94.3998051  23.8265967  32.6841879
  95.0225163  23.5519624  33.3572745  93.9811993  24.6062875  33.0489850
  17.2962356  44.1981077  21.1893868  17.8596461  43.4250641  21.1547351
  16.8536520  44.1341782  22.0357108  98.5855675  42.9811811  29.8194599
  99.3291950  43.2912588  30.3362679  97.8379250  43.0441189  30.4138589
  41.8312168  97.0703602   4.2775095  41.8327904  96.6318989   3.4266353
  42.5045300  97.7462673   4.1998994  93.4364510  18.5805655  72.0208168
  93.1201267  19.2358267  71.3988829  93.9684105  19.0774512  72.6423883
  58.8394260 102.9668331  93.8311958  58.3548927 102.2379112  93.4437370
  58.3078241 103.2366562  94.5800877  87.9030514  95.6801605  50.8970451
  88.0265331  96.4596272  50.3553629  86.9683075  95.6773472  51.1031389
  99.8360634   6.5626675  22.3620319  99.5589256   6.0008937  21.6382647
 100.4423332   7.1864051  21.9625139  40.4089499  22.6368070  11.7680645
  40.9351540  23.3111119  11.3383460  40.9359980  22.3641706  12.5191450
  10.6006098  10.0265527  11.8450308  10.2066445   9.5998460  12.6059139
  11.3781738  10.4640985  12.1917009   6.3672143  18.0537176  33.0986094
   6.6366768  18.8487124  33.5586143   5.6483227  17.7042890  33.6252284
   1.1794324  14.4714046  30.6702399   2.0369044  14.3962049  30.2515292
   1.3290447  14.1938519  31.5740156  20.8509994  12.5670874  10.6417990
  20.4397917  13.4265685  10.7336223  21.6565037  12.7378738  10.1537120
  95.8453274  96.9784737  55.2955627  96.0313797  97.4460125  54.4813061
  95.2029610  97.5272751  55.7454681 115.6746197  24.3166924  30.9041333
 116.5802097  24.0489316  31.0604620 115.2908325  23.5891247  30.4146647
  45.5333519  31.0576606  76.2200975  45.0812578  30.9239841  77.0531511
  46.1562109  30.3328061  76.1665964  -0.1982269  54.5376205  24.8084211
  -0.3730914  53.5971308  24.8421121   0.6728687  54.6054220  24.4174886
 101.5343761  51.5685749  58.9803791 101.3865757  50.6636858  58.7055016
 102.4663544  51.7180300  58.8212824  22.4577284  19.2101252  14.4470811
  22.2664213  18.2722521  14.4522655  22.7664185  19.3866944  13.5583925
  82.8043175  99.5733929  11.0244370  83.4693050  99.8715878  10.4038656
  83.2394123  98.8871288  11.5303576 110.1197052 104.4388866  30.0654936
 110.3059006 104.8580265  30.9056616 109.2223072 104.1172695  30.1519489
   5.0151843  24.5709825  12.9047203   5.3638476  23.7483907  13.2482421
   5.5816710  24.7795844  12.1618807   9.0905124  34.4870996  25.2103305
   8.3221012  34.3653202  24.6527076   9.1991919  35.4365754  25.2643514
  29.9391413  17.0643234  50.5272341  29.2406654  16.4331961  50.3539133
  30.1531315  17.4268365  49.6675682  32.2327328   1.1507878  54.4997454
  31.2905216   1.2156272  54.6555233  32.3603153   0.2613085  54.1699266
   2.4112317   4.1134110  51.5449238   1.5206602   4.0721095  51.1964846
   2.9367006   3.6152095  50.9188938   3.9524725  35.3186226  32.5892806
   4.5230016  36.0426569  32.8471613   4.5213178  34.7307873  32.0921946
   0.9101583   2.4929059  22.3506999   0.0714768   2.0449848  22.2401929
   1.2332430   2.6198742  21.4586639  33.5105395  12.0595384  24.7056842
  34.1947794  11.4745986  25.0310922  32.7287984  11.8116295  25.1993012
  26.3807654  40.5845547  44.1214752  27.2238898  40.9839821  44.3355608
  26.5311885  40.1402712  43.2870817  31.8008757  34.9046898  38.9392328
  31.3833785  34.2264962  39.4702530  32.1443558  35.5305409  39.5768547
  43.5438681   3.3257648  14.1781545  42.6259899   3.5943955  14.1385102
  44.0146828   4.0110502  13.7038684  39.4482541  36.4241767  89.6952534
  40.1524687  37.0325160  89.9193954  39.8865414  35.5802870  89.5857716
  50.3265715 105.9699631  90.7126236  50.5921316 105.0994301  91.0090542
  49.5854139 105.8084297  90.1288223  72.8485823 101.8877220  15.8091843
  73.2507181 101.9457245  14.9424922  72.0361710 102.3877144  15.7302201
   0.5521078  12.5185335  16.0371351   1.4830200  12.7137816  16.1444318
   0.3130612  12.9382110  15.2107215 109.3614578  13.9574289  53.2670975
 109.5589638  13.7276459  54.1750717 109.5137882  13.1494546  52.7769899
 103.7940311   3.5549062  15.8325756 103.6016083   3.5818058  16.7698491
 102.9344082   3.5535437  15.4115295  26.0044527  18.6092138  47.2092342
  25.1152229  18.5933447  47.5631332  26.2254715  19.5391631  47.1584654
 101.0807800  10.0713646  32.8027701 101.5837002   9.2902929  33.0334806
 101.2739754  10.6958270  33.5020232 116.2660789  32.7836013  21.4589858
 116.5442848  31.9644046  21.8685627 115.3628349  32.6208210  21.1871862
 102.8253555  44.3134499  46.7959261 102.2814751  43.5792446  47.0811749
 103.5929966  44.2787933  47.3666763 104.5127010  19.6865535  31.7516828
 104.8660755  19.8448992  32.6270580 103.6627007  20.1266932  31.7532992
 101.5229511 106.3901520  33.7473011 101.3755894 106.9423294  34.5151615
 101.6599274 105.5131912  34.1056561 103.0652618  21.6349339  58.6909771
 102.4776459  22.1057582  58.0999899 102.7549744  20.7297587  58.6662912
 114.2236710  87.3355007  12.1933973 114.9580765  86.7877007  11.9162929
 113.5130119  87.1037197  11.5955019  84.6701431  96.0394573   4.4176251
  83.9496613  96.4345837   4.9085546  85.3078270  96.7462635   4.3176013
   8.7011129  55.8431959  35.7131076   9.5239109  55.4913902  35.3733015
   8.9682364  56.4724827  36.3830876   1.2803313   2.5871330  33.5307360
   0.6488822   3.2899642  33.3773351   0.8337148   1.7946580  33.2328296
  24.8176003   7.3965925  38.2656860  24.4218135   7.4802876  39.1331983
  24.2888141   6.7319238  37.8242874  55.4211855  20.0672245  44.2085934
  55.0887346  19.1712534  44.1543436  55.3510571  20.2929616  45.1361513
 114.2976284 102.5551414  21.0742927 114.1605377 101.9719028  20.3277874
 114.9954510 103.1461525  20.7915020  67.2859147 109.3020970  12.5656986
  67.5392964 108.3828216  12.6491141  67.7970555 109.7533439  13.2375157
   4.1226614  31.3961744  48.9097786   4.6141079  31.0843182  48.1498718
   4.7785458  31.4777851  49.6021557  83.5678577 101.8183613   3.9823624
  83.6441135 101.0217953   4.5076194  83.0603027 101.5520763   3.2157362
  85.8663940 109.2544365  49.1781664  84.9243546 109.3211174  49.0221071
  86.2594414 109.8265934  48.5190916 111.3997650   0.3003476  17.8222167
 111.7650032   0.0491868  18.6705959 111.0611534   1.1850419  17.9596710
  41.1049080  48.2072258  62.8457594  40.4533768  47.5902319  62.5125027
  41.9239998  47.9386330  62.4296236  26.8277407   1.8992993  66.2932491
  26.0098267   1.5857521  65.9073210  27.4246621   1.9878928  65.5502367
 114.5275116  35.0039959  41.5734720 115.1222992  34.2564988  41.6343260
 114.3243790  35.0731301  40.6406355  25.0448942  23.9529419  27.8770971
  24.5231271  23.7960315  27.0900941  25.6813097  23.2380557  27.8890061
  51.7767715  28.1196117   8.2855886  52.2272444  27.5628281   8.9206463
  51.7272139  27.5863767   7.4922192  45.3826523  17.9109347  44.8567867
  44.5467186  18.2999277  45.1139307  45.3451538  17.0166767  45.1960897
 105.8638954  46.9225311  25.6820416 105.0865746  47.4526358  25.5059767
 105.5786419  46.2911367  26.3425016  16.2031019  30.8689356  44.8676682
  16.4002585  31.3329506  44.0540028  17.0502949  30.5380559  45.1660204
   9.8221928  55.5365086  43.9164495  10.4930460  55.1605225  43.3465147
   9.7350699  54.9064779  44.6317863  10.1887035  45.8983040  60.9888268
  10.4753590  46.7358017  60.6246090  10.4817295  45.2470684  60.3514338
  93.4158611  15.8444285  66.2575960  93.5567570  15.0219500  65.7886505
  94.2961407  16.1913085  66.4025640  25.2247262  22.7437758  34.7547555
  25.4626846  23.4035039  34.1033220  24.3486238  22.4573612  34.4966030
  15.4191279  24.8904181  43.3395720  14.6836221  25.3623700  43.7301207
  15.0620055  24.0299535  43.1198072  34.7485662  56.6413736  21.6757822
  34.5264006  57.2995186  22.3343587  35.6969428  56.5366507  21.7522478
  38.7831044  39.1068006  64.0191221  38.7890506  39.8802781  63.4552670
  37.9980493  39.2086935  64.5572090  24.2694402  26.4351559   1.7083399
  24.3561578  26.6770506   0.7862776  24.7718763  27.1003699   2.1787445
 111.6067886  63.6677170  22.3592925 111.4472389  63.1034374  23.1158423
 110.7331276  63.9168787  22.0578480  24.7421384  20.1393485  21.3334990
  25.1887083  19.6113718  20.6716490  24.8997450  19.6758127  22.1560097
  19.0999508  19.1173792  45.1118279  18.7123573  19.9557686  45.3630352
  18.4575498  18.7238753  44.5213127  22.9331183  19.9289596  28.5835290
  22.0152807  19.9267077  28.8551903  23.0713964  19.0630949  28.1996155
  80.6871605 102.3822212  26.0677218  79.9926424 102.0050812  25.5276775
  80.7329845 103.2981968  25.7936454  41.2657452  45.9077072   9.4665742
  40.7582426  45.1155996   9.2898238  41.1046696  46.0939360  10.3915632
 112.3216534  34.7774649  16.1416292 112.9077816  34.0867615  15.8324146
 112.9060936  35.4422402  16.5059566  60.3175354  26.7290640  62.8270006
  60.6322765  27.4635601  62.3000479  59.7782373  26.2161756  62.2250605
  83.0833530 100.6437111  26.3807154  82.1793461 100.9317684  26.2541413
  83.4019661 100.4594517  25.4971027 109.4375515  24.5043731  34.0602517
 108.6885738  24.2807388  33.5077572 110.0469780  23.7754369  33.9441133
  23.4598255  13.3855188  52.9848576  23.1559896  13.3862555  53.8925552
  24.4026399  13.5384226  53.0477476  30.9063673  50.6906652  34.4152069
  30.7439041  51.5540981  34.0353131  30.2826571  50.6259823  35.1384163
  21.8841624  10.3090215  26.9928241  21.7860508   9.4075400  26.6863346
  22.6227880  10.2762592  27.6007652  26.9602990  24.9198508  22.2043633
  27.4865699  25.4956102  21.6495919  26.0793090  24.9694777  21.8333888
  23.9312339  47.4072647  44.7173071  23.9606500  47.7803755  45.5983019
  23.1851268  46.8079185  44.7358179  42.9145288   2.2776821  21.6935945
  43.5288191   2.4872106  22.3971391  43.0485249   2.9687077  21.0449338
  57.8128918  98.6315656  94.9467628  58.0745132  98.2014489  95.7608809
  57.7276404  97.9173446  94.3152159  26.9196606  31.5892553  32.6212692
  26.0642552  32.0010304  32.7435541  26.8815470  30.7950497  33.1542039
  48.8818121  12.7427697   1.1708236  49.6199989  12.1334612   1.1780161
  49.1250229  13.4211266   1.8008330  22.0558333  37.7572584  42.3618460
  22.4298167  38.5931945  42.0833158  22.0245337  37.2308397  41.5630102
  13.9785576  44.2935801  73.2539082  14.0919459  45.1567268  72.8559685
  14.8679352  44.0066147  73.4610081  33.8235426  39.9212623  85.7672787
  33.3442950  40.0152636  86.5905190  33.6439157  39.0239143  85.4866886
  65.7602330  95.6823612  94.6159977  64.8156925  95.8082271  94.7067364
  66.1386438  96.5285707  94.8546746  37.4470878  27.2340894  22.8212643
  37.5391173  27.0574808  21.8850112  37.7356410  28.1410241  22.9234195
   9.3527454   4.2705753  42.1411657   9.7974765   3.4315747  42.2616816
   8.5555673   4.0519407  41.6585302   5.8908820  40.7563639  48.5572624
   6.7818320  41.0856152  48.6757231   5.9230423  40.2692699  47.7338934
   3.2337004  25.2629948  19.9829364   3.3749032  24.5439100  20.5987382
   3.6708078  26.0130119  20.3862238  66.1441612  82.2283554  90.7368088
  65.5845118  81.6924381  91.2987900  65.6498194  83.0379295  90.6085968
  26.1352396  48.8478756  21.7168736  25.7564473  49.3634415  21.0048771
  27.0488429  48.7210512  21.4609838   0.5947743  37.4826574   8.5066044
   0.1598607  38.3045268   8.2794094  -0.1040973  36.9310474   8.8580829
  25.3147769  52.8699875  54.4117117  25.7133245  53.2451487  55.1969814
  24.8852301  52.0717335  54.7191286  86.3261700   2.0458974  49.8176908
  86.0015106   2.9111439  50.0670385  85.6093597   1.6562152  49.3171358
  32.7478313  34.3174362  36.4471745  32.1738195  34.4867682  37.1942163
  33.4870386  33.8351583  36.8175960  11.0163927  12.2092342  43.3408213
  10.1920414  12.5157201  43.7186337  11.4735556  11.7912567  44.0705681
  43.0085659  31.2974572  34.9880004  43.1336737  30.6904507  34.2585301
  43.7646675  31.8828487  34.9448419  80.8153248 104.2247868  81.3088608
  80.1431847 103.5458660  81.3682556  81.2722969 104.1835594  82.1489239
  37.1375012   5.9391946  30.0063562  36.5499759   6.3248122  30.6562376
  36.6701770   5.1661205  29.6898150 113.2222652  23.1850982  57.8304958
 114.0227032  23.6677527  57.6241493 113.2908535  22.3781800  57.3201895
  24.4041085   5.3064573  19.9370706  24.2245102   5.8707178  19.1850150
  25.3473854   5.1485145  19.8981488  26.3885379  17.2342193  41.3547039
  25.5793476  17.3237014  41.8581247  26.2891769  17.8514576  40.6298780
  10.3404176  28.5243702  34.1114926  10.0565624  28.6177659  33.2021332
  11.2889266  28.6492348  34.0803528  12.9169607  48.9965200  14.4127905
  13.5554945  49.7078991  14.3633294  13.4458995  48.2078075  14.5327282
 106.2486744  16.5495062  19.2476249 106.7458534  17.1255720  19.8283100
 106.9085979  16.1605144  18.6736834 112.9310036  31.9786239  41.1504030
 112.9504108  32.4316001  41.9934130 112.0001411  31.9023180  40.9408760
  36.3224339  26.6169143  10.5187225  36.5524578  26.0339141   9.7952366
  37.0413923  27.2477460  10.5558538  22.7327514  19.8332632  46.3434649
  22.8431177  19.8073792  45.3929996  21.8940878  19.3989277  46.4991188
 115.3909588  16.7686164  36.2990379 114.6788120  16.2007904  36.0046649
 115.9970856  16.1793876  36.7480922  18.3713806  48.6086988   4.9168566
  18.9777589  47.9503918   4.5774922  17.5276792  48.1584883   4.9582177
  21.1793137  36.7002821  36.2958860  22.0683503  36.4949536  36.0066032
  21.0624790  37.6239824  36.0737133  12.2117293  37.1566153  10.0827134
  12.0074463  37.5945473  10.9089792  11.6057479  36.4164853  10.0477064
  22.3812366  61.2607622  34.6558428  22.2763801  61.7652607  33.8491726
  21.7571235  60.5400562  34.5704389  94.9390602  99.9404526  21.3946557
  95.8705235 100.0026608  21.6061926  94.6025467  99.2704487  21.9897032
  80.8108902  82.1693039  39.1876268  80.7508659  81.4380264  38.5729241
  79.9010134  82.4015427  39.3731642  37.9828811  30.7416844  26.1780882
  38.3177710  31.0081267  27.0342946  37.2118521  30.2105498  26.3771844
  90.0985718  58.2497597  50.8777523  89.9319363  59.0096283  51.4354801
  91.0518360  58.2156801  50.7979441  84.6718121  90.8918667  44.8821115
  85.5035591  90.4487896  44.7144604  84.7991657  91.3299751  45.7235813
  29.1304922  29.3649364  22.1376228  29.3732643  30.2904224  22.1098733
  28.4440374  29.3172359  22.8030086  94.2010593  18.3783364  52.9567814
  94.9535561  18.2515752  52.3789215  94.5752907  18.7339687  53.7628269
   6.0402954  16.4916730  20.1644731   6.1225176  16.5302837  19.2115927
   5.1911879  16.0762215  20.3149676  48.3886576  26.3816547  10.1664257
  48.5385990  25.4891396  10.4781377  47.6180363  26.6781712  10.6506276
  53.8217783  55.1529980  93.3999729  54.0367937  54.4275904  92.8136444
  53.8988352  55.9343863  92.8525066  25.1303816  92.5849342  30.7557082
  25.5845666  93.2560539  30.2462554  24.4732690  92.2324467  30.1555514
  17.9447258  20.7715034  20.0643039  18.8308072  20.9576440  20.3748560
  17.6219702  21.6132164  19.7424603 113.8471127  22.4709249  22.9654217
 113.2994270  22.9889631  22.3755884 113.2813263  22.2828007  23.7142396
  66.2586641  40.2691841  91.8058491  66.8408775  39.5525813  91.5533733
  65.7376099  40.4420376  91.0217190 112.1112633 104.8121452  28.4450626
 111.3298988 104.7190380  28.9900732 112.7760696 104.2842770  28.8873553
  33.4781694  35.4586124   1.8902618  33.2750225  35.6016111   2.8146619
  32.9649282  34.6875906   1.6487323 111.8441200  46.7838812  51.2670088
 110.9062481  46.7439365  51.0798645 112.1694565  45.9107065  51.0480118
  35.5156159  29.8581123  26.9787836  35.5309224  29.4326782  27.8361058
  35.4143858  29.1383123  26.3559866 112.5492573  45.1350212  87.6294994
 112.6781178  44.1997147  87.7870750 111.9253540  45.4075384  88.3023357
  19.9606979   1.1864088  61.7934942  19.5848572   1.8910952  61.2658691
  19.4844484   1.2279767  62.6227665  32.2021294  43.3158541  40.7211733
  31.8220496  43.0363321  41.5540218  32.2879171  42.5085449  40.2141047
  87.6386833  30.3093195  83.8258266  88.5545158  30.3523731  84.1008472
  87.3945141  29.3920088  83.9489174  49.4631195  19.0914798  47.4296761
  48.8078642  19.0712070  46.7322063  50.1002836  19.7447789  47.1407890
  37.1817732  44.0339756  61.3814831  37.6128459  43.8685465  60.5430079
  36.2831664  44.2659807  61.1471462  69.3569183  92.4116516  83.8040733
  69.4582176  93.1736088  84.3745136  69.3973160  92.7693939  82.9171562
  22.2532034  43.5752821  29.6601272  22.9508066  44.1768408  29.3999171
  22.4206328  43.4006071  30.5862427  92.3490524   9.5691168  61.7765427
  92.9543400   8.9991903  61.3021612  91.5030193   9.4259602  61.3523149
  20.7182884  39.4277382  36.1027145  20.2640271  39.7533631  35.3256369
  20.5614662  40.0962830  36.7695642  22.8872752  18.4112191  39.2976022
  22.7661705  17.7365816  38.6294484  23.8320541  18.5639012  39.3153191
  47.9279137  64.2386532  88.1827164  46.9950819  64.4292402  88.0840778
  48.3064318  65.0559950  88.5066032  76.1000109  34.8837280  34.5607424
  76.0727167  34.1433167  35.1667762  75.8051157  34.5206714  33.7256026
 109.3937969 108.6339474  15.5879116 108.7975597 109.3238640  15.8790481
 109.7196579 108.2414722  16.3978529  68.8899851  45.2555370  27.7459598
  68.6016226  46.1499071  27.9281187  69.7693586  45.2063799  28.1208086
  95.7402627   8.3749498  95.2703608  96.5700321   8.6762299  94.9003023
  95.4065185   7.7466310  94.6300002  19.3972683  39.8213339  18.8745701
  19.5552814  40.5717373  18.3017206  19.9522257  39.1273284  18.5187459
   4.6713707   8.8970882  37.3598504   4.9986243   9.6558374  36.8766975
   4.7929519   8.1607914  36.7604208  23.3871770   9.8045099  57.9023361
  23.7207937   9.4266599  58.7160683  23.2494307   9.0516466  57.3274851
   2.9494938  44.6285963  36.0137916   3.3368805  44.3714380  35.1771140
   2.4744286  45.4365587  35.8195138  16.9935703  31.4691710  25.9474850
  17.4076092  32.0031261  25.2694774  17.4912548  30.6515288  25.9456229
  15.4808605  59.1457081  67.7384186  16.2945437  58.7603712  67.4133539
  15.2013755  58.5582066  68.4405327  67.8068972  33.8362837  41.2573004
  68.2533932  34.6828842  41.2456751  68.4604073  33.2163715  40.9334707
  15.8376312  30.1550341  76.3578987  16.6738629  29.6892619  76.3557339
  15.4658794  29.9838400  75.4926062  22.7983594  10.9741247  23.0182004
  23.3163643  10.1692080  23.0148363  21.9155002  10.6917822  22.7792954
 115.1514912  56.4888859  31.5876007 114.6240139  57.2137451  31.2520766
 115.1182365  55.8281803  30.8957958 108.6634922  68.5657740  20.3843856
 109.6202850  68.5636950  20.3565860 108.3972645  68.3929157  19.4813490
  99.3217278 103.2091331  56.6573477  99.3713570 103.9285278  56.0278702
  98.6892509 102.6002979  56.2758827  44.6994066  37.8883791   8.1536573
  45.1123714  38.7332630   7.9751432  44.2059135  37.6900840   7.3578095
 116.4384842  45.9570122  61.7726040 115.5334091  45.9276056  61.4624500
 116.3642120  45.9762287  62.7267218  69.9601507 107.5160885  19.3462706
  69.5552349 107.8651524  20.1402640  69.7630739 108.1656933  18.6714351
  45.6577682  43.5267639  68.0988264  46.4568853  43.1725883  67.7086973
  45.8776236  44.4332027  68.3139181  10.2946830  37.2277117  45.4679728
   9.4029880  37.5529790  45.3442335  10.1909816  36.4437795  46.0073519
 101.0961723  51.2099600  25.4491496 101.3468647  52.1178198  25.6199670
 100.3087902  51.2765026  24.9089313  19.1694570  57.9709339  11.6398859
  19.3418443  57.0586634  11.8728590  18.5249710  58.2648659  12.2836816
   8.1538814  38.8180804  15.2246904   8.1683785  38.0169392  15.7483268
   8.6568367  38.6004066  14.4399071  15.5932033  25.2263784  16.6085887
  15.7123196  25.8350730  15.8795238  14.6439970  25.1606250  16.7130649
   4.6113199  61.9535494  54.7336817   4.7605306  61.7862368  53.8031006
   3.7886828  62.4422121  54.7602797  46.3393259  31.8763018  41.5086460
  46.5684652  32.3801589  42.2895813  46.9859457  31.1711025  41.4803362
  19.9070978  58.1267548  58.4150648  20.7944560  58.4855318  58.4046936
  19.8430622  57.6226759  57.6038742 115.1627064  19.1096544  69.5094061
 115.3709412  19.8450994  68.9332247 115.6733227  19.2743802  70.3021002
  24.9124050  49.6920443  31.8460560  24.3667221  48.9059019  31.8251300
  24.3355441  50.3922176  31.5407324 110.4380226  42.7844143  24.1274548
 110.3798008  41.9302082  23.6994672 109.5377350  42.9865503  24.3821502
  66.7574024  41.7053795  19.0142798  66.2612152  41.9566536  18.2352471
  66.1181974  41.7374802  19.7260511   7.3810482  56.7152834   8.7213618
   7.6451820  57.3449469   8.0505461   6.8658531  56.0624266   8.2474625
  94.6991825  22.8040504  38.4018779  94.0332603  23.3460736  37.9787993
  95.1831722  23.4119773  38.9608121  16.4074695  17.0298111  50.1094961
  16.6780317  17.5934446  49.3846893  16.3878822  17.6105857  50.8701229
  51.9588137  26.1330724  31.9653845  52.4199629  25.2985001  31.8813515
  52.4256849  26.7251253  31.3756919  20.2881432  63.5694885  32.7514696
  21.0472393  63.9045715  32.2742629  19.7766852  63.1027365  32.0905709
 103.5399055  35.4559231  10.9886742 104.1956806  34.8385429  10.6645977
 103.6293030  36.2207127  10.4200482  15.9056044   3.5120293  23.7913370
  15.6978405   4.1718391  24.4529390  16.1865723   2.7480531  24.2949533
 113.9883709  28.4648204  27.2628427 114.0093136  29.1344237  26.5791607
 113.8046932  28.9497018  28.0674458  88.2227993  39.8654723  29.8796344
  87.9390812  39.0985370  29.3820977  88.6964607  40.4016972  29.2437530
   4.3876338  41.6491079  23.2550073   4.3068767  41.9507980  22.3501897
   4.1543549  40.7214355  23.2198954 115.0618458  16.7130017  46.5990448
 115.7044125  16.4059186  47.2386122 114.3519211  16.0726929  46.6463947
  36.1463642  43.0881453  27.1254468  36.8468165  42.4544096  27.2802734
  35.3429985  42.5683880  27.1517134  62.6805305  28.2406020  31.0751891
  63.0915356  28.8930130  30.5080366  63.3288670  27.5396776  31.1429691
   5.9757310  24.8854470  34.4741511   6.4003807  25.5791855  34.9787617
   6.0441315  24.1089916  35.0297308   8.9648062  30.0147796  21.0244083
   9.7173166  29.7339463  20.5037427   9.2672992  30.8018994  21.4773679
 107.2731876  18.4493637  16.9529235 106.8705273  19.1104650  17.5159848
 106.5624905  18.1547475  16.3834226  22.1183324  30.6576514  36.5423608
  22.5106835  29.9913716  35.9781218  21.2534523  30.3092217  36.7587161
 114.1888046   7.5808501  38.3506918 114.3165493   8.3929229  38.8410521
 113.9602280   6.9323760  39.0166235  42.4227381   0.6161945   3.4899867
  42.1591997  -0.2969065   3.6041191  42.9761362   0.6099338   2.7089989
  56.0201025  53.4404612  23.8610315  55.0705624  53.5144901  23.9565778
  56.1997032  53.7792349  22.9839849  24.4751954  36.9717717  31.6555190
  24.9674988  36.8834496  32.4716496  23.6736321  37.4301624  31.9077301
  29.5505190  24.0884829  37.9623389  30.1631021  23.9334393  37.2433567
  29.0142870  23.2962632  37.9951644 112.3720932  99.8758793  45.8369541
 111.6835308 100.2909946  45.3175354 111.9017601  99.3135452  46.4524174
 113.9110661 104.8870182  62.4514866 114.8562050 104.9650002  62.5813341
 113.7128925 103.9775085  62.6745224  11.6894507  15.3965902  44.2542410
  11.7593575  15.2492774  43.3110285  10.9453750  15.9911907  44.3492889
  34.8722506  19.4184065  74.7587442  35.6590891  19.9222863  74.5508528
  35.1938272  18.6664879  75.2561760   5.7210225  16.1527324  17.5158751
   6.3223684  15.6273794  16.9880319   5.0600183  16.4572203  16.8941092
   5.6740648  25.0511861  41.2043810   6.3531905  24.3823647  41.2921095
   5.1930612  24.8020411  40.4152107  25.0345111  43.5783529  17.7469504
  24.4623876  43.7719917  18.4895194  24.8974729  42.6466370  17.5755918
  10.9468663  18.2106698  18.6128759  10.2126372  18.3099699  18.0068409
  11.3997114  17.4223423  18.3133674   4.8236802  23.7822580  30.5484605
   4.2372671  24.0404344  29.8373365   5.3267771  23.0508566  30.1904464
  98.7325287 108.7528229   5.7926923  98.1888485 109.1162777   6.4916539
  99.0523815 109.5184040   5.3153938  24.1356778   6.8837208  77.9149008
  23.6345553   7.5244212  77.4103117  25.0064874   7.2723538  77.9978895
  35.8096838  57.9445887  17.7442694  35.9996176  58.2117796  16.8449557
  35.3468299  57.1116161  17.6539624  53.4190607  87.2538567  82.5606346
  52.6987314  87.7623940  82.9331303  52.9900503  86.5972614  82.0119476
  22.0364070  41.2114811  40.0846720  22.8637862  41.6372204  39.8601246
  22.1094513  40.3335667  39.7102952  10.9192777  44.4236612  13.7080097
  10.0614929  44.7149611  13.3988464  10.8505642  44.4472694  14.6624494
 105.3179741  30.4726362  36.1615062 105.1335526  30.2950978  37.0838404
 106.1048603  31.0174894  36.1751556  18.1222606  37.3290372  49.3837547
  18.3719051  36.4464426  49.6575022  18.5645342  37.4534392  48.5440254
  86.8551636  88.2912731  40.9774637  86.3029575  87.7379036  40.4251194
  87.5727463  87.7187824  41.2486839   2.2501330  37.4954128  37.9254866
   2.0982188  38.4358478  38.0189395   3.1997931  37.3980761  37.9955149
   4.0659285  43.2193565  25.3612900   3.9956582  42.5837851  24.6490121
   4.0154821  42.6921129  26.1585999  34.3120003  58.4000778  89.0241146
  34.0714264  57.8103399  89.7386551  35.2664757  58.4554815  89.0703487
 101.1731148  18.8156974  46.9022179 100.7281017  19.5376539  46.4584017
 100.5192375  18.4678519  47.5085878  22.8717256  -0.0924679  25.8916855
  23.4383035   0.6785899  25.8654213  22.0018673   0.2560294  26.0869479
 104.2042065  55.6142426  39.6185207 104.3813324  56.2962818  40.2663517
 104.7241688  55.8675289  38.8558125  40.3070831  51.7157125  60.0734043
  40.2921677  50.8025503  59.7868013  39.9034214  52.1995211  59.3528366
  28.7509346   8.0503708  56.4183235  29.6983218   8.1870455  56.4211082
  28.6211252   7.2620201  56.9454718   5.0804561  29.1144252  66.9710445
   5.4197937  28.4747696  67.5970840   5.8619946  29.5196581  66.5952587
  79.5563126 106.6359615  90.6155109  79.9508333 106.2373829  89.8398113
  80.3017616 106.8918610  91.1587048   0.9524532  37.0221639  17.3362350
   1.7418858  36.7335725  17.7942133   1.1951680  37.8620720  16.9465256
  48.7636757  53.8970137  36.8123102  48.3499479  54.2357922  36.0184002
  49.3499756  53.2072973  36.5012288  32.2325253  47.2629929  47.8751326
  32.7341938  47.1419954  48.6813068  32.8331518  47.0004749  47.1775913
  30.5005860  46.0569906  32.7613807  30.6398058  45.7503605  31.8653750
  29.5610785  46.2333536  32.8109169  59.8400402  32.7679110  11.5353656
  58.9087343  32.7884698  11.7555523  60.0238180  31.8454933  11.3575995
  47.0951366  34.2736006   9.2189848  47.1596289  35.1664925   8.8801348
  47.3040438  33.7170410   8.4687638   0.2461396  21.7606568  44.3219328
  -0.5111637  22.0340800  43.8042831   0.7089673  22.5752616  44.5180035
  75.3582811 103.7418652  24.3211031  76.1608076 103.4597015  23.8822722
  74.9681139 104.3775940  23.7212324  36.0149598  61.6731977  67.4976254
  35.4571176  61.9555998  68.2223940  36.1119223  60.7293034  67.6237106
   0.1044700  10.4113662  27.0030046   1.0121715  10.5302060  26.7233849
  -0.1935338  11.2922418  27.2299027  10.8062243   8.8869607  22.6768064
  11.2268114   9.7427106  22.7606583  11.4075434   8.3766705  22.1343565
  38.6154962   7.4314511  28.2170606  39.2819905   6.8268800  27.8907037
  38.0389023   6.8861258  28.7522173 105.1316071  44.4333792  39.3046117
 105.4056168  44.6633959  38.4167814 104.6720219  45.2105856  39.6223545
  64.4888115  70.6025171  88.8578033  65.4310369  70.4351473  88.8369083
  64.3051434  71.0419846  88.0275249   3.0469728  10.4965448  53.7714624
   3.9213711  10.1289809  53.6427927   3.1249949  11.0287046  54.5632648
   5.1685196  44.1714621  55.9431410   4.4183463  44.1298485  55.3500652
   5.8371043  44.6475363  55.4506207  41.1366558  50.1429081  42.8308821
  41.4742231  51.0004663  42.5722837  41.0908175  50.1816845  43.7861967
  30.6286383   8.5694546  27.2877383  30.9230161   9.4790268  27.3351836
  29.7385645   8.6236179  26.9397902 111.0240746  94.8193741  60.5059958
 110.8902454  94.9351501  59.5652962 110.3324795  94.2141438  60.7736158
   1.1028453  12.2237861  38.9460516   0.4745700  12.1801341  39.6668816
   1.8821217  12.6242995  39.3314719 110.5456734 101.5261841  56.1342525
 111.1406040 101.4307499  55.3904915 110.3720093 102.4662304  56.1829662
  49.6242857  15.2085757  44.3665075  49.0687037  15.8979225  44.0026951
  49.1646910  14.3953335  44.1576099  20.4527044  22.4255085   5.4958975
  19.5415199  22.5924587   5.7369411  20.6639671  21.5935922   5.9195900
  26.7484260  31.5478349  37.7297711  27.4117684  30.8755994  37.5738549
  26.5499067  31.8947148  36.8600011  77.9350376  93.2238388  29.3489552
  77.5826931  92.4896812  29.8520350  77.2587824  93.8989639  29.4048333
 100.8724403  43.4205103  31.5725350 101.4107323  43.3513737  30.7840538
 101.4739990  43.2254171  32.2910786  33.5080886   9.1256070  61.2896299
  34.2062259   8.6548662  60.8343935  32.8699613   8.4485817  61.5147066
  75.9584427  94.8818684  93.2829380  75.0301027  94.8707962  93.5159492
  76.3039017  95.6643772  93.7125587  44.1554022  34.5752478  35.8272719
  43.4142876  34.3841934  36.4021444  44.1379166  35.5264878  35.7220626
  35.7860589  14.3927026  19.0901661  35.5019665  14.5991969  19.9806058
  36.6995525  14.1235030  19.1865718  96.4667702 108.8781738  72.9334259
  96.8058395 108.3357620  73.6455059  95.7838821 109.4101906  73.3418989
 111.2307644  36.3934374  39.3831134 111.5160084  36.9850469  40.0794363
 111.9425964  36.4154506  38.7435579   7.0488697  71.2874079  35.2714014
   6.9945824  72.0948315  34.7601748   7.8811282  71.3556671  35.7392883
  37.8913903  61.3921928  29.7790980  37.2819233  61.2518406  30.5037236
  38.0085444  60.5241346  29.3931174  27.1635962   5.4856592  19.3442774
  27.7236605   5.6550884  20.1018095  27.7401447   5.6026709  18.5892057
  28.4955001  11.1330569  51.3283634  29.3609142  11.5144360  51.4761448
  28.6415339  10.4569137  50.6667471  31.8904257  49.3163061  40.7211924
  31.3714147  50.0067854  41.1336231  31.7292786  48.5415077  41.2596607
  43.4558821  13.5344911  67.1382761  44.1875887  13.9308524  66.6652727
  42.7203226  14.1265404  66.9812250 111.0766029   4.5364976  70.8787251
 111.6588593   3.9525032  70.3927708 110.1985073   4.1961306  70.7074261
 112.1885967 105.0258636  25.7426310 112.4830437 104.8465061  26.6355848
 112.9944992 105.0620079  25.2274060   6.4130300  37.6629949  20.4123282
   7.2819626  37.3077679  20.5994105   6.2208736  38.2312083  21.1582756
  14.7907162  35.2769351   8.3206069  14.3940485  35.2823281   7.4494833
  14.8363400  36.2002921   8.5687262  30.9282541  49.8720074  25.4596090
  30.1648688  49.3643951  25.1842880  30.5601668  50.6482935  25.8816552
   9.2594421  50.4321432  45.9209442  10.0621557  50.7441616  45.5031824
   9.1275412  51.0260963  46.6598988  41.8826246  37.2388458  94.8634911
  42.7593327  37.1271825  95.2311230  41.9727087  36.9799018  93.9463997
  60.5608511  96.4485264  90.9886169  59.7936869  96.2160110  90.4655170
  60.5088758  95.8790588  91.7562389  39.6873188  35.0532722  48.8119936
  39.6789527  34.6610975  49.6851254  40.4689360  35.6057763  48.8050747
  29.7937107  53.7777567  60.7229567  30.5765295  53.5332870  60.2293396
  30.1007152  54.4326448  61.3499355  19.2341232  29.7009754  22.2770405
  18.7671852  28.9679742  22.6781774  19.2820561  29.4748831  21.3481617
  43.8779545   4.8033646  51.5301037  43.1385994   5.1919544  51.9976330
  43.4745407   4.2308354  50.8776426  20.5863452  30.2778196  29.2573833
  21.4187551  29.9558711  29.6033216  20.7545114  30.4245472  28.3265638
  44.9408531  44.4281721  38.2681251  44.3935299  45.0812531  37.8320503
  44.3178368  43.8089371  38.6484313   0.9816352 106.1438274  14.3876326
   0.3995379 106.6868687  13.8561261   1.4594018 105.6113338  13.7516880
  44.0901947  48.7597370  15.2443635  43.5411119  49.4861221  14.9492335
  43.4790373  48.1502914  15.6582415  14.5072019  39.8179102  65.1932478
  14.0281165  38.9920139  65.2611256  13.9979696  40.4341650  65.7196951
  29.8082352  30.0613570  41.4100933  29.5586562  29.2223525  41.0227776
  30.5289650  29.8468113  42.0023346  38.7903190  54.4057178  33.2881093
  38.7170124  53.5452700  33.7010169  38.6230302  54.2410994  32.3601294
  14.2044413   5.2859819  32.4165344  13.8719475   4.5421138  32.9188704
  15.1559770   5.2264154  32.5017548  37.6199985  61.9081545  12.3845017
  38.0704069  61.3986444  11.7108846  38.2962680  62.0951271  13.0356038
  48.5415077  55.0303507  18.9832842  48.2225990  54.5518494  19.7485065
  49.0327120  54.3797779  18.4815824  49.2458105  56.2513590  90.4566669
  49.8181295  56.3589907  91.2163353  48.9493418  55.3426218  90.5069828
  40.2329302  31.8504190   8.8633829  41.0640526  31.4746404   8.5731107
  39.6079445  31.1283255   8.7985104  43.2648087  42.3651218  39.0135527
  43.3927965  41.4637041  39.3090177  42.5633574  42.3072195  38.3648276
  50.2703190  50.7689667  15.7847750  50.6595230  50.2657080  15.0695944
  49.6246243  51.3319778  15.3577733  37.5448108  27.6796055  53.3612680
  37.4921966  28.2119966  54.1550064  38.2694769  28.0603004  52.8651190
  12.7246141  19.5310771  44.7206974  13.2860482  18.7728584  44.8823404
  13.1994092  20.2672601  45.1064920  18.2152414  15.0743198  40.6133413
  17.3194599  14.8091149  40.4048395  18.1800056  15.3340113  41.5339708
  15.4907799  21.2153602  44.7141171  16.3184822  20.7584167  44.8636007
  15.4341209  21.8485522  45.4297209  46.6296244  35.7889104  41.4396334
  47.1564674  35.9061909  40.6491184  45.7248354  35.7931566  41.1272812
  40.2634525  25.9481335  38.8844824  39.6212029  25.3742456  38.4668708
  39.9201131  26.8311572  38.7480283  27.9642177  52.6342773  37.6595140
  27.9093671  52.3917818  38.5838628  27.8094268  51.8159819  37.1876359
 104.7916222  35.8782816  35.3541994 104.8334026  35.7362342  34.4085193
 105.5412865  35.3955030  35.7022667  32.8055787  26.8628383  29.0523839
  33.3071542  27.6691818  28.9321232  32.5278759  26.6195464  28.1692529
  35.4146600  49.4527197  47.2463989  34.8109055  48.8916349  46.7596769
  36.2242174  49.4329119  46.7360497 109.3132877  52.6608181  25.3405118
 109.1370487  52.7257395  26.2791038 108.4565544  52.4958754  24.9467874
  23.8757658  70.7745218  36.8940187  23.9872503  71.6802263  37.1829939
  23.2423472  70.4033852  37.5082445 105.8612728  90.5726814  67.5426054
 106.7879391  90.5216026  67.7769613 105.4093838  90.1147556  68.2513571
  20.3757477  56.9869947  15.2911448  21.1221099  57.5680399  15.1443040
  19.7029591  57.5524759  15.6703782  53.2179308  38.5707903  37.7127504
  54.1609144  38.5023189  37.8621674  52.8919888  37.6779842  37.8262854
  72.9676771  34.3606234  37.2202015  73.4489965  34.8657894  37.8754663
  73.1755161  33.4481215  37.4211407  21.0871124  40.4815722  21.2685776
  21.3551307  40.2101994  22.1465039  20.6480980  41.3217592  21.4011717
  36.7979074  40.5726433  76.0602283  36.8442249  40.8538389  75.1464367
  37.3661256  41.1844921  76.5282011  10.0596082  31.8180037  41.5634394
   9.9460107  31.3335586  42.3811436   9.6353114  32.6609588  41.7235327
  26.8489099  56.0284758  30.7657814  26.6211581  56.6947126  31.4142346
  27.8044462  56.0578632  30.7176423  38.6571813  57.9324484  65.7549238
  39.5463681  57.6746702  65.5117655  38.7616229  58.4008408  66.5831375
  21.8737984  60.3247404  31.8954825  21.4371872  59.8503876  32.6030087
  22.7375484  59.9172544  31.8312740  54.2828703  44.5668983  15.8883476
  54.5968723  44.5372009  14.9846029  53.3291101  44.5877075  15.8099651
   8.1063461  52.7777100  39.1723609   7.7819699  52.1030569  38.5758233
   9.0122980  52.9230547  38.8996744  35.4875302  16.6207528  37.3074579
  34.9465775  16.4735925  38.0833101  35.0182986  17.2921050  36.8121386
  19.3559742  35.6222391  17.4705291  18.7127817  35.4723883  18.1634057
  19.4538748  34.7698474  17.0461762  59.1269350  24.8981404  66.4537764
  58.7592602  25.0095105  65.5770540  58.3663321  24.9031878  67.0348883
  39.0796018  48.5295343  44.8347425  39.8985386  48.8867474  45.1782131
  39.2290616  48.4510374  43.8925457  65.9186172  48.7599373  26.6486430
  65.8228779  49.7108507  26.5954566  65.0959015  48.4575224  27.0332432
  54.2424440  68.9058447  21.7257977  54.9050903  68.7570381  22.4003243
  54.7201395  69.3224716  21.0085392  42.1036291  24.4909453  24.6485591
  42.0671701  25.1673961  25.3248096  42.2655916  24.9720335  23.8370442
   9.2090970   6.4155561  19.1255617   9.2593694   7.0482510  19.8420823
  10.0878429   6.0392547  19.0762210 101.4940548  50.1165104  40.9233904
 102.2375488  50.7000637  40.7720089 101.8803787  49.3328619  41.3143921
  28.3855152  19.8934400  40.2286720  27.6191115  19.4451940  39.8709965
  28.3646441  19.6937728  41.1645842  41.6111135  49.4808388  45.4644966
  41.9328594  50.3803444  45.4044533  42.3297167  48.9960241  45.8704519
  39.9150634  53.4045124  31.0106468  40.0430632  53.0648708  30.1249313
  39.4540453  52.7036572  31.4716196  39.7574592  20.2848506  36.1456227
  39.7960758  19.4530392  36.6176724  39.4597006  20.0481629  35.2672434
  28.6472487  41.0913420  24.2336082  28.9090133  40.2056360  23.9821434
  29.2158437  41.3084793  24.9723792  30.8555341  44.1469669   6.6298670
  30.1756215  44.5238352   6.0713649  30.3764153  43.7607813   7.3630351
   2.0532234  70.2295828  31.9753456   2.6331300  69.5509243  32.3208332
   2.4801143  71.0528612  32.2124243  46.4377213  80.9881783   0.5240943
  45.7181501  81.5951252   0.3507040  47.1748972  81.3423252   0.0267209
  14.0637660  72.6509523  57.1792459  13.8414383  72.6785469  58.1098557
  14.7631383  72.0001698  57.1192741  19.6773160  30.4583001  10.4962409
  19.6743739  31.4110088  10.4036784  19.1900349  30.1422334   9.7353917
  35.1825476  51.7227745  40.5196142  35.3615236  51.4677143  41.4246798
  34.2369604  51.8693018  40.4945850   9.2449015  23.0690527  83.3284187
   9.9648523  22.8355265  82.7424431   9.4792795  23.9348650  83.6625862
  38.7828016  49.9851274  20.4737687  38.3762312  49.7042990  19.6539700
  38.1251693  49.7980404  21.1436558  72.2764540  50.6484509   7.3820478
  71.8441343  51.3483238   7.8714401  72.2527885  49.8943472   7.9711175
  35.7705474  34.8276472   4.7204810  35.3197074  34.1138411   4.2694211
  36.5076613  35.0440884   4.1494745  13.3043337  42.2928143  32.9534388
  12.7863741  42.7005768  32.2594094  12.6911712  42.1905947  33.6813235
  45.8873034  33.0589223  31.6610384  45.9273529  32.1254587  31.8690538
  45.0891018  33.1544924  31.1414504  32.5106907  41.2203789  71.5312719
  32.5368643  41.7369366  70.7258463  32.4185586  40.3156281  71.2326622
  97.2144413  23.5295939  20.6822538  98.0423260  23.5181880  20.2019429
  97.4625492  23.3609724  21.5912318  20.0783277  42.4941111  82.8375530
  19.7648644  41.6188431  83.0653191  20.8688712  42.3384476  82.3207951
  37.0107460  44.9425888  69.1506624  36.2290883  44.3984079  69.2461109
  36.8332243  45.4839611  68.3814812  81.4177036  49.6990538  49.8862457
  81.9150352  50.3910494  49.4503117  80.5689049  50.0981331  50.0773096
  28.9484000  63.4832573  17.1321702  28.2088161  63.9687872  17.4975574
  28.6721873  63.2590771  16.2435305  20.9741855  33.7211561  27.6026011
  21.5690041  33.2364440  28.1748533  20.1004815  33.4297991  27.8633428
  19.7724056  57.2322083  48.9867115  18.9003384  57.1098661  48.6115265
  20.3067112  56.5513277  48.5778761  40.3642893  58.1414843  22.1610737
  40.7512140  58.7842941  21.5666676  39.5575285  57.8672171  21.7250180
  39.3202162  25.5740452  31.6600060  38.7893701  24.9615955  32.1692610
  38.8495588  26.4054441  31.7190790  32.6755381  22.9881454  33.7198997
  33.0397224  22.8462386  32.8461361  32.1876979  22.1866226  33.9091253
   9.0775126  50.7564783  15.3443456   9.3509108  51.5265560  14.8458815
   8.3757180  51.0752773  15.9118700   9.1639388  31.6271091  46.7960835
   8.9211732  32.4098301  47.2906971   8.5892475  31.6396213  46.0307026
  44.2429876  52.7368975  40.3178596  43.9787817  53.1767464  39.5097971
  43.4934473  52.8419876  40.9038448  56.8688154  42.1891737  37.4348664
  57.0192194  42.8005171  38.1558871  57.7460432  41.9622898  37.1262813
  45.2184486  49.6546316  49.2638254  44.5018291  49.5506954  49.8898315
  45.9024525  49.0659142  49.5828629  75.4296255  21.4737964  42.0473099
  76.1022949  22.1337128  41.8792105  74.6660423  21.9768310  42.3303843
  41.2633562  20.9182262  19.2826104  41.9051743  20.9648180  19.9912214
  40.9671593  20.0080180  19.2872000  42.9407930  50.6664085  38.0494690
  43.2949066  50.1692343  38.7867951  43.1908083  51.5726662  38.2295418
  34.7676659  51.4858150  55.3381872  35.1294804  50.7110167  55.7683229
  35.2394938  52.2201538  55.7310629  55.7055140  23.6243486  44.5513964
  54.7714424  23.5081816  44.3774796  55.9789944  22.7991486  44.9519968
  12.1167350  39.9426055  62.6560163  11.2070632  40.2087212  62.5221872
  12.4136448  40.4692364  63.3981323  51.4451551  35.4110861  35.2939343
  51.3410425  34.5931411  35.7801032  51.1772680  35.1946330  34.4008398
  45.9106922  48.6423397  52.8563929  45.0475979  48.9446926  52.5737524
  46.3095903  48.2822895  52.0642614  46.5120649  30.4925919  62.5122976
  45.7758808  30.7574129  63.0637836  47.1837139  31.1548567  62.6751566
  34.2549205  59.0954447  34.9433804  33.3133817  59.1484356  35.1074672
  34.4631910  58.1663227  35.0413156  36.9909000  19.9011457  18.5271871
  37.5896358  20.5775976  18.8436651  37.5592518  19.1647410  18.3015406
  30.0870252  43.4791183  34.6150064  29.5258951  42.8383827  34.1781712
  30.2162194  44.1681385  33.9632440 110.4428101  26.9894361  52.7568436
 110.7721806  26.4525485  53.4776068 109.6642113  26.5254974  52.4489784
 110.0713539  35.1127458  35.6106091 110.2150249  36.0428023  35.7854915
 110.8878708  34.6900535  35.8768201   1.9573009  47.2567034  19.4328284
   1.4495164  47.9692554  19.8209727   2.7172488  47.6888561  19.0430152
  34.8784709  53.4803104  13.5231245  34.2437959  54.0730333  13.9257360
  34.3979120  52.6614380  13.4016800  34.6588850  43.1770420  69.4367695
  34.0809655  42.4252653  69.3060923  34.0895200  43.9386892  69.3274832
  70.9148932  20.8447647  42.5234175  70.4587173  20.0177670  42.3678112
  71.4533901  20.6793380  43.2972956  49.7041464  64.9453259  29.3862486
  48.8049364  64.6965265  29.6001363  49.6132326  65.6009245  28.6947608
   6.0731399  28.9453673  54.8914099   6.9778973  28.8473988  54.5946789
   5.5708867  29.0808058  54.0878963  51.0684729  21.8419933  51.0521078
  50.5828333  21.9087100  51.8742561  51.7837191  22.4713492  51.1446714
  58.8492298  27.0292401  38.7142205  59.7919941  26.9242001  38.8422418
  58.7730360  27.6953673  38.0310655  36.1607051  31.0637522  43.3938599
  35.9901118  31.0618138  44.3357325  35.3189421  30.8388352  42.9975224
  63.3330297  59.9669218  15.1715124  63.0034208  59.4873333  15.9315014
  62.7443218  59.7195768  14.4584382  38.4626079  37.9417396  28.4600472
  38.7335944  38.6060977  29.0936279  37.5456429  37.7679276  28.6726427
  13.4355390  44.2298460  25.2251601  13.4395492  44.7189903  26.0479283
  14.1024315  43.5537720  25.3451991  34.7552037  50.6159163  43.1032705
  35.3668761  49.8907137  42.9760933  34.0511513  50.2449369  43.6351633
   5.7672775  40.8427811  33.1357813   5.3000492  40.2700901  32.5275397
   5.5161875  41.7280197  32.8720880  40.6861687  57.6208401  37.6305962
  41.1239958  57.8937292  38.4368682  40.1467037  56.8745279  37.8917885
   9.5544982  53.5063171  45.9063959   9.5615649  53.5343409  46.8631601
  10.4757917  53.4168291  45.6625938 116.3943100  59.0490198  38.4162235
 115.4652500  59.1806078  38.6053395 116.8426418  59.3215561  39.2168164
  16.9974625  52.2706270  35.7374883  17.1079123  51.3631248  35.4538202
  17.3737061  52.2940254  36.6173315  23.7538815  35.3458118  34.7541285
  23.8372684  34.5021462  35.1985455  24.1267276  35.9780550  35.3685284
  10.2133572   2.1913049  87.4017906  10.5274808   1.7017813  88.1620121
   9.4198585   2.6290470  87.7099705  25.1701164  94.0624142  51.1844492
  24.8389769  93.2701397  51.6073895  25.4617119  94.6164322  51.9085073
  45.5194569  57.2631931  69.0023184  45.8064270  57.4069118  68.1005287
  46.0040855  57.9109192  69.5139980  67.7131987  57.0264244  11.8012071
  67.0523167  57.7173185  11.7550647  68.2942677  57.2978735  12.5117731
  10.6709588  40.2784729  18.5087621  11.1340141  40.9671545  18.0317640
  10.7938468  39.4933629  17.9751599  25.5179667  43.8312626  21.7176723
  25.8469963  43.4329033  22.5234532  26.2880707  44.2365980  21.3190770
 104.7330856  39.0709257  53.9084578 105.6307983  38.8053203  53.7089729
 104.8216915  39.9404407  54.2987442   5.4156107  10.6994891  76.0506821
   6.0608643  10.0466561  76.3221407   5.6652987  10.9248126  75.1545143
  98.8107300  20.3970790  12.8107858  99.6160316  19.8875582  12.9008353
  98.2220078  19.8287725  12.3141289  20.9795809  46.3434839  20.6993032
  20.8224320  46.9281149  21.4407516  21.8419981  45.9653616  20.8710337
  27.9053426  49.5563555  18.6581600  28.4978390  50.0112057  19.2567337
  27.8764129  50.1135397  17.8803813  28.4292078  15.4755151  14.9619770
  29.3798399  15.5165374  14.8578227  28.2204723  16.2051356  15.5453432
  14.1335905  58.5868692  36.3374829  15.0519288  58.4092951  36.5408444
  14.0889347  59.5383072  36.2425756  12.5690460  58.9726877  25.5473328
  12.3445880  58.5814905  24.7030497  13.5110915  59.1336870  25.4938293
 113.5797119   4.5204964  87.4868679 113.5400486   3.5876781  87.6978397
 114.4663906   4.7841945  87.7328110   6.6849047  42.3955631  19.8464763
   6.7783809  41.6837931  19.2133307   7.1732694  43.1236219  19.4622040
  36.4969921  52.1762609  44.6831369  36.9790053  52.4654627  43.9083767
  35.7360387  51.7131996  44.3327761  13.5367846  28.9106369  41.8465328
  14.2997694  28.7318110  42.3961735  13.8673401  29.4881392  41.1584520
  43.0105686  18.5583317  28.7390208  42.2825432  18.2410121  28.2046795
  42.6044703  19.1569853  29.3658614  38.4147906  62.5481033  27.2564697
  39.2882323  62.2080708  27.0622778  38.2121682  62.2048521  28.1267309
  23.7421513  70.9370375  66.3888264  23.1448722  70.2011967  66.2545633
  24.2847419  70.9520388  65.6004047  31.1409831  31.5579295  20.3557158
  30.7103372  31.9095230  21.1349201  32.0735312  31.7111158  20.5077672
  41.0836458  42.3340511  29.9512148  40.2881050  42.2070885  30.4681563
  41.3945866  43.2044840  30.2000189  47.4744034  62.4562502  26.9641542
  47.8974009  63.1847334  26.5095973  47.0860243  62.8534460  27.7436590
  52.6516151  28.6264944  38.3288479  52.9787731  29.4383693  37.9414725
  53.3245850  27.9764962  38.1267428   3.5519436  30.4859352  28.0860591
   2.6986384  30.2882075  27.7000475   3.8051638  29.6786594  28.5337377
  43.1873655  57.8711224  20.0408459  42.8876162  56.9962597  19.7938657
  43.8996840  57.7141380  20.6606746   6.2058496  15.7819569  23.2668400
   5.2992445  15.9756875  23.5051012   6.1395633  15.3075802  22.4381042
  34.0850329  64.8792219   2.3895258  33.8878083  65.1272106   1.4862894
  33.6052775  65.5134773   2.9222420   0.7780953  84.4493961  23.0803633
   0.7710399  83.9767265  23.9126873   1.7061198  84.5898438  22.8925467
  19.1107059  51.2719727  45.9485769  19.6177673  52.0622110  45.7624435
  19.7288263  50.6890917  46.3894939  45.6917810  42.3542547  57.7722025
  46.3539743  41.8898153  58.2840967  45.5774498  43.1878567  58.2285595
  47.3110819  26.2823367  49.1927528  47.8729677  26.9925094  48.8826323
  46.4229584  26.5696287  48.9807796  54.6482182  59.6241951  45.4942656
  55.1093817  60.2339602  46.0702372  54.1660833  59.0504074  46.0897017
  51.5514183  56.5776300  21.5794206  51.7109871  55.7703686  21.0904479
  52.2958326  56.6467094  22.1771693  51.3070679  56.4858770  43.4463692
  50.4945183  55.9948444  43.3243704  51.0588598  57.3991394  43.3029222
  33.6826301  11.9109297  54.8571873  34.3258476  11.4945221  55.4308653
  34.1636229  12.0919526  54.0496540 109.6804619  23.3340144  61.8825531
 110.4264259  22.7419734  61.7863369 109.5534229  23.7032080  61.0086012
  41.2020397  25.2093649  47.9963017  40.8704901  25.2664828  47.1001720
  41.7608929  24.4322467  47.9958391  47.5795221  52.0084190  68.5150671
  47.7504539  52.0918608  67.5769567  46.9458485  52.7000999  68.7055159
  49.5669842  56.6106701  40.5654526  49.5861483  57.4845457  40.9555912
  48.8321877  56.6380310  39.9526238  57.7089882  71.5252924  20.9106779
  58.2955360  71.2177610  20.2195787  57.1887207  70.7561827  21.1430955
  31.4776182  36.7184782  27.3468494  32.0971656  36.1164474  27.7591038
  30.6182313  36.3355184  27.5229955  32.4190712  52.5271797  40.7014132
  32.5861359  53.4247589  40.9889317  31.7897487  52.1854448  41.3365555
  37.9991674  26.4657640   5.3739417  38.6500454  27.1668983   5.4055285
  38.1187010  26.0666370   4.5121753  77.7443504 106.1977291  86.6073322
  76.9795752 106.0149574  87.1531773  77.3797369 106.4169025  85.7498550
   6.8374515  43.0818892  27.3288488   6.4221191  42.7161264  28.1098413
   6.8131554  42.3702860  26.6891122  28.3980656  15.9234333  43.8720989
  28.6974120  16.2068558  43.0082178  28.4355593  14.9676156  43.8368893
   3.4800375  57.1318388  18.1610215   4.3879211  57.3220301  18.3972538
   3.5464230  56.5494156  17.4043107  22.7921677  44.1719437  22.2440529
  23.7435913  44.1461802  22.3458457  22.4699187  44.4949389  23.0855179
  20.6953740  47.7675676  23.0080605  21.2199354  48.0369282  23.7620568
  20.1325893  47.0702696  23.3446360 113.5993862  83.8852406  23.0185318
 114.1178799  84.6687889  22.8356671 113.3252621  83.5728073  22.1562791
  61.7019987  51.4862823  24.0990877  62.3516464  50.7955217  23.9685607
  61.8673420  51.8060875  24.9860001  31.9179201  53.8126326  26.2231660
  31.2304211  54.3528461  26.6127157  32.4204636  53.4887600  26.9706869
  15.2696323  57.6962090  16.9047070  14.8908925  57.8227568  17.7746344
  15.0390136  58.4917927  16.4250290  14.1522706  58.1095505  19.6266723
  13.4637475  57.4683428  19.4505405  13.7191772  58.9579725  19.5326626
  15.7566059  43.3361530  26.1374950  16.4516330  43.5681009  25.5215645
  15.6843269  42.3841000  26.0696268  47.0351982  25.5583978  24.1739655
  46.3379526  25.2642250  24.7600889  46.8622541  25.1043940  23.3492208
  93.2987404  81.6567802  63.8314486  93.4228230  81.8379784  64.7631168
  92.9722786  82.4802399  63.4687090  28.1020355  96.6660404  47.2806072
  28.3677244  96.4066696  48.1628561  28.9012027  97.0094013  46.8810225
  42.2683620   7.8722894  28.6581707  43.0056524   8.3093470  29.0843320
  41.7627907   7.4974048  29.3793440  44.9100447  51.8651390  51.4029121
  45.8163404  51.9098425  51.0981798  44.7400331  50.9295416  51.5123606
  55.9382057  40.3922701  22.6145315  55.5292606  40.1415777  21.7861891
  56.6563511  40.9722233  22.3612428  27.9353738  37.5488806  22.8397155
  27.9864120  36.8074298  22.2364950  27.1099186  37.9805160  22.6193905
  29.6476126  60.4753256  24.7917652  30.2520776  61.1811590  25.0212264
  29.3131924  60.1635265  25.6327033  40.9827757   8.2791805  19.3612647
  41.8953848   8.1136638  19.5978594  40.7159615   9.0030754  19.9278510
  44.9174500   9.1771412  34.9375629  44.4367647   9.9943882  34.8061061
  44.6428490   8.6181754  34.2106628   8.9271164  64.5306683  37.0258832
   8.2777250  63.9627981  37.4406672   8.7891716  64.4062710  36.0868788
  38.2856035  11.2362528  88.0215454  38.6896801  12.1017408  87.9592037
  37.9423833  11.0683858  87.1439075  24.4212127  10.7362020  40.1005316
  23.5570216  10.9232771  39.7339177  24.2392373  10.2785766  40.9213209
  11.9673073  34.5476627   8.1785822  11.3817406  34.9195147   8.8381791
  12.2413588  35.2980399   7.6512676  48.6502028  12.7491832  20.7728124
  47.8666735  12.6257586  20.2370143  48.7965441  11.8968165  21.1830401
 108.7247849 104.7641659  27.7162099 109.2663670 104.4628334  28.4456801
 109.3267155 105.2572346  27.1587229  13.7406230  36.5614867  39.5031214
  13.7492645  37.4058247  39.9539566  13.7034822  36.7866945  38.5735345
  39.1757607  43.5177469  10.5922806  39.6790886  43.3136749  11.3804722
  39.7358727  43.2332659   9.8700762  30.1317072  55.6826448   7.6007426
  30.4075003  54.7662640   7.6212072  29.4429278  55.7107019   6.9366425
  39.7156882  43.3980131  64.1759443  39.6846867  44.1140938  63.5415173
  40.4436731  43.6227465  64.7553921  34.0211987   0.1356289  30.5563426
  33.3430290  -0.3503323  31.0255527  33.6756372   0.2328913  29.6690106
  48.2885218  36.9816065  50.5636692  48.7149954  36.1248207  50.5473232
  47.4135303  36.8203855  50.2106380  36.4071345  50.7909060  49.4553232
  36.2625217  51.7144060  49.2492485  35.9595966  50.3162670  48.7548542
  14.4565284  46.3796616  21.3874936  14.9293017  45.6936789  21.8588233
  13.5524046  46.0672235  21.3532472  50.0043869  88.0352688  85.0577545
  49.1409588  88.2845211  84.7282028  49.8257351  87.5958920  85.8891869
  18.8550901  15.5420780  21.9460034  19.5453310  14.8789537  21.9378662
  18.0746484  15.0718510  22.2393107   8.6337548  26.8695307  30.8221078
   7.6930463  26.8587089  30.6455255   8.7914491  27.7218986  31.2281060
  18.3924174  27.5138688  63.8333988  18.9702690  27.1281505  64.4918346
  18.8083160  28.3459067  63.6076260 105.6377316  74.6114302  89.6463394
 105.7617950  74.0032673  88.9176655 105.1174355  74.1203547  90.2822495
  23.9188313  35.4691315   7.1433866  23.3305240  35.4643679   6.3883334
  23.3430004  35.6106853   7.8947932  20.7202864  33.5666156  57.1775723
  20.8785295  34.3339729  57.7274418  20.1471734  33.0090046  57.7037334
  33.9053512  51.0645103  21.2167597  34.4684291  50.5186892  21.7656255
  33.0885935  50.5704641  21.1456585  50.1990700  61.9797230  37.9278898
  49.8397732  62.4375534  37.1679354  50.4403830  62.6782036  38.5362697
  43.9762211  51.4791632  54.3725967  44.7583485  50.9318733  54.3020153
  43.8940525  51.8915367  53.5126972  42.0506573  52.9220819  22.3008227
  42.9193354  53.2704258  22.5015330  41.8047333  52.4269629  23.0822372
  62.4871969  31.9487500  51.8754959  61.7019033  31.9357038  52.4226475
  62.1567488  31.8724966  50.9803915  72.3079157  17.6391017  26.5930057
  72.2729206  17.7166831  25.6395984  73.2418919  17.5814545  26.7945004
  74.6022129  35.7575274  14.2559230  75.1386786  35.1675463  13.7264347
  75.1824522  36.4911222  14.4593871  42.8148890  53.7187672  28.7167430
  43.7628698  53.5879946  28.7382984  42.4547100  52.8405762  28.5931206
  34.7547913  68.3817434   9.0833330  33.8421464  68.4012890   9.3713021
  34.8981118  69.2394018   8.6831981  19.1284823  53.3045006  37.6170039
  18.5749972  54.0661478  37.4444366  19.8985422  53.4378719  37.0643282
   3.0495623 102.6740074  88.4668541   2.9400629 103.2878685  87.7406216
   2.3981646 101.9917870  88.3041000  71.9003582  49.6007729  11.3985467
  71.8622589  49.1558075  10.5519152  71.8316936  48.8961411  12.0427620
  26.8637586  27.6204395   6.7523980  26.9065928  28.3424425   7.3793805
  26.6631436  26.8514752   7.2859508  44.7705698  57.6073599   6.3260943
  44.8266125  57.4577713   7.2698712  44.1589451  56.9405603   6.0138100
  44.8770714  39.6491551  17.4865925  44.6546888  39.9356842  16.6007710
  44.4564438  38.7938142  17.5743306  45.0628328  24.7075224  47.2305727
  44.9543238  24.8813009  46.2955523  45.2151537  23.7639618  47.2827244
 112.5409222  11.6308999  26.8260741 112.1943378  12.0305991  27.6237917
 113.0249405  10.8642817  27.1330881  50.3446054  48.3608913  20.9899378
  51.0440445  49.0090036  20.9064651  49.9807215  48.2862377  20.1077557
  37.3360276  56.0439157  21.7187810  38.2091498  55.7629919  21.9925928
  37.4920225  56.6029358  20.9576035  57.8504086  21.2057829   9.9491447
  57.1489143  21.4851737  10.5374312  58.5826826  21.0001445  10.5302835
  12.2681892  66.9425011  14.3207037  11.6992486  66.9591856  13.5511196
  13.1515920  67.0488596  13.9678276  60.6776810  43.3723259  19.2062771
  60.7603788  42.4821091  18.8643563  61.2026739  43.3712149  20.0066590
  46.7544794  35.0010157  35.7285357  45.8447504  34.7097111  35.7899094
  46.6970778  35.9545946  35.6683207  45.1644135  42.4859571  53.5561085
  45.3208685  42.1146584  52.6878357  45.5431604  41.8481922  54.1611242
  39.2531824  45.2954149  29.3066669  39.5693564  44.7001934  28.6269784
  38.3851171  45.5635595  29.0053463  39.6162701  51.4748096  33.0056190
  40.4965973  51.7270041  33.2842875  39.6660852  50.5267286  32.8835702
  33.9520502  61.9274426   8.0284458  33.5485959  62.6575708   7.5590116
  33.7167859  61.1539602   7.5159961  56.1005259  42.0608997  13.4952831
  55.1885700  41.7717171  13.4645391  56.3060808  42.1061802  14.4290543
  28.8204408  52.0392847  33.0392909  28.7445593  51.1258459  32.7634215
  28.0412960  52.1936703  33.5734558  57.5664043  71.7059660  16.6005898
  56.8653870  72.1258593  16.1020982  58.2899714  71.6295767  15.9786189
  51.9144869  56.8825865  12.8984654  52.1323776  57.6582098  13.4153402
  51.7006254  56.2136555  13.5488701  27.1359634  47.5082350  32.8291702
  26.5594625  47.4984503  33.5932255  26.5672636  47.2701454  32.0969629
  11.1253667  28.7915111  19.3521690  11.0032058  27.9314137  18.9502490
  11.8055427  28.6534238  20.0113535  41.1466026  54.1675282  36.0074186
  41.6789961  53.7499142  35.3303766  40.3156328  53.6929464  35.9853363
  29.8944831  67.9727030   3.9809221  29.1127872  67.8117085   3.4524679
  30.6210756  67.9004002   3.3619982  72.5486040  66.8928862   2.8865886
  73.0464649  67.1354151   3.6673209  73.2058430  66.5527344   2.2794929
  50.9787607  65.7333851  15.9895670  51.6218424  65.6892014  15.2819467
  50.6647491  66.6374397  15.9717309  62.4972820  44.3885708  22.5434017
  62.2170925  45.1292562  23.0810905  61.9711781  43.6527538  22.8564835
  10.1224566  59.9500418  40.4391813  10.1477826  59.0629244  40.7978153
  10.1082003  59.8244858  39.4903612  41.8264580  42.0312405  35.9214187
  42.1208525  41.1529016  35.6804013  42.3243570  42.6159239  35.3500462
  95.3827095   5.5850708  87.3046398  95.6645775   4.7890198  87.7552891
  94.5909119   5.8557981  87.7693844  38.1924057  70.2640963  33.0969858
  39.0033627  70.4076529  33.5848093  38.0101991  69.3305826  33.2046342
  39.5223403  56.5986872  34.6387649  39.8870373  56.3954067  35.5001020
  39.1721773  55.7652378  34.3241596  52.0866871  31.5251064  43.4286165
  51.2535334  31.4596009  42.9619312  52.5291538  32.2718763  43.0251360
  46.9308949  62.9218864  16.8286788  47.3870087  63.5439253  16.2618804
  46.6393280  62.2281170  16.2371516  57.1230984  39.3232441  53.3476877
  56.6307545  38.5122609  53.4747171  56.8300772  39.8949742  54.0572643
  25.5471420  64.7488499  31.8328190  26.1008668  64.8140574  32.6108718
  26.1067557  65.0452805  31.1150503  14.9229753  57.3988914  12.5714433
  14.4333327  58.1875467  12.8049076  14.2942476  56.8599653  12.0913494
  18.2853520  39.9179626  81.2626362  19.0497482  39.9023604  80.6867123
  17.8232908  40.7220602  81.0256577  41.5787840  44.9308205  15.0871837
  41.0519028  44.5077372  15.7651424  41.7088223  45.8235264  15.4071784
  39.5338058  60.8191299  38.4284115  40.4000807  60.5632734  38.7451696
  38.9278603  60.4778528  39.0861273  38.5432863  45.9981394  13.5718226
  38.7269235  45.3314066  14.2336226  37.8020883  46.4894485  13.9260435
  40.1765108  61.6109467   6.9021988  40.2026176  61.8818855   7.8198820
  40.8400965  60.9242630   6.8362373   2.4486125  68.3872986  24.5609546
   2.5087738  67.7176380  23.8796592   2.2226048  69.1890621  24.0894318
  15.8135962  39.1395664  43.5589600  15.1657081  39.8441601  43.5638189
  16.5643311  39.5077157  43.0930233  55.8134985  59.0929222  17.1025002
  55.8481789  59.5364332  16.2549579  54.9945831  59.3933153  17.4966824
  45.6969738  56.3807821  41.6767502  46.2381124  56.7871761  42.3536873
  44.9515200  56.0154867  42.1532869  53.5309553  65.4682684  26.0157275
  53.1674051  66.2552309  26.4216256  53.9634943  65.0063467  26.7338991
   7.2100323   2.8956494  90.9579945   7.0635015   3.3409458  91.7925453
   6.3315737   2.6854640  90.6411934  61.9787550  41.5585375  31.5177155
  62.3211288  42.2395039  30.9386683  62.3225164  40.7416153  31.1561847
  48.8662291  57.6984024  19.4568455  48.8213015  56.7755985  19.2065549
  48.7448645  57.6952267  20.4063153  54.0726089  41.4215136  56.1822319
  53.3068275  41.2315798  56.7242050  54.0562248  42.3718643  56.0691214
 108.5259724  55.5880165  38.2976079 109.4706726  55.7132196  38.3876467
 108.2940102  54.9938393  39.0113163  11.1826444  40.6931448  40.2784824
  11.0153723  39.8928261  40.7762146  11.4498615  41.3337088  40.9376526
  34.3791580  49.3832779  38.9334273  34.5402741  50.1915073  39.4202924
  33.4434295  49.4067717  38.7331915  49.4955301  33.4981203  15.3546119
  49.8988199  34.0927291  14.7221303  48.6096144  33.8403702  15.4739606
  36.0177875  39.8890758  32.1467900  35.9994745  40.3524685  31.3094330
  36.4527011  40.4952240  32.7465129  55.9237528  41.3167667  40.4564381
  56.3069344  40.5383348  40.0521564  55.3685856  40.9742069  41.1569166
  39.7655129  45.7673979  62.0347404  38.9403534  45.4567051  62.4073124
  39.5453906  46.0120487  61.1358929  65.8873796  51.8743086  21.8099785
  66.6163826  51.7638445  22.4203777  66.2068176  51.5060234  20.9862328
  32.3135185  36.8828654  20.5216932  32.7039719  36.0093307  20.5484700
  33.0619597  37.4792385  20.5015469  62.7264595  36.0141087  10.3254783
  61.9972801  35.9317732   9.7108638  63.2553291  35.2304029  10.1760304
  68.6047459  38.3309031  23.7581277  69.5196772  38.0505657  23.7346601
  68.5907793  39.1452193  23.2552099  44.4632149  28.5285544  18.7233710
  45.2988815  28.7429476  19.1380155  44.0540504  29.3775749  18.5560989
  63.3232880  38.1720757  46.2974596  62.8513288  37.3758364  46.0535574
  63.7616348  38.4468699  45.4921198  46.7050695  60.1046896  28.9917183
  46.3929605  60.3172350  29.8712897  47.0899773  60.9201431  28.6706018
  13.4316552  50.4716015  42.1095562  14.2426848  50.8510637  41.7712212
  13.7140834  49.9012709  42.8245306  34.7316289  41.0851669  35.6863904
  34.8702240  40.8251858  36.5971231  33.9063215  41.5698814  35.6986213
  43.1438160  35.4837632  25.0424004  43.7062359  35.0125432  25.6571102
  42.5443125  35.9808064  25.5989718  28.9780188  49.4020271  38.0289149
  28.7657976  49.3772697  38.9619637  29.5902419  50.1326656  37.9418397
  86.7591858  85.8263111  27.1656346  85.9661198  86.2374020  27.5095677
  86.5401936  85.6030273  26.2609696  36.1686158  57.2507668  27.5861382
  35.4929185  56.7136002  27.1724772  36.9785142  56.7566490  27.4590707
  50.0077724  56.4957809  37.3433542  49.5530891  55.6708813  37.5137639
  50.3819466  56.3868475  36.4690781  42.5122309  50.2438307  13.3252633
  41.8166542  49.6602249  13.6282527  42.7793980  50.7248688  14.1084981
  54.5393610  59.1554117  32.9298830  55.0078535  58.3229733  32.8682399
  54.8403025  59.5391941  33.7535191  49.1307926  59.4300175  37.0205760
  49.6460581  59.9431849  37.6429868  48.8431597  58.6659670  37.5202990
  46.1403227  53.4079409  16.2496424  45.8192587  52.6977110  15.6940150
  46.2140083  53.0165052  17.1200335  18.1508243  41.8951273  35.2655077
  17.7967358  41.4936161  36.0590076  17.3802185  42.2035313  34.7887635
  71.7363071  21.3463068  45.1718330  71.2979031  21.4933729  46.0099268
  72.3840380  22.0486712  45.1138592  41.0756969  47.5997591  30.5069208
  41.9948292  47.8664780  30.4898190  40.7553577  47.7875280  29.6246743
  20.8167768  57.4293518  21.3609338  20.6392527  57.0374298  20.5058789
  20.5693197  56.7523479  21.9907427  38.2791471  42.7586365  24.5671391
  38.5766053  42.0004940  25.0701070  38.9921689  42.9332638  23.9528632
  52.8474092  58.0081940  35.3454137  52.1373987  58.2744980  35.9295392
  53.5197735  58.6790228  35.4643607  82.4117565  43.6900997   7.4376851
  82.9028988  44.5112038   7.4659705  82.4036217  43.3845139   8.3447587
  40.2022696  47.2903681  36.6222596  39.3652892  47.4582958  36.1892509
  40.6783104  48.1178665  36.5524769  23.0256057  32.9320741  29.4520569
  23.3162689  32.0223498  29.5164585  23.8180137  33.4478378  29.6014166
  70.6213951  38.2723188  21.4658237  70.0990868  38.9543676  21.0436440
  71.2129784  38.7494183  22.0477462  31.7716312  23.3427477  36.5391564
  32.2592115  23.9608455  37.0836282  32.2560310  23.3166003  35.7139850
  38.2974815  28.2581472  31.8551183  38.1083989  27.9605675  30.9652162
  38.5422778  29.1778827  31.7531729  45.5093718  28.0367637  41.2947321
  44.5576763  28.0128980  41.1950397  45.8246088  27.3085546  40.7594109
  37.8053308  46.7432976  38.7822437  37.0012498  47.0292377  39.2157435
  37.5659657  46.6689491  37.8584409  58.8226223  28.5565805  32.6984382
  58.4581804  29.0944123  31.9954777  58.2109690  27.8250575  32.7819920
  27.9295015  17.8823364  16.4360797  28.7561274  18.3647370  16.4507186
  27.3215199  18.4627998  15.9782040  75.4601812  72.2160339  16.0750425
  75.2785444  72.2087526  15.1352620  75.8269310  71.3503504  16.2548161
  72.5560284   9.6034652  59.4513369  72.2481823  10.5091238  59.4160128
  72.9308987   9.4439626  58.5851574   5.5561733  78.9589071  36.1279869
   5.6088948  79.7806406  36.6160488   6.2777144  79.0061378  35.5007863
  28.4697556  42.5122452  47.9055357  27.9880691  41.7769623  48.2844448
  28.7241983  43.0454540  48.6586475  43.8520622  48.7517929   3.1746072
  43.3362389  48.0718708   2.7411780  44.7391176  48.6322689   2.8353700
   8.9259857  35.5007744  46.9910431   8.0666590  35.5921245  46.5794039
   8.7972581  34.8380995  47.6696587 102.7507877 102.1763229  70.7878637
 102.9127979 101.9951630  69.8620319 103.6236286 102.2491932  71.1739635
  48.7264061  62.8252172  18.9436877  47.9546928  62.6082516  18.4206033
  49.4201422  62.9671526  18.2996237  90.3823376  95.3095055  88.7364388
  90.2335167  95.2277470  89.6784592  91.3077641  95.5416298  88.6594105
  50.7498646  73.2189226  26.7192531  50.0400639  73.6521912  26.2452364
  50.3763914  73.0163527  27.5769925  69.3434620  71.6921282  10.2939284
  68.7164211  72.1875763  10.8207870  69.7302341  71.0669804  10.9069753
  58.2798100  77.5613308  28.3286476  57.9420280  78.4569073  28.3370757
  57.6319075  77.0563459  28.8200188  72.3334980  77.5752687  16.9181764
  72.7892590  77.3685026  16.1022341  72.9079819  77.2379780  17.6055145
  86.9609356  58.8045549  51.8906832  86.2967682  58.1161642  51.9258738
  87.7736473  58.3429241  51.6842222  70.7967806  44.6153116   6.2405008
  70.9686565  43.9644051   6.9209468  70.4751682  44.1053820   5.4970169
  51.5584803  30.8661675  23.2849145  51.8391848  31.4391088  23.9984798
  52.1463490  30.1125836  23.3374429  70.1250076  59.0424538  23.9193487
  69.2659235  59.4251490  23.7411594  69.9429703  58.3072901  24.5046926
  50.9017229  63.3695459  17.2293258  50.9463024  64.2405319  16.8348241
  51.4957047  63.4152699  17.9785419  68.3265257  77.5044584   8.8350362
  67.7863359  77.3961067   8.0522931  68.3712196  76.6284943   9.2183429
  65.8763123  80.8982086   2.8007340  66.4848518  80.7409286   3.5226583
  66.3202763  80.5417538   2.0312740  71.6600370  86.9309902  21.8474960
  70.7210588  86.9392490  21.6618085  71.9280624  86.0262871  21.6865849
 109.3358135  71.5536976  23.5502267 108.6734104  71.1454916  24.1077375
 109.8421764  72.1065140  24.1453981  95.3122997  23.3837485  24.9842858
  95.8020878  23.3757353  25.8066487  94.6499252  22.7014065  25.0933552
 100.7772350  27.4923229  88.5073376  99.9347496  27.9414845  88.4387684
 101.1857033  27.8671670  89.2876434  52.8131866  82.2262096  11.0373616
  52.3988199  81.8726730  10.2502477  52.0836115  82.5393391  11.5720582
  91.1837673 100.1913738  16.8725073  91.3803005  99.8623562  15.9953785
  90.2304840 100.1376724  16.9404280  61.2067366  56.8003225  19.3895996
  60.7153368  57.5515842  19.0573895  61.2835455  56.9612598  20.3300428
 116.1719179  59.1100121  94.3233490 116.0963086  58.8053846  93.4190655
 116.3203818  60.0525331  94.2469501 111.3802433   3.8447019  12.5283623
 112.1260166   3.3909938  12.1356595 110.6717205   3.2013687  12.5099015
  89.5359516  79.5458651  52.5052595  89.1015434  80.3809547  52.3316193
  89.6186543  79.5125198  53.4582996  75.7969141  89.6554470  34.2073965
  75.5894995  89.9141693  35.1053214  76.5345669  90.2137375  33.9616013
  66.0205317  82.1915627  32.8582001  66.0816431  83.0503082  32.4398065
  66.1279535  82.3719501  33.7920904   5.0800216  19.8133039  26.4054203
   4.9366313  18.9138746  26.1109757   5.4177964  20.2671218  25.6332874
  28.2292199  34.7131300  75.1806450  29.1013622  34.3788815  75.3901196
  28.3929062  35.5131412  74.6812248  81.1646557  62.7550793  32.3916912
  80.5503750  62.8378582  31.6622829  81.9439411  63.2304621  32.1036649
  58.4649420 104.6090508  32.5270414  58.5255909 104.5714188  31.5725064
  57.5265312 104.6714973  32.7051353  69.3608522  70.4705429  33.7733531
  68.8569260  71.0663128  34.3277454  68.7295341  70.1521063  33.1281710
  64.8512602  75.2367544  23.9266205  65.3908491  75.2625465  24.7168159
  64.5377398  74.3335533  23.8800573  89.7891998  10.7388031  43.4481001
  89.9711037  11.6580582  43.2528782  89.6472645  10.7184780  44.3944979
 102.7248096  84.6785259  67.4446106 102.0747471  83.9817238  67.5347185
 103.5530281  84.2667484  67.6910496  54.7724676 103.2908058  38.2554340
  54.8679638 104.2358398  38.3739018  54.3644333 102.9877663  39.0665483
  70.5376530  75.2930403  35.0148749  71.1533833  74.9753761  35.6753278
  71.0875893  75.5245638  34.2664099  33.1489182  75.4324198  31.2600064
  33.6536646  74.6573734  31.0134888  32.4795103  75.5085421  30.5800557
 107.6947021  17.7920043  46.9788122 107.4487114  18.6838841  47.2243166
 108.6315155  17.7410901  47.1686172  79.3724442  99.5790768  50.7839251
  78.4650326  99.6517658  51.0798168  79.6468925 100.4828644  50.6287527
  64.6873808 104.2867661   9.9167085  65.5611801 104.5754051  10.1801324
  64.0920162 104.7789192  10.4820037  66.2541866  85.1147842  21.0367131
  66.2609816  86.0583305  20.8757210  66.5808105  84.7306347  20.2230954
  30.1636982 107.3828220  43.2435179  29.2793226 107.2095108  42.9209137
  30.7135653 106.7438889  42.7900553  92.3607731  95.2589130  34.3602872
  92.1310616  95.7966614  33.6024642  92.0183468  94.3901157  34.1501236
  45.1043606  95.6048203   4.8233795  44.7805166  95.6896210   3.9266267
  45.4015207  94.6970654   4.8858809 100.3106308  97.8977776  17.0321119
  99.4088078  98.1326485  16.8135440 100.5079174  98.4093094  17.8167415
  75.2645826 106.9211292  36.6168380  75.3849792 107.4559879  37.4014759
  76.0435820 106.3658905  36.5836072  62.7318668   0.0964391  67.8111506
  63.2282495   0.9084378  67.7087164  62.2737074  -0.0109768  66.9776106
  15.6668079 108.0874729  24.2979074  16.0085738 107.9006386  23.4235382
  16.0535181 107.4123764  24.8555160 115.9903840 105.7521152  41.7161274
 115.8755125 105.6716919  42.6629972 116.8285021 105.3248501  41.5393925
 100.9892082   7.3284191  19.5628095 101.1292553   6.7030978  18.8517582
 101.8003654   7.8353083  19.5992160  65.7900238  60.6091499  25.7669115
  65.0513363  60.2994156  26.2909698  65.7241583  60.1193905  24.9471378
  44.2142153  98.0145741  26.6160679  45.1625586  97.9513836  26.5025759
  43.8540506  97.7668953  25.7645011 100.4538631  88.0512047  29.2256975
 100.4811954  87.4370575  29.9593973 100.9957314  87.6423645  28.5508204
 105.9399223  94.3763924  50.1423597 105.1816654  94.2691231  49.5681047
 106.6085434  93.8043499  49.7655964  41.1406755  33.8861370  89.8300266
  40.7248974  33.6120892  90.6474972  41.5362263  33.0866599  89.4827461
  37.1241283 101.8840885   9.3384391  37.4108028 101.9442844  10.2497160
  36.7459702 101.0079384   9.2636937 100.8729744  11.8291652  25.4480243
 101.0280800  11.8275249  24.5034766 100.8875275  12.7547610  25.6915259
  45.1044559  85.5725861   4.0622702  45.0912523  84.7055912   4.4677046
  45.9895802  85.6578732   3.7079963  56.7316151 102.1251297  40.7360554
  56.1456633 101.9071579  41.4608908  56.4950037 101.5086460  40.0430965
  15.9987700   4.2933160  28.6159110  15.6182492   3.4429309  28.3961821
  16.2069786   4.6884936  27.7693200 106.6211987  84.9607468  51.8372583
 106.3776970  84.4788647  52.6276541 106.4929485  84.3337727  51.1254406
  32.1382546  88.3323288  18.7710524  32.6275039  87.5418091  18.9989805
  31.4060807  88.3469200  19.3874454  68.2631969  69.2979956  25.6414413
  68.1783104  69.0596724  26.5646052  67.3689747  69.4931984  25.3612709
  63.4068871  93.5197067  36.7613459  63.1357527  93.9055347  35.9283662
  62.8184032  92.7746487  36.8830252  77.0637798  58.0368376  55.0687742
  76.9973707  58.9558268  55.3281593  76.1718082  57.7926016  54.8218584
   5.6836492  39.4369674  18.5637188   6.0401183  38.7995481  19.1824734
   6.4541018  39.8646069  18.1898749  54.0172625  74.5303106  32.0740175
  54.6220303  74.8325729  31.3964295  53.4510708  75.2833843  32.2429585
  73.3327055  97.1686745  47.8094816  73.0617237  97.0299149  46.9019842
  73.4808445  96.2874508  48.1526184  73.1582308  87.1833134  48.4916782
  73.9950752  86.9830036  48.9109659  72.5686121  87.3852539  49.2181730
  84.8264599 108.9968586  35.8869934  84.8970127 108.8611221  36.8318915
  84.0074635 108.5653591  35.6435227  76.0282564 104.5252991  27.4460244
  76.3640976 104.8383236  26.6061115  75.1011610 104.7632980  27.4369812
 109.6817970  24.8128772  22.3128080 109.4497204  24.3549824  23.1207108
 110.4338169  25.3545833  22.5520778  59.4413662  66.5840197  29.9305224
  59.6072817  65.8515692  29.3370390  58.5660267  66.4159870  30.2794838
  86.9086647  56.6361380  10.5157077  86.9736195  57.5804567  10.3733099
  87.0715046  56.5233755  11.4521885  82.4750042  83.9832878  14.3679941
  81.9396305  84.4957066  14.9738240  82.8637505  83.2985401  14.9122691
  88.3817959  87.3765087  43.2978201  88.8001156  88.2373619  43.2846308
  87.7781582  87.4148941  44.0396976  71.9677353  59.0133238  59.7116423
  71.6484261  58.5958529  60.5116367  72.8315496  59.3521690  59.9466705
  46.6372395  90.9433746  26.4323354  46.8170309  91.5909863  27.1138763
  45.8296442  91.2485886  26.0189748  61.5382576 103.2341957  28.4440017
  60.9460783 102.4884033  28.5406399  62.3084974 102.8731537  28.0051255
  79.6044683 107.9594421  50.0304127  80.0485325 108.0978394  49.1938210
  80.2902985 107.6370430  50.6151628  82.9564381  75.0519514  24.0054512
  83.6844635  74.9664831  24.6210051  82.5329876  75.8753681  24.2481589
  89.0534496   2.4454157  16.0373807  89.8317528   1.9379835  16.2675953
  88.7991619   2.1160918  15.1753402  40.8223438  78.3273125  57.6812363
  40.9677505  77.3970032  57.8533173  40.7461405  78.3856726  56.7288589
  74.1079426  91.3878155  39.6621323  74.6037054  91.0575104  40.4113626
  73.7097263  92.1991825  39.9773407  12.4243486  11.9857323  53.1889963
  12.8775752  12.7514851  52.8362370  11.7734790  11.7646968  52.5228548
  68.3179951 100.1773643  44.5864916  68.3067751 100.8733654  43.9294672
  67.6008368 100.3975868  45.1809740  62.7982140  75.1582575  52.2424793
  62.2168541  74.3985558  52.2757864  63.6326933  74.8364019  52.5834846
  26.5084147  90.9706783  32.8108573  25.9897280  91.4475060  32.1629167
  27.4145794  91.2080002  32.6139355   9.7702938   0.7902547   4.2080587
   9.5330238   0.9315412   3.2915583   9.3837035   1.5324676   4.6727085
  23.5470247  36.4093375  85.0725174  23.3335757  36.8898487  84.2726612
  24.0104413  37.0452952  85.6175232  74.3838882  95.7044315  32.1912551
  73.9850426  96.3424492  31.5995693  75.3195143  95.7467461  31.9936633
  44.3168354 108.7559509   7.9277509  44.9647045 109.0454102   7.2853267
  44.8078728 108.1928253   8.5260916  93.4219360   5.8854014  27.0890331
  93.5808182   5.5919272  27.9861736  94.2960453   6.0002208  26.7162371
  50.3738737 108.6721516  36.8292618  50.4512167 107.7620792  36.5428662
  51.2519979 108.9034271  37.1319795  31.8403864  81.8629932  30.9373713
  32.3909187  82.5927162  31.2213469  31.0144114  81.9903564  31.4040351
   0.6366316  16.8861377  16.8522370   1.3403788  16.2670386  16.6581035
   0.2597689  16.5705121  17.6735699  67.2967577  90.3310871   5.9028262
  67.4827719  89.6648502   6.5644670  66.4003992  90.6102753   6.0894549
 105.2192116  34.8440552  62.2178459 105.3926945  35.6132483  62.7605057
 106.0718060  34.4188666  62.1254873  80.0110817  93.6510944   3.6131763
  79.7754478  92.9280853   3.0318233  80.7678890  94.0595055   3.1928533
   2.6972869  21.5900588  52.0382309   3.1422395  21.6012073  51.1908054
   1.8468413  21.1899114  51.8569660  85.8853149  79.9889183  21.4128613
  86.2353897  79.1765785  21.0470891  85.2195740  79.7026634  22.0382261
  19.5329535  59.2488909  88.3524990  18.7599003  59.3339968  87.7944851
  19.1891003  58.9490652  89.1939831  79.8085260  97.8072643  48.7013769
  79.6936703  98.5665131  49.2728567  79.2783928  98.0060387  47.9295731
 109.4887924  37.1399784  24.3709278 108.6655903  37.4917150  24.0320325
 110.0715065  37.8978753  24.4185805  63.9865160  89.2434692  41.6294098
  63.0771112  89.4318295  41.8612242  64.0337610  89.4124889  40.6884336
  18.9994645  64.9147892  90.1850986  19.3554771  65.1225376  91.0490036
  18.7046826  64.0071487  90.2594662  74.1402054  18.6202145   4.7794566
  73.5737896  18.1487501   4.1686150  74.8125982  17.9837835   5.0224990
  50.3441238  62.0298958  21.0008717  49.7893381  62.1216822  20.2262616
  51.2379122  62.0935631  20.6642389  53.3541965  91.1502457   8.2994342
  52.8352547  90.7346439   8.9880627  52.8323889  91.9058895   8.0293292
  72.9618168  79.7068882  35.5277133  73.5348797  80.3772163  35.8998537
  72.5695658  79.2779922  36.2882519  19.7038782  93.5497284   2.3586635
  19.1925251  92.8010654   2.6656824  19.6374178  93.5100937   1.4045963
 109.2436981   2.7393383  77.5625038 108.3973312   3.0905044  77.8392410
 109.8447227   3.4811744  77.6308775   3.0707002   2.7527040  57.8819609
   2.7111942   3.2099169  57.1217346   2.5323749   3.0485904  58.6160517
  75.7190752  68.3365917   4.5898241  75.5524921  67.7649593   3.8403445
  76.2148523  67.7917719   5.2010596  64.8323488  72.6132917  81.2447739
  63.9703846  72.9255152  80.9695148  65.1714420  72.1434593  80.4828644
  24.2807603 101.1095047  33.3009720  23.8909435 100.3254986  33.6877632
  25.1167798 100.8100033  32.9437518  95.1303768  86.8854713   1.7454304
  95.4580879  86.7886448   0.8513033  94.8551750  87.8005219   1.8018776
 112.2334862  16.2532258  29.0442729 112.5982380  16.9292462  29.6153951
 112.5810623  15.4322219  29.3926620 110.5751324   7.3030502  61.5800285
 110.6805706   7.2749162  62.5309896 109.7926140   7.8366274  61.4414978
  67.1348429  80.9610653   6.6207510  67.7084064  81.4933300   7.1720725
  67.5998497  80.8930016   5.7868636  30.9603667 107.7099133  65.5399847
  31.1435795 108.0403233  64.6604967  31.8216848 107.6286602  65.9495640
  64.0319014 100.6240368  43.7631559  64.3965054 101.0690784  42.9981470
  64.7972250 100.3129387  44.2466116  76.7348337  95.3172779  78.6464214
  77.2036171  95.5438995  79.4496155  76.3157368  96.1339760  78.3751583
  38.0553961  68.3102369   7.9228038  37.3749161  68.2395601   8.5922688
  38.1241274  67.4283171   7.5571102  61.6674757  81.2887001  33.2792544
  61.8215704  80.4194450  33.6492372  61.3280487  81.8037987  34.0111661
  11.5028679  43.5996056  77.5026369  11.1026156  44.4151449  77.8041744
  10.9361160  43.3037329  76.7902565  25.1907349  24.1954255  92.3226643
  25.0352001  23.9789557  93.2419968  24.7620535  23.4920168  91.8351364
  89.8855972  81.4084339  33.7169480  90.2714825  80.6723404  33.2421017
  90.2656174  81.3534927  34.5937586  96.7638493  56.0623360  41.4986420
  97.2296333  55.2701330  41.2309027  95.8388519  55.8179522  41.4687920
 110.3431892  63.7155628  39.5372891 110.4701900  64.6574593  39.6510124
 111.1299133  63.4215164  39.0781236  84.3616009  97.0021725  34.1271400
  83.6990547  96.4665127  34.5634079  85.1678658  96.8286037  34.6129751
  59.4222498  78.4946871  50.5530262  59.9228430  79.3098021  50.5180264
  58.5087156  78.7713814  50.4814482 113.7343025   6.8797886  22.7109385
 114.4795609   6.9034290  23.3111596 113.7734604   6.0093582  22.3146439
  85.7438278  14.5980334  42.9607344  86.1694431  14.3569219  43.7835026
  86.2847900  14.1921926  42.2833252  31.3755560  41.5908718  47.6478815
  31.5145659  42.0036507  46.7955160  30.5605483  41.9756508  47.9702759
  58.0135775  89.5198536  24.7694540  57.3057175  90.1584339  24.8553228
  57.8768063  89.1250324  23.9082694  68.0149412 102.3982620  20.6709790
  67.8529787 103.2766056  20.3267193  68.4572983 101.9390106  19.9570870
 105.5484962   7.0998812  72.2956419 105.1909733   7.9780322  72.4270201
 105.4691887   6.9473970  71.3539982 112.1980953  12.0626879  16.7350757
 112.6068401  12.8818679  17.0145547 112.3578453  11.4563644  17.4583209
  46.8686485  61.1713696  14.4396079  47.5693321  61.4682817  13.8589859
  46.7472553  60.2485847  14.2160892  88.9692307   5.2996355  22.1542954
  88.3483791   5.1226687  22.8610158  89.2441463   6.2051511  22.2981548
  82.3360348  93.7115192  67.0157957  82.3141670  93.5850430  66.0672426
  83.2649517  93.6658192  67.2421741  65.3947735  70.3181362  34.7500300
  65.9026432  70.2587891  33.9408469  64.8549604  71.1005020  34.6371722
  73.5223961  85.7467651   0.8144813  73.0748177  85.2017689   0.1672714
  74.2754602  86.1060429   0.3453909  98.9640999   3.0719963  58.3264446
  98.3920670   3.8363916  58.3950233  99.8280716   3.3957559  58.5813475
  65.3776503   1.1102182   5.8247006  65.8612728   0.4218573   5.3680801
  65.1852894   0.7374024   6.6850710  68.2088947  77.7462721   6.1788642
  67.7152395  78.0227613   5.4067934  68.7805891  78.4882545   6.3759840
   8.4039241  67.1450233  91.5028763   8.6914515  66.5227699  92.1709824
   7.9689986  67.8411674  91.9952774  78.1421328   3.9040607  16.2645173
  78.0459070   3.9918503  17.2128129  78.8523674   4.5049179  16.0391986
  64.6057081 101.2178707  41.1201668  64.1893578 102.0652199  40.9623814
  65.4551983 101.2834835  40.6839466  74.6255064 102.0254993  52.0389032
  73.8444519 101.7167473  52.4980974  75.2394772 101.2930298  52.0914459
  20.0757003  31.8730593  94.8542404  19.8061061  32.0890856  93.9615536
  19.2557240  31.7004681  95.3169346  97.2167778  55.2641821  21.5564466
  96.8524265  54.5321989  21.0587645  96.5055561  55.5374575  22.1358538
  25.2507520  48.1612158  88.0365086  24.7884321  48.7297010  88.6523914
  25.2898121  47.3123550  88.4771156 113.3132172  50.1126194  73.3060932
 113.8481045  50.4157782  74.0397263 113.2118225  49.1726732  73.4559345
  64.4264078 101.3243389  22.8440571  64.4049978 101.7080116  23.7207365
  65.3568649 101.1897182  22.6641870   5.4051667   1.3588731  68.4018850
   6.1924660   1.8543905  68.6273956   5.5681294   1.0415098  67.5136566
  70.6467724  76.8768740   1.8883114  70.6897640  76.7600632   0.9392388
  70.4546738  77.8070974   2.0066805  79.9290323  63.2145405  49.4729519
  80.0555992  64.0682888  49.0590382  80.1444054  62.5818539  48.7877131
  74.4756365 107.6531315  41.8741179  74.4733906 108.6058998  41.9660807
  73.5840702 107.3885345  42.1006823   1.4553657  26.2190723  31.8117332
   1.7049752  25.4815507  32.3685002   1.9779304  26.9521999  32.1368194
  62.7261114 103.3743286  44.2034721  62.6800060 104.2047787  44.6772385
  63.5363817 102.9678822  44.5108747   6.9079900  21.6564488  42.4448633
   6.8189752  20.9841371  41.7693615   6.3359594  21.3613582  43.1533337
  69.9262381  11.8265700  57.9067659  70.7577372  11.7248154  58.3698940
  69.4319916  12.4520922  58.4365511  67.4801159  34.9944925  20.3661323
  66.7202568  34.4176674  20.2878952  67.7258348  34.9429750  21.2898183
  31.5171051   2.0547549  40.8854866  32.4654365   2.1815339  40.9142160
  31.2238717   2.2375602  41.7781401   9.7696310   1.7559944  37.9686117
   9.4472533   2.5552583  37.5520992  10.7163298   1.7782325  37.8289771
  18.2259846  40.0615263  54.2246914  17.5128615  40.6422520  54.4901037
  18.2736218  40.1598549  53.2737494   5.4225856  96.0206127  25.4937840
   5.3577399  96.8853855  25.0885653   4.6983656  95.5231857  25.1139069
  91.9491863  99.9122429  50.5410480  92.7165604  99.9727440  51.1099911
  91.8813324  98.9813995  50.3285742  75.9794331  86.9632339  40.9102583
  76.5495968  87.5220490  41.4383411  76.0496044  86.0987282  41.3151646
  50.0827694  26.3671899  86.3932037  50.7075739  27.0871067  86.3061714
  49.9838829  26.0270572  85.5039597 103.7109089 100.4789734  50.4879284
 103.7904930 100.7430649  51.4045286 102.8084755 100.6957150  50.2537107
   0.9242223  17.8037655  39.7587657   1.5693356  17.2790933  40.2328730
   0.3247121  17.1610320  39.3796682   7.0110267  96.5351486  68.4230614
   7.3557490  95.7357597  68.8210201   6.1175418  96.3083076  68.1652689
  81.2370396 100.4240513  29.7756433  81.8642139 100.3663254  29.0548444
  81.7139053 100.8748055  30.4725313  70.6534624  62.3166370  55.3212309
  71.5309381  62.4379539  54.9585390  70.2790833  61.6005754  54.8080730
  72.0555305  99.4921112  16.5695345  71.1917973  99.6831512  16.9351828
  72.4160671 100.3501511  16.3459051 115.1383400  15.6259131  27.7254248
 115.2985954  16.1706090  28.4960437 114.2398357  15.8329690  27.4684238
  13.8164973   2.6671910  27.7058673  13.2693160   3.4518263  27.7401018
  13.5118902   2.1964279  26.9300914  86.9433022  81.0788059  46.7042971
  87.7998161  81.4648342  46.8876266  86.6272259  81.5517998  45.9344959
  42.8500032  53.6880445  90.8268833  43.6797953  53.2253075  90.7104683
  42.9857874  54.2317581  91.6028786  25.3434086  28.4587145  68.5574484
  26.0788488  28.0695629  69.0306473  25.2917290  27.9592514  67.7425289
 102.8296852 103.6902142  31.1027145 102.7246189 104.4866085  30.5821824
 102.7932072 103.9910030  32.0106959  28.3505964   3.7528464  92.9814339
  28.9992547   3.0765352  93.1765556  27.6248455   3.5677221  93.5774612
 105.8045864  12.2879136  53.1244183 104.8820782  12.0351577  53.1606960
 105.7883644  13.2395172  53.0223513  -0.0456560   9.6007699  38.4664297
   0.1586896  10.4595327  38.8365650   0.6312871   9.0217417  38.8167238
  78.8969421  85.0671673  25.7350683  79.6720982  85.1332092  26.2927485
  79.2371225  85.1358509  24.8429966  13.0565548   3.2118729  34.0302610
  12.6243913   2.3579817  34.0119433  12.5336111   3.7319419  34.6404147
 111.4081287   5.8068955  46.0403633 110.6606579   5.2307761  46.2003803
 112.1734333   5.2428871  46.1518764  74.0589523  75.7567596  21.6440058
  74.6668005  75.1444435  21.2294865  74.2128658  75.6486034  22.5825381
 104.2481041   1.9838074   4.7863811 103.4263039   1.5229073   4.9550468
 104.1947269   2.7734286   5.3247869  13.8397408   7.0501602  24.0470648
  13.2944274   7.6894557  23.5886264  13.7651241   6.2523836  23.5234070
  53.5833693  98.2165051  42.8780079  54.2969084  98.2012081  42.2401476
  52.7939606  98.0660725  42.3579693  12.8705573  11.2503910  45.0642872
  13.8042986  11.1081684  44.9089479  12.6556206  10.6613243  45.7874966
  71.6991901  95.4475594  25.3782749  71.4598417  95.0142193  24.5590329
  71.8548250  94.7299099  25.9922600   5.4155779  53.2736731  93.9507008
   5.0274491  52.6424503  93.3447742   5.7255238  52.7423143  94.6840668
  33.2487583  88.7241936  28.8542223  33.9729190  89.3320370  28.7046981
  33.4355330  87.9828262  28.2782745  94.4799137  10.0434446  70.0484562
  95.1188755   9.4368815  70.4226923  94.1901398   9.6181911  69.2413521
  58.4034300  89.3533516  16.0677946  58.1408978  90.2453327  15.8404672
  58.4506464  88.8962364  15.2281272 105.5161095   3.9997205  36.8411088
 106.1859608   3.7839940  36.1922741 105.8358192   3.6091125  37.6543975
  82.7668381  97.4460030  53.6905718  83.6655807  97.7545166  53.5752010
  82.8524399  96.5012074  53.8180828  88.8684940  96.9094086  30.2280283
  88.3529663  97.7102852  30.3231335  88.2172489  96.2180614  30.1090717
  91.0033798  99.0122890  33.1273270  90.2836800  99.5159149  32.7470446
  91.7471695  99.6147537  33.1204081 112.3111629 108.1773090  93.9539814
 112.9919624 107.5237465  94.1139412 112.3611641 108.3500767  93.0138302
  55.5656338  81.7390823  17.1768034  55.4640150  82.6908779  17.1796405
  54.6738815  81.4032745  17.0860207  90.1228905  70.7019901   1.0290339
  90.0779533  69.9999428   0.3799278  90.5094337  70.2895784   1.8015179
  81.8119907   9.5721281  36.2535191  82.7177238   9.5880091  35.9442663
  81.3048649   9.9370247  35.5283308  93.5478592 102.0170212  55.5583906
  92.9171562 102.6407337  55.1986027  93.9519405 102.4810314  56.2916327
  81.5029621  75.6795740  30.0038600  82.1205044  74.9520969  29.9286914
  81.4492512  76.0405636  29.1189671  12.2049546  74.6717882  92.3679066
  12.5095153  74.9650002  91.5091324  12.4011517  75.4026985  92.9540062
  67.6075649  79.5877123  15.5666125  66.9995546  80.3072166  15.7365298
  68.4150696  80.0178814  15.2853227  69.0780306  95.1812077  61.6702986
  68.5733032  94.3725967  61.7576933  68.5550117  95.8404922  62.1263933
  52.1147776 106.3033581   3.3219162  51.8971157 107.0799446   2.8063875
  52.9987955 106.4722633   3.6478248  50.6996155  92.6042747  23.8182640
  50.6655741  93.3802223  23.2588077  49.7843504  92.4222851  24.0313315
   0.8250962  41.7053986  91.9220448   0.3131352  42.2036362  92.5591373
   0.3391610  41.7943001  91.1021709  89.0928841 100.6726551   5.5853468
  89.9208736 101.1197662   5.4099822  89.0762043  99.9463463   4.9621090
  67.5362921  95.0449085  13.1193936  67.2501087  94.7696114  13.9903378
  66.7340755  95.0603390  12.5974381  94.2558479 106.7781353  19.7041774
  94.1635895 105.8262062  19.6648633  94.9633408 106.9757462  19.0904737
  63.3723688   4.4398490  30.5223989  63.8246965   4.7327790  29.7313094
  63.8228655   4.8905253  31.2366652  68.9457798 105.1470184   3.3742705
  69.3429756 105.7001400   2.7015749  69.2668152 105.5073357   4.2009121
  20.6806779  15.6501150  57.8676796  21.0936952  14.7926974  57.9700756
  20.3100204  15.6335783  56.9853115  69.2248440  92.3761272  24.7708964
  69.5914650  93.2476044  24.9203587  69.9352026  91.8850136  24.3580699
  80.3437996  84.5049953   2.4425340  79.6186924  83.9967537   2.0790185
  80.4173374  84.2035103   3.3480340  71.6655350 107.4597740  29.7190762
  71.0573530 107.1390152  29.0531492  72.3317194 106.7755604  29.7844958
  29.1237426  22.9449463  16.6230571  28.3802390  22.9630876  17.2256374
  29.6875429  23.6605811  16.9167006  96.0409737 108.7468910  67.7514219
  96.9445705 108.9046383  67.4777985  96.1088562 108.5083294  68.6759281
 101.1911964   0.4959739  12.9805505 101.3913918   1.4257962  13.0881798
 101.7681789   0.0531516  13.6028266 103.7634277  74.3332052  28.4894586
 104.1514683  75.1979399  28.3556867 104.3212509  73.7399387  27.9863644
 111.0278416  73.4779119  29.0837026 110.9836960  74.4063663  28.8551188
 111.2221146  73.4709740  30.0209570  28.9815879   1.0976186  25.1035047
  29.4116592   0.4280004  25.6353712  28.1819892   0.6761859  24.7884345
 104.3664837  27.2185588  27.5122929 103.4136772  27.1467423  27.4554133
 104.6806240  26.9187260  26.6592693  77.3182917  86.3337040  44.8260260
  77.0743608  85.4107571  44.8959923  77.9642820  86.4640045  45.5202532
  43.2830906 105.6333733  23.1196952  44.1285658 105.3460693  23.4644604
  42.9351473 104.8647976  22.6675177  64.8974276  88.5280228   2.7111453
  64.2387629  87.9248142   2.3668692  65.7323980  88.0890846   2.5486737
  57.4611425  84.8952866   5.0353593  58.2379055  85.4517841   4.9789280
  57.1810722  84.9667740   5.9478730  99.4241047  25.7403445  33.2227278
  99.2631721  25.2011037  32.4484205  98.8422489  25.3789997  33.8913894
  80.5091953  95.0990391  45.6268501  81.3467216  95.5230904  45.4398727
  80.7457829  94.2153931  45.9086800  92.2615814  76.2511730   2.6529664
  92.1605301  75.3223038   2.8608638  92.0870018  76.7018986   3.4791645
  88.5685825  17.5230408  14.1724253  87.6944828  17.8906500  14.3029892
  88.4469223  16.8468022  13.5059929 105.6610584  94.8233414  13.0020297
 104.9223328  94.2430878  12.8181064 105.2952957  95.7053566  12.9349780
  99.5217514  15.8118641  58.0928040  99.9564934  15.7942617  57.2402048
 100.2376842  15.8692479  58.7255621  72.0825100  89.6952629  39.2143440
  72.7811003  90.3081512  39.4436359  72.0090532  89.7611237  38.2622409
 106.7920208   5.0594699  12.8822792 106.8674660   5.2198082  11.9416249
 106.0600090   5.6096244  13.1610644   6.8055290  78.3801746  81.0825443
   6.8425018  77.4297905  80.9746838   7.1616232  78.7280464  80.2649784
  91.7686653   6.3896751   9.1215432  91.9382572   6.4847755   8.1842995
  91.0175705   6.9592148   9.2880368   0.8755105  95.5963516  28.2893944
   0.6591600  96.4698982  27.9633164   1.8217832  95.5221081  28.1657481
 111.0031128   0.7664870  56.3673925 110.5364323   0.0873917  56.8544912
 111.7292118   1.0153257  56.9393110  17.8870785  25.5229878  34.2118096
  17.5102508  25.8759022  35.0178385  17.1297109  25.2675796  33.6851287
  64.0388680 108.4212685  29.9306464  63.6461973 107.5835133  30.1760411
  64.2915010 108.8203812  30.7631826  60.8461189  92.6140690  47.4443531
  61.1063433  93.3338642  48.0191708  61.5918159  92.0141125  47.4592018
  79.5519543   4.7783110   7.0899826  79.3489408   4.6243286   8.0126452
  79.8680067   5.6813884   7.0617598  29.5067859  31.2429571  76.3866806
  29.7207904  30.3107023  76.4232302  29.8374104  31.5314198  75.5359697
  72.0184898 106.8016815  55.9405804  71.9079351 107.0949745  56.8450069
  72.6563263 106.0900974  55.9958124  89.2716694 100.4734039  50.2203560
  90.1806164 100.2766418  50.4469204  88.8056278 100.4479408  51.0560513
  70.5742550  76.0503864  25.0454760  71.3366270  76.6263771  25.1025295
  69.9495792  76.4171886  25.6711483 105.7237434  77.8328323  36.6860533
 106.5443134  77.3608971  36.8280935 105.7143402  78.5068130  37.3656797
  82.4694729 102.2114468  59.0914297  82.9060173 102.5127220  59.8882389
  81.5442371 102.1580029  59.3308163  67.8945637  73.2000017  51.2788725
  67.8859854  74.0304136  50.8028698  67.0266771  72.8267431  51.1249876
  51.6471386  76.7648363  57.6182938  52.2730589  77.3933935  57.2586060
  52.1645403  76.2287521  58.2192469  17.7496874  37.0149708  32.8140664
  17.8303432  36.6368365  33.6897039  17.7806365  36.2617993  32.2241449
  75.1354218 100.1342201  67.4873304  74.8701811  99.4566441  68.1092358
  75.8566523 100.5892658  67.9220676 104.6310711  77.8049898  30.6661725
 104.9705315  77.8319788  31.5607524 103.9022160  78.4254789  30.6677485
  16.0259366   2.5783801  64.0834379  15.5741990   2.3131010  64.8845577
  15.3221714   2.8041378  63.4751749   7.2985852   0.4718135  26.7119002
   7.2881448   0.3136954  27.6558924   6.4055502   0.7476030  26.5053558
  32.0667124  67.5757170   2.0340399  32.8431392  67.3133230   1.5395248
  31.7195034  68.3273411   1.5536843  95.3058052 102.7775478  32.9797387
  94.7018147 102.5676918  33.6920476  94.8340321 102.5293255  32.1847224
 107.1123981   6.9064343  22.9378676 107.8430557   7.3233128  22.4811697
 107.5137615   6.4863896  23.6985874  43.8308764 101.8725300  24.2330837
  44.7222996 102.2208500  24.2166257  43.6213350 101.7945671  25.1638079
  84.2280483 105.9049129  61.5595388  84.4107342 106.8444920  61.5526199
  83.5932064 105.7791519  60.8542776  83.3538437  98.5241032  15.8419466
  83.4210968  97.8813076  15.1358819  83.0606174  98.0178833  16.5995729
  52.7020216  86.9462585   1.2148212  52.9694986  86.0963058   1.5644923
  53.5240793  87.3828411   0.9915620  66.5356064 104.6828270   1.3532986
  67.3364687 104.6167469   1.8733820  66.6641235 104.0624619   0.6357603
  33.0904913  44.7685289  86.3150406  32.9132533  44.7139025  87.2541046
  34.0455151  44.7818565  86.2519264  74.0748882  94.3696880  50.2425528
  74.9044609  94.7860622  50.0087261  73.6322689  95.0122833  50.7969761
  63.9483213  77.5629759  51.8163824  63.5145426  76.7581844  52.0998907
  64.7042274  77.2626543  51.3117647  87.2266197  94.7727013  30.4419565
  87.0732021  94.2007828  31.1940145  86.3505554  94.9865818  30.1210427
  58.4305000 107.8256321  61.0895872  59.0541410 108.4875679  60.7910204
  58.1718588 107.3633575  60.2923203  15.0184476  17.9548812  45.5622721
  15.7957196  18.1192756  45.0283670  15.0032151  17.0046949  45.6769276
  52.1361160 103.1687164  22.9959249  52.8773451 103.6794186  22.6703548
  51.8350315 103.6486435  23.7674522  26.0535312  75.7286406  92.2119713
  25.3276706  75.1323605  92.0281029  26.6294742  75.2326298  92.7937698
  67.1043491  90.9416771  26.1043930  67.6304102  91.1919880  25.3448963
  66.8145227  91.7732239  26.4795661  83.6710739  93.8939381  33.1070185
  84.2118835  93.8909531  33.8967967  84.0178204  93.1765652  32.5765800
 110.5777836  15.6363833  19.8528874 109.8157024  15.4242861  19.3139207
 110.5362701  15.0163591  20.5809522  73.6693382  77.8743458  59.6918392
  73.0957222  77.5508976  58.9971638  73.3154011  77.4891710  60.4934645
  55.4539251  93.6505508  52.5627708  54.9770832  94.3140697  53.0613708
  56.3759375  93.8272953  52.7495432  90.1641083 105.6516075  29.4893980
  90.7743073 105.6408215  28.7519932  90.4662132 104.9454594  30.0606298
  67.3377228  84.6458149  44.5589972  66.6982603  84.1257763  44.0722895
  66.8103218  85.2770233  45.0485373  67.1492338  89.1215229  57.6595354
  67.3659611  89.9976730  57.3407507  66.4379644  88.8285351  57.0898962
  60.8224869  86.2365532  55.5061007  60.2292776  85.6775665  55.0042391
  60.4080486  86.3150501  56.3653517  81.4146996  85.8410835  26.5181637
  81.0330486  86.5864849  26.0545444  82.1845436  86.2014294  26.9582915
 100.0442886  13.1345952  37.9008627 100.6793785  13.6102867  37.3655081
  99.2562103  13.6773407  37.8764653   0.3661500   7.0424217  42.6328468
   0.1995812   6.2088466  42.1928024   0.9274159   6.8141234  43.3738518
 101.7912102  96.2559509  24.7734642 102.3849487  96.4202881  25.5060649
 101.5869427  95.3228569  24.8353863  62.2123289 105.8242607  45.5538368
  62.8959370 106.3584805  45.9582186  61.4077425 106.3261890  45.6839561
  78.5910606  99.5010281  20.0377584  78.3319330  98.5812569  20.0935292
  78.2078791  99.9054432  20.8161259  80.7398415  86.5380573  35.1887631
  79.8577738  86.4130211  34.8386788  80.6044960  86.9811153  36.0263848
   4.0640491  28.8021278  23.2146025   4.7134390  28.4934664  23.8464689
   4.0716544  29.7546077  23.3092332   4.2238030   6.2175184  18.2208717
   4.2446339   6.8606591  18.9295101   4.0584660   5.3830016  18.6595929
  17.7823976  43.1244911  94.5540153  18.1075767  42.5517239  95.2485880
  18.3342650  43.9046539  94.6089121 110.7916546  25.0268316  10.7624638
 110.5443096  24.8913074   9.8477584 111.3234234  25.8226490  10.7513964
  64.2898989 102.8466606  13.6216104  64.3517685 102.5745392  14.5372272
  65.1980066 102.9775047  13.3487475  81.7800617  87.8336906  21.5163279
  82.0654106  87.2371864  20.8242345  82.5361919  88.3997440  21.6714787
  26.2200594  88.0406857  33.3675194  26.1072516  88.0801296  34.3172288
  26.0464287  88.9332199  33.0684233  58.6188459  83.4580898  21.5106511
  58.8406563  84.3541622  21.7638159  58.1093454  83.5556316  20.7062101
  53.0868721  37.1838212  92.7014256  52.5466585  36.4912105  93.0818081
  53.9816761  36.8489242  92.7597237  59.7242975 104.0145397  16.7252231
  59.7529268 104.7389984  17.3501754  59.1338205 103.3762264  17.1253753
 107.8411388   1.8839133  74.9713230 107.6980400   2.2253755  75.8540249
 108.5894203   2.3808677  74.6406603   5.6751311   1.9060913  50.5443192
   6.0360605   2.7830026  50.6746626   5.9314752   1.6717188  49.6523619
  68.8895941  91.3549805  37.6278853  68.1070375  91.9048500  37.5894880
  68.7508440  90.7938576  38.3908558  70.3325176 105.8034801  46.4555311
  69.5794582 105.3526878  46.0735321  71.0640287 105.5765629  45.8814001
  65.1206827  71.1300707  60.0600052  65.2139568  71.2655687  59.1170454
  64.3156767  71.5939903  60.2901649   5.1197994  39.2784643  31.0937142
   5.6894517  38.5343194  31.2885928   4.2345336  38.9499617  31.2506294
  48.4957790 108.0612087   5.4271483  48.9693689 107.2310829   5.4804188
  48.0570698 108.0325317   4.5768881  32.4797964   4.5127296  34.4778895
  31.9661927   4.3357939  35.2660108  32.7528048   3.6482027  34.1708183
  19.6632349  88.7129021  32.0046258  19.7882032  88.4757423  31.0857296
  20.5403781  88.6674690  32.3851371  94.4591904  75.2621698  29.6383023
  94.3881226  74.8295450  28.7874079  94.6193695  74.5493746  30.2567673
  62.8014040  68.0065155  56.5369654  62.7501774  68.1089640  57.4872875
  62.1342468  67.3519659  56.3303232  60.5207729 103.4653282  47.0306683
  60.9639120 104.2787933  46.7895651  60.7825851 103.3098412  47.9381418
  76.7825794  97.1775055  31.7272139  77.6702118  97.3299408  32.0514059
  76.9058847  96.6990280  30.9074068  58.8303947  65.8064842  21.0119414
  58.5211754  65.1113892  21.5928555  59.7395992  65.5741501  20.8232570
  69.2517853  91.0048580  46.1482191  69.4770145  90.1189899  45.8640718
  68.2965326  91.0012436  46.2091398  83.7993336   3.9656305  37.4412107
  84.0535069   3.4311029  38.1934834  83.0249596   4.4437522  37.7378154
  70.8225346  59.0872622  33.4160995  70.0991392  59.5481825  33.8409305
  70.8698940  58.2458496  33.8699865  30.2263308  51.2913227  93.3786297
  30.9920382  51.1347866  92.8259850  29.5496726  50.7181549  93.0182934
  61.2858343  86.7840672   1.1725255  62.0254755  87.0955849   0.6508723
  60.5388975  86.8211174   0.5750786  28.7749887  49.2896366  76.4519548
  28.8062668  48.8249302  77.2881985  27.9832363  48.9619827  76.0253382
  89.5304203  99.8210812  46.9516563  90.0167274  99.0103245  47.1013594
  89.3546963 100.1605034  47.8292370  94.9963951  55.3921700  23.0755687
  94.4718266  54.5955753  23.1561995  94.3693352  56.1051607  23.1967187
  95.8979702 107.9148674  29.2192435  96.7530823 107.5975513  28.9288449
  95.2760220 107.5215054  28.6071348  56.8964529  92.7579880  29.3279219
  57.7289438  92.4523258  28.9676857  56.2333870  92.2401142  28.8714337
  41.6290712  89.7402668  12.6677430  41.0377264  89.7521210  13.4203398
  42.2187757  89.0057755  12.8380358  66.3639784  84.1319275  53.9879704
  66.6227341  84.9479008  54.4163084  66.9156075  83.4630775  54.3936491
  95.0270367  58.2413387  91.9958973  95.8419991  58.1804991  91.4975452
  94.9750805  57.4126482  92.4721336  93.0824184  13.5608840  35.1965117
  93.5684299  13.1597149  35.9169865  92.4303913  14.1143763  35.6263328
  95.1373863  81.0549641  46.0708189  94.8107529  81.9083977  45.7858753
  94.6267700  80.4222488  45.5656672  98.9979172   7.0430028  14.5913661
  98.2566357   6.7055225  14.0885437  98.6014080   7.4312413  15.3712916
 107.5410938  16.5260112  57.4132109 107.7380753  16.5450680  58.3497286
 107.5393963  15.5957568  57.1877003  86.9923782  98.7567139  30.6619263
  86.4298820  98.8144302  31.4342570  87.1375656  99.6666718  30.4028273
  61.4961910 102.2396278  18.7816775  61.6342402 103.0529690  18.2962430
  60.8440113 101.7623234  18.2687664  64.8498106  79.1752243  45.4129887
  64.0894938  78.6613083  45.1408911  65.1449776  78.7565279  46.2215710
 107.0269203 104.1634369  76.3261652 107.0425797 105.0616455  75.9957075
 107.9209423 103.8458920  76.1991644 101.2144375  50.2993584  81.4105034
 101.7404938  50.1189232  80.6314468 101.6315651  49.7890568  82.1046448
 103.9921856  38.5039210  36.0893917 104.2539501  37.5944161  36.2326193
 104.1612339  38.9364529  36.9263935  99.4124031 104.5850182  62.0055437
  99.0052223 104.7217464  62.8609610  99.4079876 103.6351585  61.8872643
  94.0809536 100.7202053  65.7703161  94.1076279  99.8227310  66.1020565
  94.9764919 100.8954334  65.4812813  75.7566500 105.0063610  43.4685516
  75.0595617 105.6072617  43.2054615  76.4914417 105.5764294  43.6951017
  73.2029295  99.9699402  47.6253653  72.2650957 100.1410770  47.5392818
  73.2769632  99.0164089  47.5863218  94.4624138  73.7819290  23.2909417
  93.9179516  73.2456493  22.7145767  94.5132065  74.6305704  22.8511071
  23.2917786  11.5475416  62.5514603  23.9764810  12.0492327  62.1090555
  22.6544690  11.3541043  61.8639660  34.3583512  35.6414270  86.6823292
  34.4113326  35.0314307  87.4180794  35.0018716  36.3198662  86.8868732
  85.5554485  83.8969994  35.4901743  84.6235371  84.1145992  35.5109310
  85.6200695  83.1803894  34.8588872  89.2986012  84.7245598  49.1223431
  89.2427349  84.8624420  48.1767750  89.7808075  83.9030743  49.2165279
 116.5575717  83.4724903  85.3106308 116.1340718  82.6142311  85.3270054
 116.0990551  83.9527035  84.6211433  79.2526770 108.3157539  30.0083089
  79.4980574 108.0353355  29.1266131  79.5286798 109.2311573  30.0540113
  88.7156582  73.3770800   3.5640287  88.2468987  72.7803230   4.1474572
  89.0629292  72.8129625   2.8730834  83.4821129  73.0834246  40.7568073
  82.6137638  72.6913881  40.6646585  84.0834427  72.4120474  40.4344845
  98.9160442   7.9836249  10.9781873  99.2201614   7.1265298  11.2767327
  98.1470585   7.7913487  10.4416013   2.4916495  25.7731080  89.9242783
   1.7614812  26.3781118  90.0548744   2.9894826  26.1514425  89.1995335
  61.3494682 105.0426006  59.3298817  61.7354965 104.1668510  59.3133593
  61.5722561 105.4186630  58.4783125   6.7899996   4.5937464  50.3059196
   7.1536243   5.3910345  50.6910706   6.4486021   4.8723832  49.4561863
  93.1668377  86.9505978  16.1227846  93.1125641  87.0365810  17.0745683
  94.0936184  87.0822716  15.9228659  61.5222168 101.4231491  45.6469107
  60.9251833 102.0586681  46.0417461  62.0256472 101.9307804  45.0104332
  80.1110840  89.7112751  22.5570965  79.4672203  89.8664856  21.8660259
  80.7297611  89.0900898  22.1729136  71.6618109  60.8593941  28.0448890
  71.7904663  60.1986170  28.7253666  72.4346781  60.7809114  27.4856448
 115.7380486 103.5283661  55.3005075 116.4782619 104.1272163  55.2020264
 115.6015110 103.4698009  56.2461042 104.7735119 104.5758438  25.7189536
 104.4099140 104.9367905  24.9104071 104.3283844 105.0561523  26.4170909
  89.4307899  95.9401131  34.4925451  90.3779125  96.0688210  34.4412971
  89.1185760  96.1018753  33.6022735 101.7514038  25.7475877  57.0557642
 101.9828701  26.0177898  56.1671448 100.9904861  25.1780343  56.9423771
   2.8341079   9.9825555  30.3150845   2.3301378   9.2157942  30.0424623
   3.5161719  10.0700021  29.6492219 105.8259583   8.3876067  35.9011173
 106.3000298   8.8425511  35.2050471 105.1510143   7.8865302  35.4432988
  16.6902578  31.4813614  58.8137054  16.4393771  32.0451689  59.5454264
  17.6473773  31.4852643  58.8255453 112.7496529  34.3264914  10.7428944
 111.8785381  34.5658994  11.0592616 112.7413464  34.5639753   9.8156601
 112.1203709  23.7483239  21.2896442 112.0948315  23.1085110  20.5781531
 111.2273693  24.0896940  21.3369489  74.9805593  95.2873421  56.2401199
  75.7652092  95.6824017  56.6202307  75.1814699  94.3526173  56.1937189
 103.4292603  89.4387722  37.4314904 102.5155163  89.6972275  37.5519252
 103.4205914  88.8848019  36.6509342  44.7965956  11.7466140  68.8715124
  44.4176245  10.8701420  68.8050985  44.1771221  12.3110759  68.4090519
  52.1650362 104.5860100  28.3901167  52.1867609 104.7972679  27.4567747
  52.1546984 103.6292934  28.4189606 103.1574821  37.4441409  38.8865471
 103.9277554  36.8759823  38.8765025 103.5025597  38.3117652  39.0972209
 111.9445038  21.4412928  29.0223217 111.8982983  20.5241823  29.2925143
 112.8233910  21.5390611  28.6559463  38.0193853  24.0297413   2.7215433
  37.9014015  24.4408536   1.8652147  38.8762283  23.6064386   2.6679906
   0.3256173  15.7509947  48.8610172   0.0757993  16.3804340  49.5375013
   1.0923322  15.3047240  49.2204952   0.8731077  47.8960466  27.5958920
   0.8179753  46.9408178  27.5688171   1.6984819  48.0756521  28.0461478
  14.3481946  76.2204838  91.2009239  14.4152260  77.0793247  91.6182232
  15.2429581  75.8805037  91.2075138  18.4059894  26.8977308  37.8477526
  19.3015194  26.5695882  37.9288650  17.8614700  26.2008882  38.2140064
  44.6904516  91.4968681  24.6428585  45.2993393  91.2998199  23.9310598
  44.4778252  92.4228954  24.5267057 113.5463142  69.6159744  40.7186747
 112.8374004  70.1603460  41.0612154 114.0829754  69.4118023  41.4845276
 110.9707165  12.2652507  28.8960576 110.1218700  12.6773894  28.7353134
 110.7552910  11.4131689  29.2752385  99.1771889  71.1624908  17.8378117
  98.9976788  70.2909470  17.4850881  99.7417831  71.5740490  17.1835256
  16.1738861  25.3574777  63.8994122  15.9468150  24.6177268  63.3359909
  17.1214139  25.4512691  63.8012981  94.0273952  65.0081825  37.0309496
  93.4169579  64.9853277  36.2940073  93.4677410  65.0911474  37.8030515
  71.4351988  95.6712055  30.2602220  71.4642429  96.3613415  29.5975709
  70.6689453  95.8831215  30.7933116  36.0414910  15.9142923  28.8837814
  36.8999219  15.6468952  28.5554123  36.1957145  16.7667127  29.2909980
 114.4068146  19.4196582  42.9247904 113.7206268  19.9822354  43.2838058
 114.5898438  19.7871840  42.0601177  21.1184311  93.9079285  19.5418215
  21.5683365  94.7324085  19.3572807  21.7274475  93.4219933  20.0978756
  78.3092356 105.3211689  28.6513019  77.5637436 105.0043392  28.1413102
  78.7748003 105.9082127  28.0555940 101.5312099  17.0341420  19.6460724
 101.8188286  17.7093911  19.0316272 101.7164040  17.4019969  20.5101418
  76.6552496  77.2794676  22.4016953  77.1820259  76.4872837  22.5074506
  75.8359241  76.9722462  22.0136762  37.7191591  38.0253959  37.8070021
  37.0042086  37.8330994  37.2002912  37.4015164  38.7652040  38.3247066
  13.3548021  26.3435507  13.1804204  12.7078164  25.8837461  13.7154150
  13.8240385  25.6472206  12.7208853  94.4157124  71.5843153  44.8306179
  95.2968884  71.2537479  44.6560431  94.5377731  72.5207615  44.9868107
 103.8422489   0.7013217  54.5579576 103.6208916   1.0094842  55.4367447
 103.8298035  -0.2531829  54.6286535  66.0415030  80.7251549  25.2713633
  66.0929775  80.4363823  26.1825132  66.0718155  79.9156332  24.7614694
   4.3087098 103.0688763  44.5880318   4.2793629 102.3871708  43.9167213
   4.2187619 102.5949097  45.4147768  20.7028747   9.5666677  55.9857512
  21.0666442   9.1605663  55.1989937  19.7591913   9.5923960  55.8275414
  27.2695613  18.8456392  62.6722765  27.5870132  18.8237917  63.5750389
  27.2018576  17.9248095  62.4198437  79.4477940  95.3331757  53.3078861
  78.7093878  95.5172825  52.7272892  80.1279640  95.9478569  53.0326271
 108.1448078  97.8646851  36.0252666 107.8317451  98.3068562  35.2361441
 109.0857220  97.7601051  35.8839083  97.4919987  76.7575169  30.6537700
  98.0942726  76.0138369  30.6746197  96.8554401  76.5312624  29.9756551
  62.4925613  98.4400940  44.2145205  62.4055481  99.3815994  44.3636465
  63.0148172  98.3714485  43.4152889  39.8675394  17.0861340  11.3997555
  40.8037281  17.0608032  11.5976036  39.5255756  17.7912557  11.9493890
 106.7607212  93.7205791  58.6229086 106.2390327  92.9941750  58.9641047
 106.7133999  93.6234474  57.6718283  88.5527992  31.6900015  15.8639109
  89.3953228  31.9594955  16.2296510  88.4865189  30.7589149  16.0758412
  21.1665392  35.3687477  89.4338512  21.5063500  34.4978905  89.6396828
  20.4394579  35.4925060  90.0439835  13.5437250  32.7976489  71.9210434
  13.3889353  33.5668755  72.4692774  14.1106701  33.1147504  71.2180090
  17.1880758  17.9730201  42.9377556  16.8183184  17.5551641  42.1599960
  17.3653436  18.8731444  42.6646519  78.0486631 100.7953930  66.9622564
  78.1945372  99.9330902  66.5731764  78.7976980 101.3175774  66.6750240
  91.6659069  20.4888415  26.5422606  91.2045956  20.3591752  27.3708797
  91.0367107  20.2193809  25.8731294  14.6598923   6.5413088  36.4029551
  14.9036515   5.6177884  36.3403201  14.4663680   6.6755521  37.3307252
  97.2785759  88.9301968  42.3859882  96.6899395  89.3307495  43.0257559
  98.0025673  89.5510960  42.3050213  14.6025014   4.7648123  19.8444307
  15.2881014   5.3513062  20.1641321  14.2049050   5.2373517  19.1130924
  33.0588746  20.0476003  28.0411363  32.6328540  19.9187934  28.8885713
  33.1121182  19.1694856  27.6638961  15.6460285  23.2345223  21.7219925
  15.9948456  23.1032109  20.8403373  14.9678230  22.5652575  21.8133807
 114.1534424  33.9670777  38.9988089 115.0968456  34.1248894  39.0351105
 114.0442848  33.0850720  39.3543124 114.8664188  12.3668349  24.4467759
 114.6610546  11.4485478  24.2712498 115.1212978  12.3831654  25.3692746
  99.9718857 103.2432938  17.4837577 100.5916500 103.0420017  16.7826200
  99.5646667 104.0666199  17.2144067  18.5887969   3.8919401  24.6649766
  18.3287847   3.0753517  24.2385864  18.1070399   3.8941997  25.4921031
  15.5635881  11.6763806  19.5728481  15.9627962  11.4654887  20.4168797
  16.3056493  11.7967772  18.9803267  49.2080164  17.2040915  87.8835773
  48.4670877  17.0171523  87.3071098  49.8253345  17.6846349  87.3320103
  27.8065324   6.9226074  48.9995003  28.2779574   7.6496935  49.4061136
  28.3063769   6.1447376  49.2470980 101.6707420  91.6021061  17.2065914
 101.8463135  91.4465237  16.2785828 101.1727619  92.4194145  17.2223997
 101.5232944  37.2322726  27.5460553 101.1273384  36.9178915  26.7332721
 101.9464207  36.4597678  27.9207969  19.8937535   3.9371008  16.4394271
  19.1965950   3.9685676  17.0945692  19.5906317   3.2947361  15.7977760
  72.5613403  93.0522251  26.4929461  72.7225685  93.1834412  27.4273014
  72.3889256  92.1144295  26.4090252  30.9783173  21.5940762  71.0674953
  30.3800011  21.0292411  71.5565872  31.6649818  21.0038352  70.7571125
  76.2271500  74.0290642  60.8628273  76.3386679  74.2580700  59.9401379
  75.7384157  73.2061672  60.8479881  66.8686056  86.7167759  18.4430337
  66.4302158  86.5932846  17.6011336  67.5695229  86.0649014  18.4459853
  90.9810829  93.0754852  46.3965654  91.8333912  93.4534073  46.6132784
  91.1876965  92.2244740  46.0101318  99.6123981 106.6410351  39.0600491
  99.1075802 106.7743492  38.2577896  99.0172958 106.9005775  39.7634125
  25.1587939  26.1274004  42.7426577  25.7604051  25.5443835  43.2056713
  24.6965408  25.5563593  42.1290874  81.4401150  92.2687435  10.2524900
  80.9036350  91.7928219  10.8864605  82.1347904  92.6665115  10.7773173
  96.3920212  15.4269457  53.1495714  96.5206718  16.2931418  52.7630663
  97.2666931  15.0383425  53.1629610  88.1039810  99.7568607  40.7177496
  88.6994648  99.0613079  40.9967422  87.4230480  99.3039799  40.2203035
 101.9105148  92.8691006  42.2120380 102.2440910  93.7652874  42.2545290
 101.0012245  92.9651737  41.9288254 109.4348335   9.6867704  54.4617271
 109.2828751  10.1174843  55.3029346 109.0564537  10.2830219  53.8155508
  47.8115892  58.5994911  91.0929775  48.0673552  59.4479656  90.7311726
  48.5482979  58.0219698  90.8930779  58.1649399  93.6880779  69.6641302
  57.6585960  93.0026817  69.2281389  57.6064825  93.9757061  70.3863668
  82.6655769 105.5747032  38.2175374  82.9780960 105.3949165  37.3308349
  83.3707047 106.0799694  38.6221695  23.9360738  45.7205582  85.5870819
  24.2380762  44.8493719  85.3300762  24.5627403  46.3203478  85.1823902
 109.4564247  98.8076591  76.1436939 108.7242699  98.5706425  75.5744839
 109.0446281  99.0691662  76.9672632  99.3506145  42.1523333   6.7083037
  98.8504982  42.7275085   6.1292589  98.8561726  41.3327742   6.7171907
  14.8241222  21.9891238  38.1432152  14.3764317  22.8351688  38.1468821
  15.4073739  22.0300603  37.3853421  73.7974119  15.3466880  74.3462420
  73.9971066  15.5115032  75.2677536  74.5856333  15.6210792  73.8775682
  60.0012255  94.1482258  37.7719283  59.8756361  95.0726318  37.9862738
  59.6579075  94.0597343  36.8828106 103.2978535   3.8837999  27.9098296
 103.6979389   3.7735692  28.7723947 103.2886600   4.8305830  27.7692986
  43.4689331  71.9250917  94.4180584  44.3081284  72.2107935  94.0570068
  43.6651468  71.0948324  94.8521042  30.6864834   0.6112347   5.2724022
  29.9895358   0.5125008   5.9210527  30.5147982   1.4595574   4.8636177
 106.7535400 106.4558887  28.5673475 105.9363270 106.0241127  28.3184266
 107.4404621 105.8877563  28.2186532  14.1888912   0.0654019  18.1742585
  14.7525795   0.6286610  18.7045562  14.2218502   0.4500283  17.2983563
  20.3621864 100.0233936  27.6864457  20.3081465  99.0980244  27.4476910
  21.2782407 100.2565384  27.5357103  52.7669334   4.3488804  44.6623802
  52.3920584   4.1208339  45.5130863  53.6603308   4.0068135  44.6948767
  79.6083736 103.4601307  12.5088167  80.5378151 103.6411285  12.6488674
  79.1551924 104.1761875  12.9539239  13.0583119  59.4503069  31.2630296
  13.0941057  60.0939894  30.5554819  13.1307769  59.9700594  32.0635533
   6.5056986  43.8346195  32.9608798   6.2623549  44.7572803  32.8853202
   6.5322757  43.6703444  33.9035034  34.3598747  29.4321847  45.6930065
  34.0983129  28.7668180  46.3294840  35.3017616  29.5359421  45.8283424
  36.9952154  45.3138447  11.4488578  37.4579191  45.5956268  12.2379947
  37.5078011  44.5745945  11.1217546  41.8202877  17.0069623   2.9774314
  42.7158642  16.7972827   3.2423961  41.3279438  17.0341969   3.7978506
  72.9598808  22.9284334  42.3911238  72.3065996  22.2319746  42.3247910
  72.5281620  23.6979151  42.0199776  16.0630977  10.5332494  26.0700011
  15.1472998  10.4718006  25.7983994  16.5333867   9.9693245  25.4559588
  97.2543335  40.4331398  90.3575802  96.8257618  40.4796124  89.5029449
  97.6301479  41.3042450  90.4847431 110.2422905 104.5319748  49.1881752
 109.7223473 105.3228283  49.0452147 110.3492451 104.1545677  48.3150434
   8.6206561  37.1583676  57.0354080   8.3444464  38.0571771  56.8562937
   8.4663922  36.6921544  56.2137747  24.5831776  45.1362848  49.5351982
  25.4109263  45.5468225  49.2851591  23.9393115  45.5093384  48.9331198
 114.0731335  98.2577038  91.2368202 113.7364960  98.8422775  91.9159222
 113.7326622  98.6197948  90.4187679  38.0355120  16.1253381  38.7221265
  37.6630640  15.3350759  39.1132760  37.7210999  16.1161625  37.8180838
  48.1373024  44.0567589  28.7268233  48.3899546  43.5808849  29.5179868
  48.7928391  43.8050747  28.0763197  47.8111839  33.7053752  48.5672045
  47.7027750  32.9670835  47.9677010  48.0491161  34.4401312  48.0017376
  20.3084302 102.9044628  15.8731151  21.0126519 102.6178741  15.2915931
  20.4554701 103.8439655  15.9824026  23.0129266   6.9604361  17.7502227
  23.3532214   7.7154785  17.2702837  22.5985694   6.4173388  17.0797098
  52.3852396  64.7677517  81.7241287  52.7411938  65.5908775  82.0587826
  53.0401850  64.1104507  81.9591522 110.1563072  92.9613400  21.2477517
 109.5805740  92.2240925  21.0446787 111.0336113  92.5795078  21.2757111
  43.5206079  42.0158005  26.1903954  44.4619179  41.9089794  26.0534286
  43.4498882  42.7370691  26.8156958  85.9289551  18.8366675  24.7061634
  85.8997250  19.0026069  23.7639093  85.5799866  17.9507613  24.8042822
 114.5087433   1.5259427   2.3688303 114.1673946   1.8483320   3.2029641
 114.1276360   0.6528635   2.2754627  84.9438763  72.6647663  22.4290490
  84.3026161  72.5115538  23.1229758  85.7905293  72.6357794  22.8746700
  29.7429514  19.7236061  28.5218358  28.9395189  19.3432820  28.8769174
  29.5626044  20.6624293  28.4736800  26.6639090  35.3308606   5.0832504
  27.4663687  34.8787141   4.8227641  25.9718490  34.8973298   4.5839125
  28.8224721   6.1943227  21.3011670  29.0133786   6.0350072  22.2255063
  29.4521093   6.8658686  21.0388446 102.6097679  28.9806128  43.3099985
 102.0605087  28.7772250  42.5529194 102.0719147  29.5628238  43.8466311
  38.1123304  47.1995878  91.1510086  38.7024140  47.9051971  91.4158726
  37.9708147  46.6928625  91.9506550  30.7311010   8.9930534  59.6226978
  31.5590239   9.0833223  60.0945330  30.0631618   8.9957029  60.3083229
  26.2414050  21.6250253   2.4068229  26.1470723  22.5297856   2.1089257
  25.6512165  21.5572166   3.1573641  41.2411594  64.1126823  89.7603321
  40.8907652  64.8389149  89.2445374  42.1660614  64.0706873  89.5173740
  50.8707142  73.9221668  90.3620625  51.5172672  73.5862684  90.9828377
  50.1713610  74.2751217  90.9121132  25.8645606  21.8564677  30.5224228
  25.8663058  21.5273952  29.6235704  25.2707434  21.2699533  30.9910536
  16.4850807  17.9362237  29.9159837  16.3631821  18.2855058  29.0331602
  15.6012702  17.7168477  30.2109146  31.5729165  55.4353189  79.4374323
  31.3118124  54.6425915  78.9687777  32.0274258  55.9630251  78.7807941
  17.6470792  11.9053626  17.7274776  17.5362289  11.1595356  17.1378291
  18.5192001  12.2436297  17.5244713  36.5557861  22.5791645  21.5013146
  36.9420671  21.7724395  21.8422174  35.9014869  22.8262186  22.1548367
  57.0469713  11.0588503  35.2243733  56.3950729  11.6863382  34.9120879
  57.6054525  11.5666378  35.8130002   1.5220334   6.0101467  36.2453151
   2.4019349   6.3868111  36.2339520   1.0130054   6.5729946  35.6619430
  93.8490295 107.0091438  10.1997054  93.3766270 107.8408718  10.2356720
  94.1579437 106.8702412  11.0949779  46.4303827  83.6336708  76.4760780
  47.0007801  82.9138470  76.7457771  46.2161922  84.0877819  77.2910213
  26.3710022  32.9223609  45.6378508  26.3524437  33.4967422  44.8723602
  25.4532957  32.8386140  45.8967543  17.6192319  35.0612783  19.6814728
  17.1835756  34.2229819  19.8353970  18.3895564  35.0386763  20.2492070
  32.3855042  34.4926453  23.5778332  32.9144454  34.9045396  22.8946090
  31.6573668  35.0986385  23.7150121  45.1667643  44.9446726  56.2168026
  45.3039360  44.7078323  55.2995682  46.0371256  45.1843071  56.5350389
 109.4661903  27.3895669  18.4864867 109.0092850  27.2893929  17.6513648
 109.9820328  26.5881157  18.5749221   8.1744003  22.5736570  31.1145902
   8.6464411  23.1814671  31.6837811   7.4655366  22.2349215  31.6613984
  32.9828572  16.8527663  24.5552492  33.8658261  16.9398689  24.9144292
  32.7784753  17.7213311  24.2087603  10.1594830  23.7977815   5.6013685
  10.2984774  22.8969216   5.8935398  10.5842912  23.8399553   4.7446355
  31.4160395  37.2859192  51.8851805  31.5481353  37.2735429  50.9372187
  31.9382572  38.0279040  52.1901083  33.3262467  22.4338341  22.8916073
  33.4309244  22.2378135  23.8226557  32.8485370  23.2631135  22.8736711
  35.2965522  18.0369437   5.3075683  34.6437573  17.6616538   5.8985418
  34.7821045  18.4661877   4.6239555  15.1753259  97.3367500  22.3003721
  14.2606485  97.6045704  22.2116995  15.3797102  97.4844646  23.2237577
  85.0751400  95.9558392  61.3210821  84.7819138  95.0646496  61.5108919
  85.5593872  95.8786774  60.4990196  44.9088764  21.3991952  31.8952298
  45.0492382  20.4852438  31.6477990  44.9525881  21.8804455  31.0689616
  51.7153978  24.9269629  15.5811739  51.7786503  24.0103364  15.8495498
  50.9921741  25.2790785  16.1000097   1.3267884  71.8923759  48.1662941
   0.6053599  72.4820900  47.9471874   1.8697268  72.3938179  48.7745714
   7.3438662  50.8164549  37.3525763   6.6743952  50.3752804  36.8296909
   7.9036820  50.1085663  37.6715374 101.8547630 100.9966660  13.9407980
 102.1776295 101.8271923  14.2903829 102.5210857 100.3564548  14.1905570
  38.0892491  33.5241365  31.1309552  38.5176778  34.1739893  31.6880655
  38.0866742  33.9201260  30.2595091  36.6179538  39.0193391  22.2714043
  35.9753489  39.6583486  22.5795579  37.3932672  39.5406508  22.0631886
  50.1274014  14.8394108  40.9554863  49.9618101  13.8977671  40.9094524
  49.4448185  15.1744878  41.5368938  85.1197433  98.3991909  41.6258144
  85.4767036  98.5855007  42.4942017  85.4736614  97.5387192  41.4009380
  42.4472427  37.9723334  44.0141630  41.6567135  37.5917125  44.3968248
  42.1225929  38.5945153  43.3632231  67.7210569  84.2281628  87.8674698
  67.4848557  84.0491581  88.7776279  67.0947266  83.7190628  87.3529148
  80.0324440  88.3640862  87.6347256  80.7218170  88.6925983  87.0575905
  80.4752922  88.1993675  88.4671783  81.2032890  76.8784285  93.6728287
  81.1693096  76.5256500  94.5619965  80.3354836  77.2570038  93.5320187
  74.3600893  97.5278378  30.1686025  74.9960375  98.2428551  30.1448202
  74.5729017  96.9924927  29.4041777  32.6096344  12.7791095   4.3829164
  33.1533742  13.1535220   5.0760216  33.0496383  13.0308509   3.5709712
  36.7508173  32.0129013   3.9262918  35.8411980  32.2449136   3.7392223
  36.7412257  31.0600257   4.0166727   9.6766376  28.0085945  16.1144578
  10.1594973  28.7425303  15.7344353   9.8196691  27.2857666  15.5034816
 109.3163872  85.9074974  90.1033974 109.0712166  85.3174305  89.3906975
 109.1394806  86.7835426  89.7606373  42.6293278  15.2628839  46.8829584
  42.1105862  16.0397959  47.0916462  41.9805336  14.5899129  46.6770267
  33.8867545  33.0132127  15.0315869  33.1692791  32.4941492  15.3949511
  34.6009135  32.3865175  14.9155498  40.2821159  25.6207681  17.2208512
  40.8522987  26.2911201  17.5973558  40.7594824  24.8009896  17.3485887
  21.1037660   1.1672536  20.7954550  20.4782033   0.4662265  20.9783936
  20.8807492   1.8565497  21.4210486  75.8137894  52.5811720   8.1760043
  74.9341822  52.2047234   8.2045293  76.3533592  51.9671631   8.6740905
  31.9951248  23.0824423  50.0113916  31.5953612  22.2298765  50.1833057
  31.2564015  23.6899090  49.9726009  31.2496924  18.0040395  19.2356181
  30.6437802  18.3333242  19.8994517  31.1154866  18.5792887  18.4824193
  98.5710621 104.3190002  29.9246645  97.8302765 104.1755199  29.3356991
  98.4631920 103.6597347  30.6102061  43.6898994   1.2359861  37.2983551
  42.7739000   1.3345107  37.5581169  43.6626625   1.1730092  36.3436174
  44.2330122  29.1687918  25.9360456  45.0332022  29.6911550  25.9913516
  43.6192656  29.7213244  25.4520464  12.5190246  14.1341460  18.3754075
  13.2411635  14.1729856  19.0024960  12.9337525  14.2714643  17.5237167
  93.5165405  32.0175290  38.7382412  92.6177502  31.7911887  38.4991479
  93.5175514  32.9734111  38.7884402   7.8952754 101.1651421   3.2855600
   8.0740398 100.7796192   2.4278605   7.4223650 100.4822636   3.7612337
  62.0380878   5.6578702  24.0403247  61.4619064   5.1311076  24.5941925
  62.4100161   5.0324172  23.4184623  24.3055153  12.9748690  22.0161915
  24.1607213  13.5454047  22.7710104  23.9246511  12.1353793  22.2739363
  50.8079290  89.4430351  91.1688042  50.0439453  89.0352058  90.7610798
  50.5634260  89.5434570  92.0887852  18.7397623   1.4687246  23.3970261
  19.2261314   0.8279112  23.9157104  17.9297221   1.0182299  23.1580257
  37.9269147  23.8902545  17.2300208  38.6650872  24.4990230  17.2029865
  37.1885777  24.4221282  17.5270104 114.4703293  19.5106614  36.8092871
 113.9797783  19.5625424  35.9889770 114.9339485  18.6747646  36.7586565
  25.6035447  14.2258739   9.0730667  25.9729695  15.1030803   9.1743839
  26.3542080  13.6383498   9.1599733  54.5718765   7.0020753  11.9559312
  53.7195110   6.5955526  12.1122646  54.4828367   7.4241155  11.1014223
  57.5033426  22.7269030  24.4190669  58.3764601  22.4490762  24.1421032
  57.2192335  22.0485187  25.0316882  49.9732065  27.9999995  36.9859457
  50.6795120  28.6032820  37.2170734  50.0427485  27.9023933  36.0362768
  12.8798485  10.3194523  71.9866848  12.5226295  10.8703041  71.2901306
  13.0865431   9.4907737  71.5544796  55.8287764  15.8958173  30.5252934
  56.0004234  15.0386560  30.9152222  54.9359989  16.1082840  30.7973981
 109.2654228 107.9062653  44.4104385 109.5691872 108.7395096  44.7705269
 109.5213032 107.2554016  45.0639915 102.2152138  42.1300745   6.9112283
 101.2959576  41.9322586   6.7321777 102.2223186  43.0632496   7.1242106
  49.9489498  53.2839966  81.4923954  49.8934698  54.0290308  80.8939934
  50.2145624  52.5505257  80.9376812  49.5788479   3.2727835  39.2696595
  48.6563253   3.2134217  39.5179772  50.0563908   3.0239195  40.0610161
  47.1668577  31.4437723  52.0405674  46.9603825  31.6928816  52.9414225
  47.6624775  30.6292319  52.1249104  40.5822086  43.2212877  17.6537812
  40.2135372  42.4679279  18.1150389  41.1435747  43.6474466  18.3014619
  22.6117063   6.8506223  94.2431164  21.8826175   7.3321795  94.6339607
  22.9587555   7.4420309  93.5752583  43.6617851  31.5140557  29.1588783
  43.3495188  32.2184467  29.7268176  44.1290569  30.9211874  29.7474337
  41.1018181  59.5373631  24.5159864  41.8887854  59.8823738  24.0942287
  40.8601522  58.7772226  23.9868212 112.9033089   2.0592809  73.0865860
 112.9783058   2.3926099  72.1924400 112.8434467   2.8445160  73.6306953
  31.4096546  63.4328365  15.7748652  30.8138609  63.3064270  15.0364327
  30.8357120  63.6345148  16.5138853  85.6566429  16.9796288  27.8498673
  85.3229332  16.5861893  27.0435929  85.4279900  17.9062331  27.7766943
  40.4445601  63.4670305  12.6643956  41.3608503  63.2567978  12.8445244
  40.3928709  64.4176245  12.7640247  25.3927636  41.4568138  19.9557698
  25.1966739  42.3058653  20.3518653  24.5361543  41.0945082  19.7295213
 116.1954975  51.9204235  38.3251238 115.7506657  52.6212835  37.8485274
 115.9413528  52.0530367  39.2383909  24.5791507 104.8679543  36.3003635
  24.0077734 105.4597473  35.8109379  24.1653109 104.0092087  36.2135673
  57.0012379  57.0414639   9.8064548  57.3605776  56.1703396   9.9745154
  56.6104794  56.9753599   8.9351511  20.4722261  60.1769066  21.3920760
  20.8002782  60.7560444  20.7041717  20.8932424  59.3351841  21.2174916
  21.7027354   6.9281334   8.7416476  22.3510194   7.2060698   9.3887275
  21.1401939   6.3147217   9.2144102  24.0202451 107.8314209  27.4483061
  24.4353747 107.4281502  26.6858959  24.1073036 108.7728024  27.2984767
  70.3651571  14.8990667  17.2762442  70.8476639  14.6636117  18.0686951
  70.1664686  15.8291662  17.3842680  48.9992476  60.2931738  25.7572079
  48.3956337  60.8073425  26.2934041  49.3395758  59.6256447  26.3528657
  24.3620920  62.9659748  29.1092038  24.2742777  63.6499453  28.4453487
  25.2692366  63.0358791  29.4065809  52.4096346  54.7951365  19.6578765
  51.7565775  54.8714924  18.9622343  53.2231140  55.1019478  19.2574394
  51.4640188  73.3580017  80.1845932  51.5263319  72.5629568  80.7139778
  51.5750647  74.0726185  80.8116722  39.2514658  57.5925255  62.6087427
  38.8446999  56.7982054  62.9548979  38.5324693  58.2210732  62.5438738
  21.7065644  29.1783857   2.3172449  21.5513086  28.4682322   2.9399872
  21.4452028  28.8160253   1.4707133   9.5789415  41.1911201  33.1173611
   9.1936296  40.4448509  32.6581764   9.4056898  41.0183764  34.0427661
  40.9351349  24.3435812   9.1808200  41.6671658  24.1772580   8.5869348
  40.2195978  23.8106203   8.8341361  22.8407574  57.2174263  27.4188495
  22.8194857  58.1345797  27.6919818  23.4174347  56.7918777  28.0533433
  26.9438171  44.4985247  16.1380613  27.2925997  43.6766529  15.7929385
  26.2198663  44.2322445  16.7048275  78.5299492  57.1645975  17.4659896
  78.9792919  57.6656103  16.7853200  78.8561392  56.2709141  17.3603344
  71.5090656   0.3359386  14.8669505  71.2687826  -0.1030179  15.6829250
  71.0262966   1.1622012  14.8883152  67.9836464  45.8285666  25.1548100
  67.8745937  45.7602406  26.1033201  67.4703169  46.5983486  24.9095345
  70.6250715  12.1139324  54.1887951  70.9646893  11.7102635  53.3900833
  70.4434633  11.3764405  54.7713423  41.2066698  51.1888170   1.2851505
  40.4635382  51.7731094   1.1348274  40.9010458  50.5809641   1.9584545
  50.2183676  16.3328111  54.7097206  50.1579666  15.8346069  53.8946295
  49.9503469  17.2195864  54.4688368  41.8376207  13.7950253  20.0667787
  42.3959303  14.4515967  19.6503246  42.3197412  13.5334408  20.8512282
  49.3725920  38.3149815  14.8694670  49.4483709  38.5124826  15.8029985
  49.3142605  39.1720676  14.4472897  52.3177958  58.4392118  19.7534215
  51.8432426  57.8633976  20.3529811  51.8720150  58.3301067  18.9134181
  49.5472622  39.6822071  36.5971732  49.3619299  40.6000996  36.7955565
  49.5091009  39.2412949  37.4459195  40.2170372  52.5143242  26.1359930
  40.1990128  51.6624260  26.5720868  41.0337210  52.5105953  25.6367517
  38.7895775  19.1619313  12.8197205  38.4534717  19.7344840  12.1301925
  38.9291573  19.7434914  13.5670745  49.7631979  38.1647730  10.2615130
  50.3484154  37.4125838  10.3507459  50.1599360  38.6963701   9.5714164
  50.1498508  82.5223923  92.5892925  50.9894800  82.8991985  92.3261070
  49.4996119  83.1654644  92.3066616  33.5558176   3.9684120  57.3007488
  33.4880018   3.3187339  58.0004311  32.7089763   4.4145855  57.3052931
  73.0063009  79.7083616  62.3711729  73.0434895  80.6628036  62.4335670
  73.8741493  79.4548988  62.0567989  41.4114332  29.9380493  26.8168187
  42.2197533  29.9778914  27.3279643  40.7722092  29.5432687  27.4099207
  11.6436493  23.8207293  25.6938601  11.1430311  23.0120373  25.5860233
  12.3495436  23.7529755  25.0509334  54.8089647  30.6674147  54.9744606
  54.8695230  31.4690685  55.4939985  54.3857479  30.0362206  55.5564499
  42.4119043  64.5272970   4.7072405  41.5982246  64.0267611   4.7673932
  42.2186375  65.3528833   5.1514059  37.6920104  23.2346153  12.8504348
  37.6563668  24.1910458  12.8363085  38.6159301  23.0272746  12.7103877
  46.7609882  26.4418221  53.2625723  47.0494699  27.1004248  53.8944387
  47.4091911  26.4842892  52.5595379  28.1191778  30.6072354  14.7796929
  27.8590465  30.2718806  15.6376565  27.3667717  31.1202693  14.4848835
  30.5412006  92.4076748   9.5079136  30.6237459  92.2166538   8.5736066
  31.2594533  93.0127144   9.6930516  58.1557465  25.3156018  25.8558750
  59.0473127  24.9688578  25.8226061  57.6031637  24.5817661  25.5868554
  28.6695838  24.7410989  29.8632145  29.5603156  24.8169160  30.2053905
  28.3927917  25.6450820  29.7134399  49.0985584  26.4461422  15.8820736
  48.2577515  26.7344666  15.5269039  48.8660431  25.8664584  16.6074252
  43.9918184  23.6168742  51.2776423  43.6938000  23.2936811  50.4273701
  44.8797369  23.9352942  51.1150312  86.2278652  98.7734413  92.5968361
  87.0293999  99.2944622  92.5488186  86.0546589  98.5164356  91.6911983
  44.4386625  29.7947097  43.3509302  44.5321274  28.9331913  42.9443836
  43.5254049  30.0353098  43.1950378  19.2100275  94.8742104  26.2326360
  20.0709510  94.4757175  26.1051917  18.6141098  94.3249989  25.7232428
  17.0159531  20.7410002  42.1739388  16.9810832  21.4380336  42.8290415
  16.1425483  20.7364702  41.7823029  55.6464434  23.8718319  31.5930009
  54.6986532  24.0018678  31.5611076  55.7666779  23.1307340  32.1867609
  88.3856010  39.4527125   5.6921142  87.5246334  39.2388535   6.0515851
  88.5741329  38.7398410   5.0817871  66.0165691  32.2210932  44.6217871
  65.8662891  31.3751054  45.0436306  65.2522564  32.3475266  44.0595818
  12.0330739  17.8733885  13.0892849  12.6400781  17.8843701  12.3492467
  12.5590646  17.5619888  13.8258958  46.7078876  14.1662502  51.3381386
  47.4549961  14.7347093  51.1512661  46.1721754  14.2065918  50.5459166
  27.2241449  16.1028123  18.5002649  28.0757666  15.7153010  18.7022758
  27.3794746  16.6257870  17.7137518  23.3345127  26.0401130  30.6535435
  24.1598701  26.5248775  30.6489921  23.5954261  25.1238155  30.7460308
  17.0865345  41.2152767  48.2144403  17.3654783  41.6773415  47.4239254
  17.8915918  40.8357620  48.5666990  30.6984711  38.4229565  40.2433538
  30.3749561  37.5253248  40.1670170  30.2939391  38.7560415  41.0443783
  15.4263735  72.1838713   7.0154673  16.3422740  72.0194054   7.2397649
  15.4421842  72.3918343   6.0812652 103.5413933  73.8672161  93.2745266
 104.0025997  73.3878517  92.5862408 103.3121967  73.1984186  93.9198303
  22.5424600  12.5618052  25.4962897  22.7545595  12.1732128  24.6476197
  22.3927546  11.8121099  26.0722899  83.0680656  11.8349838  81.5278339
  82.5688171  12.4844205  81.0326481  83.3047581  11.1705327  80.8807564
  39.6305823  41.2076378  44.7308826  39.7341704  42.1222591  44.9935007
  40.4623270  40.7956314  44.9647236  72.2704315  81.5456200  78.7912035
  72.4670887  82.4001789  79.1749668  72.5851440  80.9143353  79.4382524
  60.8394098  50.6322145  27.3296499  61.2523556  51.2882853  26.7681551
  60.0034618  51.0245752  27.5816035  69.5044184  40.7022333  26.7101884
  69.8357630  41.5102386  26.3183045  69.9743652  40.0043821  26.2537003
  41.5985012  53.8023281   5.7742745  42.1915245  53.0566740   5.6817913
  40.7317972  53.4443140   5.5822319  33.3402658  30.2227449  11.9849145
  34.2349434  30.5350184  12.1200752  33.2291007  29.5267439  12.6325703
  46.1015749  58.4769011  24.2840743  46.1004114  57.5775623  23.9563298
  46.4835835  58.4123516  25.1593661  33.7092924  46.5236330  12.2120714
  33.7847590  47.1890593  11.5281570  33.4601736  45.7265568  11.7442679
   2.0590538  27.8768992  43.3351707   1.9615518  28.0504394  42.3988962
   1.1655329  27.7314305  43.6461210  91.2150383  11.8046105  17.6215756
  91.9083786  12.0658803  17.0155692  91.3426018  10.8633757  17.7400422
  67.9211569  41.6226006  41.7888498  68.2875347  41.3023233  40.9645796
  68.6845493  41.7870569  42.3424006  41.7962742  52.5587702  41.8858385
  41.1177921  53.0613089  41.4348888  42.0565891  53.1137276  42.6210213
  94.4741440  65.2271080  24.4714379  94.6677303  65.3514385  23.5422969
  95.3310585  65.2359009  24.8978901  23.0541873  52.3456955  18.4313011
  23.4527659  52.0676851  17.6066327  22.2497296  51.8307781  18.4940803
  40.2365112  52.5487852  20.3704691  39.9171448  51.6502380  20.2877331
  40.9802198  52.4844313  20.9696245   6.3868153  21.3506317   5.0196797
   5.9884322  21.3632393   5.8899462   6.8230587  22.1992445   4.9436477
  85.6974220  34.6809363   9.1834533  86.0420799  33.8444853   8.8707364
  86.2739754  34.9214530   9.9086910   7.8663647  41.5184832  35.1567340
   7.4405569  41.2024212  35.9536171   7.1871692  41.4638996  34.4844627
  71.6849470  51.4043379  14.4023132  71.2101364  50.6644821  14.7809911
  71.4719963  51.3734913  13.4696114  49.1836548  19.2378902  35.9498191
  49.7235775  18.4479380  35.9760737  48.4742689  19.0231228  35.3441119
  42.4474144  58.5267687  30.5824471  42.6442862  57.9208136  31.2967920
  42.2877502  57.9619074  29.8263574  34.5095420  57.6576233  31.7233539
  35.0373888  57.1594667  32.3474121  33.6892986  57.8285265  32.1861982
  41.8736601  25.0056911   0.7453125  41.6817904  25.7526040   1.3123576
  41.5034580  25.2480412  -0.1034815   2.2569260   7.6364422  68.8441372
   1.4987412   7.9567742  69.3327856   2.6802805   8.4283686  68.5126925
  30.1366973  54.3413496  34.0497017  29.8854113  53.7418365  33.3470845
  31.0928011  54.3672466  34.0119529  37.2072864  20.1761532   4.9830785
  37.7381921  19.8520839   4.2555141  36.6373849  19.4412386   5.2096736
  45.0174141  22.7515030   7.3720455  44.2933750  22.9132628   6.7672032
  44.5985460  22.4045944   8.1597239  29.2602301  17.2549796  64.2689943
  29.2413497  16.8433762  65.1329756  28.6686635  16.7226481  63.7371063
  63.7298107  29.1551685  28.8446832  64.5292902  28.7416887  28.5189486
  63.0283213  28.7627316  28.3249354  43.8546896   8.7287742  42.8395891
  44.5358801   8.7093890  42.1674013  44.2275190   8.2389534  43.5726023
  29.4902539  54.2791653  30.1234531  30.2524853  53.8288641  30.4874039
  29.6139002  55.1960421  30.3689885  66.4380455  27.9828930  28.3401871
  66.7204809  28.7886405  27.9074836  67.2312212  27.4499130  28.3952785
  -0.1781978  46.1790609  17.6168716   0.5593644  45.5976915  17.8019214
   0.0526009  47.0028734  18.0461657  31.0265517  45.4479599  20.0424767
  30.7194185  45.6438065  19.1572976  31.9811440  45.4671764  19.9745083
  37.5661707  44.3878555  39.9592018  37.7783704  44.6598864  40.8520651
  37.7059937  45.1730871  39.4299626  77.5923510 103.2217861  94.3802772
  78.1793614 103.6629653  93.7662653  78.1684585 102.6659799  94.9050734
  15.4141474  41.2388659  29.7929072  14.8541951  40.9201813  30.5008101
  16.2869394  40.9131002  30.0127745  47.3168707  26.8063450  37.1041965
  48.1192875  27.2591877  37.3636103  47.4286556  26.6379738  36.1685753
 116.7266846  27.3080277  90.4964256 116.1633205  28.0705214  90.6285286
 116.1951542  26.7045879  89.9772263  95.6405926  35.8276939  19.0377915
  96.5467262  35.6573272  19.2949438  95.1312542  35.6617332  19.8310542
  37.8409314  27.3397374  17.5439465  38.2468438  26.5185165  17.2663438
  37.8361893  27.2933793  18.5000122  51.0384941  48.2549858  17.6079965
  51.2483358  49.1888952  17.6107740  51.6824818  47.8665638  17.0158446
  64.9722815  84.5271015  91.7334175  65.5196381  85.3111172  91.7775536
  64.2478704  84.7728062  91.1580181  75.0961351  28.9930415   4.7250065
  74.6814871  29.7053671   4.2382911  75.6989288  29.4321036   5.3250855
  18.8641751  99.2743778  39.2247963  19.2676735  98.7396336  38.5410810
  19.5050371  99.2776108  39.9357963  68.7139416  52.9266071  20.4387903
  69.6602535  52.7881765  20.4782748  68.5966063  53.8473415  20.6726956
  57.9111290  64.2222881  35.2757287  56.9938087  64.0045023  35.1104236
  57.9285240  64.5085478  36.1889577  55.3290415  54.1358042   9.1209793
  54.9519873  53.7199211   8.3456707  54.6956158  54.8116875   9.3621874
  24.1321301  33.8280916  37.9392004  24.3461347  33.1194544  37.3323488
  23.1974649  33.7191510  38.1145954  20.0562191  37.6138139  61.6710281
  19.9169409  36.8484235  62.2287083  20.9191585  37.4725962  61.2816334
  45.6082535  33.3459401  25.9070826  45.9496880  34.2401719  25.9059048
  45.8885670  32.9836392  26.7475533  18.3453548  14.7190952  35.7642746
  18.0946267  14.4380724  34.8842764  18.8717079  15.5060947  35.6235051
  48.2018137  39.4643164  51.9593573  49.0901709  39.5448613  52.3065853
  48.1937551  38.6157322  51.5165567  48.9539146  21.3186717  88.1080437
  49.0609741  21.4582634  87.1671486  48.5420370  22.1228266  88.4241486
  63.0706120  50.0004148  13.7377465  63.3558178  50.8926392  13.9347816
  62.1356583  50.0837278  13.5502636  79.1787577  52.3397398  13.4348571
  79.4090700  53.0329895  14.0533996  79.8024750  51.6374159  13.6191237
  73.8507032  42.7756739  18.2619667  73.2798576  42.0924330  17.9104757
  74.2354012  42.3859310  19.0470409  30.1574254  57.2436380  36.7614818
  30.7413197  56.8492889  36.1135697  29.7783732  57.9998350  36.3134694
  64.2997122  62.4991035  15.2160871  64.0306568  61.5805769  15.2039230
  64.9463224  62.5499725  15.9200323  68.5884047  16.4007294  42.7562666
  67.6358271  16.3067842  42.7537394  68.7471247  17.2190619  43.2267714
  18.1631947  33.1493878  27.9041648  17.7326930  32.4941063  27.3550677
  18.1800091  32.7568126  28.7769961  26.2011313  29.9604464  11.0968745
  26.1957407  30.3793788  11.9575131  26.7744350  29.2013884  11.2035680
  56.3055515  50.7043934  24.2924929  56.5100241  51.5777922  23.9584279
  55.6846285  50.3449154  23.6588812  62.0772505  68.9050341  89.1701984
  61.9875669  68.9853001  90.1198006  62.7267551  69.5673370  88.9341354
  58.0049038  59.6649218   1.7148153  57.4749613  59.1413498   2.3158681
  58.5780668  59.0297937   1.2854774  43.0554438  11.0017717  44.3504524
  43.2492256  10.1651323  43.9277029  42.1268654  10.9466755  44.5761585
  70.2452993  10.1556778  44.9460745  69.6563768  10.2099884  45.6987047
  69.8495388  10.7298219  44.2903566  48.6432600  30.3653312   0.4959164
  48.3359480  31.1323571   0.9790956  48.9063358  29.7440910   1.1749474
 101.4045715  31.2309551   6.5550828 101.0308838  30.8751702   7.3613137
 101.8832016  32.0106196   6.8366265  36.5058064  25.8097172  38.6947155
  35.6110168  25.5195355  38.5175776  37.0378637  25.3597665  38.0384421
  36.2004876  29.9583530   7.9749882  36.4787817  30.8405495   8.2209772
  35.6395531  30.0886250   7.2103888  99.2303944  99.0926266  90.7505512
  98.3250999  98.7817287  90.7460117  99.1680622 100.0151348  90.5028820
  50.9672880  12.7745926  26.5089512  51.3299704  12.9785812  27.3709726
  51.7208385  12.8024447  25.9193587 113.2149220  26.4077234  45.7642078
 114.1188812  26.3080311  45.4656219 113.0986404  25.7127213  46.4120388
  59.0721846  36.0696411  11.6308331  59.7438860  35.5862522  11.1498058
  58.2471323  35.6668806  11.3600850  54.0100527  44.9208498  13.0372095
  54.1667986  45.1447392  12.1198559  53.9305973  43.9669609  13.0407417
  59.5371485  42.8101397  14.6498179  60.1001883  42.3288250  15.2560771
  59.8863697  43.7013483  14.6548760  90.3181648  98.2066250  85.7679653
  90.6693459  98.5472393  86.5906906  89.8170853  98.9352417  85.4015446
 100.4410648 108.9792442   2.2883289 100.6262684 108.1528664   1.8422094
  99.4863510 109.0476322   2.2792140  29.1180944  16.2961364   2.3068438
  29.8403215  16.3353086   2.9338092  28.4377551  16.8496048   2.6903066
  94.8643970  91.1902046  57.1726131  95.4269218  90.4421806  56.9719744
  94.3420410  90.9029961  57.9215336  19.2143404  36.8900108   9.3428677
  18.6750913  36.2152076   8.9304572  18.6946273  37.6904011   9.2686903
  50.0813723 101.4349270  90.4460716  49.2401457 101.8631458  90.6048298
  50.7313728 102.1221447  90.5925941   3.3028325  44.0452480  33.1847525
   4.0212739  43.7752819  32.6127458   2.5260183  44.0098095  32.6265979
  50.0437498  35.6907773  28.5224557  50.8570433  35.6006980  29.0191221
  49.6522999  36.5010190  28.8488078  24.3816400  41.8479633  45.8998632
  24.8395014  41.5917778  45.0992584  24.9528694  42.5011778  46.3038874
  65.0103807  50.1858711  11.4137268  65.1287079  51.0130167  10.9467578
  64.2166805  50.3153229  11.9328690  52.9913425   7.1057749  20.9049153
  53.5298681   6.5724003  20.3203368  53.1514072   6.7425656  21.7759442
 107.2497082  32.8269267   5.4733145 106.4415455  32.3218060   5.3840578
 107.7138901  32.4098778   6.1991465  58.8444996   5.2244979  23.3825350
  59.6014071   5.7922935  23.5272241  58.6549807   4.8537335  24.2444205
  68.6623716  49.0699387  33.6730576  69.3498468  49.1548109  34.3336701
  69.0749073  48.5837126  32.9591751  84.9759769  24.8697042  34.8637819
  84.5717907  24.8176670  33.9976645  84.6357536  24.1079330  35.3330183
  45.6004047  23.6550093  17.7797198  44.7919416  23.9782000  18.1774211
  45.9579802  24.4117141  17.3152089  62.6292324  22.1114922  38.8350868
  63.3787680  21.5204883  38.7633443  61.8688297  21.5310335  38.8680196
  41.1641979  15.6326365  32.0518160  41.6249466  14.9962044  32.5985289
  41.6386223  15.6222284  31.2205243  80.4022694 100.2234650   5.3356695
  81.0717297 100.0074291   5.9848130  80.3276920 101.1768723   5.3767020
  31.7432523  69.6006489  18.5379148  31.5511918  70.1401997  17.7709520
  32.6633835  69.3575811  18.4354210 115.6711102 101.6742134   9.8173851
 116.6221333 101.6488171   9.9228895 115.4951859 101.0807514   9.0872610
  47.5785732  40.2131319  16.8805861  46.7348289  39.9141216  17.2195935
  48.1292772  40.3071117  17.6578391  30.8430386  31.4794850  25.9151125
  31.7910290  31.4381146  25.7892704  30.7185340  32.1619320  26.5746546
  48.5405779  28.2587552  32.6633692  47.8947973  28.3716822  33.3608294
  49.3130875  27.9081583  33.1066990  32.7653623  41.1921597   9.8576087
  32.0297265  41.2902641   9.2530888  33.4849715  41.6633463   9.4376314
  61.8590689  36.5302420  17.2070503  61.6447973  37.0172262  16.4113331
  62.3153782  35.7491136  16.8942380  44.7739840  19.0108657  18.7332618
  43.9867783  18.5044694  18.9335167  44.4984436  19.6215999  18.0496597
  39.9415350  60.4515171  87.2670174  39.7448134  59.5798922  86.9237900
  40.8688688  60.5830097  87.0695400  37.7031016 108.1068325  49.0041685
  37.7223969 109.0481663  48.8317108  36.7902374 107.9225254  49.2254066
  28.4036326  38.9241529  59.7308302  28.5841990  38.7336159  58.8103247
  27.7506065  38.2727289  59.9866295 116.2550926 102.2102547   4.2637768
 115.4531288 101.9107723   4.6920291 115.9627247 102.5482941   3.4173238
  47.6605654  35.1374292  31.2449241  46.8667459  34.6034336  31.2754774
  47.7529049  35.4803514  32.1338034 111.2675858  64.9616671  63.8378525
 111.3922119  64.4227982  63.0566216 112.1178150  65.3778124  63.9798975
  20.7653952  18.6121559   1.5827037  21.6986227  18.4636068   1.7351843
  20.7302690  19.4361734   1.0969125  48.3181715  31.4740920  16.8508911
  48.7254095  30.6791615  16.5066922  48.7756443  32.1886945  16.4078450
  79.5011282  48.8087416  28.1027818  79.4446087  48.5388184  29.0193939
  78.6148691  48.6871290  27.7622056 100.2713394  91.2601948  89.4337940
 100.0472927  90.3510952  89.6327400  99.4313049  91.6777802  89.2435360
  29.4384933   3.6471868  27.3524332  28.9280033   4.2447346  27.8988481
  29.4197130   4.0438750  26.4815044  29.3788457  43.4405518   8.8862664
  28.4588456  43.6764574   8.7671828  29.7576404  44.1833019   9.3564463
  49.3973446  28.3585644   2.0872460  49.9714994  28.0273938   1.3966610
  49.6403742  27.8537655   2.8633565  66.2313700  10.7457793  23.1096697
  67.1239853  10.5430806  23.3896446  66.1727047  10.3924155  22.2220182
   9.5229906  42.0990229  68.1481791   9.9623799  42.4395227  67.3689318
  10.0176096  41.3122559  68.3774996   9.5298469  21.2114477  40.5045319
   9.5796275  20.5161238  41.1604929   9.5366114  22.0219731  41.0136843
   3.9615977  40.1704121  46.2261820   3.3627096  40.6923389  46.7601824
   3.3945975  39.5520663  45.7653236  40.8446646  41.6367340  25.5865073
  40.7058001  40.8318663  25.0873709  41.7865849  41.6539574  25.7559967
  37.8222036  14.4371212  25.1495433  37.4860024  14.0311813  24.3505383
  38.3338070  13.7470531  25.5717993 115.3346729 107.1885681  39.4212842
 115.5524254 106.6691780  40.1952696 115.5322933 108.0902481  39.6745539
  75.4662895  38.1486821  27.2975016  75.5554342  39.0972137  27.2049093
  74.7074556  37.9256678  26.7583704  28.9717627  59.3830919  35.0787115
  28.8653421  59.1687107  34.1519189  28.3178973  60.0623274  35.2440429
  92.5244713  81.2364960  78.7053251  92.9781151  81.2951374  79.5461607
  92.2977448  82.1416283  78.4918642  30.9137821   2.8753203  15.3524327
  31.6209769   2.9407123  15.9941745  31.1832476   3.4541151  14.6392584
  58.8671255  40.0806189  20.2406597  59.5040417  40.2066231  19.5373178
  59.2641449  39.4195008  20.8076978   2.7867031 104.9866295  23.7938499
   3.5146043 104.9750233  23.1723547   3.0568689 104.3881607  24.4903255
  24.7483134  37.3238873  65.6729460  23.9873409  37.9045081  65.6788063
  24.7335672  36.9184518  64.8059797  19.9392843  22.4397206  24.8290348
  20.4331875  23.0814433  24.3186617  19.0747607  22.4213791  24.4185567
  24.0032578  13.0685544  29.3783021  24.6515250  13.1204438  28.6759567
  23.7684250  13.9794695  29.5552707  23.5440445  47.4540710  20.3957129
  22.8175068  48.0135965  20.1212859  23.8653779  47.8571558  21.2022471
  45.0692892  40.1750517  65.3716803  44.7585583  39.7723150  66.1825323
  44.2935801  40.5954218  65.0004721  70.3056574   2.7833253   8.5645771
  70.4155350   2.2097084   9.3229461  70.8486748   2.3865272   7.8834635
  70.2012777  54.6814585  13.9802504  71.1128998  54.8991203  13.7858224
  70.2317286  54.2737293  14.8457313  36.7078471  21.9713521  15.2105939
  36.9918895  22.7798867  15.6370032  36.8563509  22.1274900  14.2779624
  73.4806252  48.8949251  14.8846126  72.6466513  49.2522717  15.1896131
  73.8893700  48.5353136  15.6719100  78.1058359  65.0634527  29.6749091
  77.6845837  65.6563663  30.2971911  77.4408150  64.4009876  29.4875097
  52.5070572  50.5231094  17.6248872  53.2752895  51.0728168  17.4703741
  51.9378233  50.6904364  16.8737495  47.6745367  46.3735056  40.2253199
  47.2513103  47.1448851  40.6022549  47.6164055  45.7089615  40.9117889
  62.9592276  33.8571477  28.8099527  62.0850515  33.5162115  28.9991975
  63.4339476  33.1101036  28.4455419  57.8865719  43.1790924  10.0749254
  57.9972506  43.7523937  10.8334160  58.7465096  43.1692314   9.6546370
  50.9556007  50.7780600  31.8553257  50.9552813  49.9490499  32.3338318
  51.2528610  50.5465937  30.9753871  43.5243559  68.0718327   4.8860252
  42.6847076  67.6938581   5.1474786  44.0422821  68.0845785   5.6908965
   7.4989384   1.5106516  84.8145771   6.6343457   1.5670280  84.4077206
   7.5584376   2.2948028  85.3602886  59.2619801  64.7914743  10.5956006
  59.3901157  64.1221714   9.9234045  58.3725452  65.1126432  10.4473293
  33.7857604  17.9647362  32.0205212  34.1564989  18.1953728  32.8723383
  33.5314012  17.0463705  32.1107388  33.4997511  47.6097727   9.7222197
  32.5444937  47.5824881   9.6677530  33.7944460  46.9518805   9.0924823
  76.3266039  60.2038813  14.7454917  76.6533327  61.0920382  14.8892283
  76.7615461  59.9156189  13.9430225  84.3981743  38.0813599  50.8634472
  85.1650906  37.7781224  51.3493729  83.9198780  38.6274791  51.4873219
  46.7359304  34.7657180  15.1050484  46.6448307  34.8996782  14.1616571
  46.5867567  35.6313491  15.4853916  34.9476576  29.7111297  58.3145571
  35.6019115  29.0170765  58.3950186  34.3506932  29.5637631  59.0481424
  54.7990131  31.5483284  14.6805596  54.2304754  31.7555332  15.4222226
  55.4807949  30.9876347  15.0507247  48.4006739  34.5534849  22.6370573
  48.7017918  33.8266683  23.1823063  47.8964424  35.1072192  23.2331777
  68.4491444  27.3808432  40.1692486  67.8297949  27.9559946  39.7199869
  68.8059568  27.9186368  40.8761406   3.3121333  46.8343925  33.3770609
   2.5278324  46.9710541  33.9085007   3.3277649  45.8918142  33.2111239
  71.5770006  10.3195536  23.2396817  71.5355158  10.3727508  24.1945028
  72.0606184   9.5120668  23.0655742  46.7667294  48.9517927  21.6187358
  46.0546064  48.3263016  21.4850211  46.8674946  49.0003777  22.5693750
  42.3783731  54.6797419  24.8326492  42.6975679  55.5093861  24.4776344
  43.1483889  54.1112280  24.8421764  26.4003730  18.5851371  19.7017753
  26.6616797  17.8262055  19.1802657  27.2264791  18.9774704  19.9843669
  55.4444265  37.0872951  30.6115127  55.3271484  37.8257251  31.2091732
  56.0624695  37.4069834  29.9542046  25.7462931  51.7772818  22.7199006
  25.8823085  50.8426905  22.8756881  26.4514828  52.0255804  22.1221638
  41.2421799   0.9264957  81.8115711  41.3794565   1.4576937  82.5959301
  40.3018904   0.9869056  81.6429329  30.9825301  34.5032382  84.6038342
  31.9267154  34.3534327  84.5558167  30.5981326  33.7596679  84.1395378
  95.0105091  73.6534620  94.8349823  95.3855749  73.8747132  95.6873945
  95.0073381  74.4803369  94.3527994  50.8575296  46.3939667  31.5901637
  50.9002256  47.3429966  31.7074299  51.6718006  46.0683584  31.9737911
  86.7757320 109.5424366  94.0545845  86.4118004 108.6661625  93.9283562
  86.9590855 109.8555183  93.1688118 103.0219555  61.4898729   7.5309205
 102.9015160  61.7978048   6.6326416 103.3329678  60.5896187   7.4358350
  64.1195250   7.8683257   9.6407115  64.2983198   7.0294762  10.0656760
  64.8105192   7.9563189   8.9841962  42.6741076  44.2861795  27.7755165
  42.6703119  44.3754292  28.7285399  41.7488623  44.2952538  27.5304246
  68.1617594  62.7709293   1.0998422  67.3129225  62.5450563   0.7194584
  68.7942362  62.2603893   0.5943184  25.2522969  23.7197256  55.8208847
  26.1511540  24.0459824  55.8638287  24.7344518  24.3838191  56.2759113
  57.0037746  48.0684137  25.0955129  57.0779371  49.0111113  24.9470162
  57.5242615  47.6740265  24.3956637  36.7075467  55.9144402  24.5784616
  37.5246286  56.2843704  24.2441583  36.9225764  55.0043488  24.7827268
  91.7873287  96.7419529  93.8550282  92.0869064  96.6525555  94.7597408
  92.5865459  96.6850471  93.3313465  73.8360882  21.9698858  16.8979251
  73.9270258  22.1230865  17.8383994  74.7213793  21.7560196  16.6033888
  31.9023824  45.6032753  62.5645590  32.4685788  45.7747173  61.8120575
  31.3910913  44.8353004  62.3095512 116.2573338  57.5852585  13.6739397
 115.6566238  56.8575478  13.8346136 116.5089798  57.8854179  14.5473313
  18.5211349  63.4230995  13.8451505  17.7317154  63.7268972  13.3970916
  19.0269923  62.9791260  13.1645429  69.5937109 103.5915756  84.5055485
  70.0695992 102.9592800  85.0440311  69.1953754 103.0644798  83.8129139
  43.4871054  55.7494879  35.4870677  42.6156712  55.6439781  35.8687878
  43.9369488  56.3515663  36.0798383  22.0564413  48.8776302  14.2768288
  22.0335531  48.9575577  15.2304125  22.9886246  48.8668728  14.0596843
  79.6008587  38.6648178  26.9615793  79.5247364  39.2027330  27.7496696
  80.2226734  39.1373873  26.4081788  54.1210413  17.4095941  43.6077404
  53.4012794  16.7853308  43.6997557  54.6891785  17.2322941  44.3574190
  50.9469795  91.4354134  83.5623932  50.7250500  92.1157551  82.9266930
  51.6493464  91.8185329  84.0878677  31.3052773   9.1300571  56.7483950
  32.1920824   8.8588911  56.5111732  31.2807679   9.0604651  57.7027512
  35.4638553  31.7986584  40.1290321  34.7996187  31.8684006  40.8147144
  36.1683989  31.2889051  40.5290365  34.8602366  59.9499702   2.8596303
  35.3173423  60.1536512   2.0436636  34.0143490  59.6003819   2.5794676
  55.4499531  28.7558341  41.6365862  55.1973963  28.5854578  42.5440073
  56.2160587  28.2002687  41.4928436  91.0291958  47.7388191  22.6145387
  91.8959332  48.0064774  22.3089910  91.0913658  46.7882776  22.7085471
  80.0834465  51.6283178  56.3634920  80.1563454  51.1133385  55.5599260
  79.1820717  51.9504118  56.3606024  21.1799121  24.1989708  32.6146865
  21.8746734  23.5416818  32.5758243  20.7829022  24.1796064  31.7439151
 115.5220509  24.6531916  91.8466187 115.2847099  23.7311363  91.9451714
 115.5526447  24.9896836  92.7421951  53.9994669  54.8326159  15.5945921
  54.8604679  54.9707031  15.1998270  53.7568998  53.9436913  15.3353488
  63.4516764  42.6994324  29.5633483  63.7220144  42.7232933  28.6454272
  64.2456150  42.4584961  30.0406718  67.7936649  24.3814802  35.2912664
  67.5976229  24.4018507  36.2279534  68.7258244  24.5921254  35.2370262
  64.0742779  18.3259654   7.4102819  64.7345638  18.8985789   7.8006244
  64.5191336  17.9196680   6.6664696  82.9007339  70.4211235  33.0756140
  82.2469044  70.0320530  32.4947739  83.1291485  71.2511730  32.6571941
  64.1753340  30.4558611  39.7587562  63.7886477  29.9326372  40.4608583
  63.7189436  30.1696205  38.9675498  40.2912855  40.0671244  40.0182056
  40.3610706  40.7506418  39.3517494  40.8002186  39.3367386  39.6664071
   7.3002118   8.9449239  76.8436670   7.3469645   8.0450958  77.1667051
   7.6676524   9.4731957  77.5522900  90.9470463 104.1794682  89.8634148
  90.2145576 104.3944168  90.4409122  91.7201042 104.2392826  90.4246998
  71.0774660  47.6785517  34.5742679  70.6477356  46.9761801  35.0623631
  72.0029736  47.4343681  34.5680189  28.3128977  20.1250267   2.9334190
  27.6766157  20.7200599   2.5367916  27.9095912  19.2599928   2.8606898
  87.0807838 100.9222221  90.5067921  86.4469910 101.2883377  89.8899555
  87.5235653 100.2316093  90.0135994  50.5481195 103.1307602   9.5574355
  51.3482714 103.5540962   9.8685205  50.8512402 102.3280907   9.1330916
  17.2861195 109.5886898  88.0477333  17.8504825 109.0310764  88.5832691
  16.6399491 109.9362373  88.6624813  80.3354836  45.4195833  27.3860097
  81.0798550  45.8913898  27.7595687  80.7106972  44.9106836  26.6673565
 100.1955128  27.2961211  35.1902938  99.8159027  26.8953252  34.4083118
  99.9409389  28.2171893  35.1349640  72.3971415  89.9153233  93.4840298
  73.0272484  90.5811310  93.2085323  71.5754938  90.3939724  93.5937023
  38.2761931  40.5465031  11.3719571  38.6282921  41.1918545  10.7589447
  37.3889232  40.8530664  11.5590537  96.5338326  73.9324665  32.8042483
  97.1261024  73.7793112  32.0680499  96.8637657  73.3632612  33.4995055
  37.1675777  28.7465882  42.1266651  36.6240072  29.3907619  42.5803232
  36.6143465  27.9679704  42.0640326  70.3485632  84.4235611  13.5845292
  70.8933020  84.6784306  14.3291974  70.8567286  84.6832371  12.8160477
  22.7039480  78.7136173   2.8961974  22.6017761  79.1011047   2.0269173
  22.0424509  78.0225801   2.9296517  36.8651628  32.3015714   8.9168870
  36.7237258  33.0999279   9.4256639  36.9388700  32.6042557   8.0118012
  55.5231667  45.2586603  25.9331393  56.2297440  44.6199512  25.8381295
  55.7892370  45.9940481  25.3811955  17.9683340  67.9938173  36.5453982
  17.8515160  68.0550718  35.5973315  17.2264862  67.4681425  36.8446612
  54.6120739  59.4883013   6.3810050  54.1598272  60.2118969   6.8147200
  54.3306398  59.5429611   5.4677486  56.3888931  80.3157139  21.3991976
  56.4108372  80.9871578  22.0810509  55.4787350  80.3047943  21.1030173
  37.3961592  53.0152988  20.8673072  38.2979441  52.8070927  21.1115789
  37.2918749  53.9378834  21.1001039  55.4214859  21.5926623  46.7556572
  54.4671774  21.6322112  46.6927433  55.6900024  22.5004435  46.8973112
  24.9576020  37.5823021   5.5458087  24.2850184  37.0792747   6.0049695
  25.5947900  36.9268799   5.2618259  75.3825283  65.3238630  19.8433721
  75.9015942  65.2290726  19.0447390  74.5587921  64.8771477  19.6480811
  70.4853201  58.0808973   4.0503570  70.0954533  57.4440145   3.4515125
  71.2824583  57.6556301   4.3665126  22.2726655  27.0949531  17.0460546
  22.2022009  26.1879706  16.7483199  21.8030000  27.6016855  16.3835847
  42.1986628  50.7401705  29.1735125  42.3239231  50.8091879  30.1199675
  42.9555845  50.2404881  28.8675427  59.5752382  14.7760618  43.5601997
  59.0196466  14.5911098  42.8030062  59.8795033  15.6728280  43.4206772
  17.8370488  55.1649475   1.5271775  18.3470047  54.4654894   1.1186010
  17.7852309  54.9159098   2.4499598  31.4486766  38.1811166  31.7126322
  32.0708013  38.7276459  32.1927357  30.5971289  38.3970857  32.0927048
  44.3698645  80.9418583  70.9721375  43.8820362  80.5329990  71.6870356
  44.3926668  81.8715763  71.1987257  59.1215658  42.2381067  31.5934277
  59.9831963  41.8213224  31.6041398  58.9510250  42.4591494  32.5090075
  41.8058777   3.2460931  19.1507840  41.5313625   3.1855434  18.2357931
  42.6530933   3.6903471  19.1177642  47.1097660  29.4636464  18.1946480
  46.7258453  29.2654920  17.3404980  47.4689245  30.3455257  18.0970383
  56.4848614  68.7296438  27.9215765  55.6163883  68.7593842  27.5201941
  56.6852617  67.7961636  27.9899859  46.1801910  13.1207418  83.9793587
  46.2299776  13.7709403  83.2786560  45.3862143  13.3496344  84.4625282
  84.1143513  64.3744135  14.3112135  83.5139561  63.6695862  14.5540655
  84.9127960  63.9244223  14.0351284  38.3168197  53.1399775  43.0093527
  38.4344602  53.5040092  42.1319294  38.9929390  53.5645151  43.5374260
  65.7686520  44.8121691  18.2712770  65.5026674  44.0974331  17.6927984
  65.5988264  44.4820547  19.1535544  51.5404034   1.2579864  94.5464039
  50.6658411   0.8718710  94.4986057  51.7281914   1.5373348  93.6503410
 107.6035404  98.0719090  38.4995365 108.0617428  97.9364681  37.6701188
 107.0125294  97.3224354  38.5718369  63.4449053  40.2812147   3.6899316
  63.9376307  40.6785202   4.4079870  64.1158581  39.9730945   3.0807361
  53.7609577  52.6427698  26.5451622  53.2377291  52.2715044  27.2555351
  53.9909267  51.8910980  25.9989643  38.4638143  32.2314215  38.1830049
  37.7046084  31.7095137  37.9232955  39.1288519  32.0310283  37.5243711
  61.4855242  28.4570527  14.4979441  62.4184370  28.5658526  14.6825325
  61.2349939  29.2632961  14.0469027  36.1342216  47.2982502  13.6786795
  35.4715562  47.0198774  13.0465293  36.1286569  48.2539988  13.6263120
  52.1663713  36.5072823  14.5814741  51.4996576  36.2411737  13.9482999
  51.7479944  36.3882446  15.4341280  44.7953939  61.7514563  26.0698485
  45.6406164  61.8622971  26.5052104  44.3559170  61.0647011  26.5713072
  51.9347048  99.9459648  12.1227562  51.1566782 100.3682613  12.4868584
  52.5507975  99.9074078  12.8543127  23.4271336  60.7654142   4.0657112
  22.7278805  60.1774693   3.7800542  24.0603733  60.1922703   4.4978493
  28.2810712  52.3685265  45.0862551  27.8961182  53.1327724  45.5151701
  27.5341225  51.9045687  44.7080421  63.4078026  85.9711075  10.7557654
  62.5754309  86.2065887  10.3459632  63.5369825  86.6342258  11.4338636
  46.9673777   4.0372375  29.2388988  47.5010061   3.2557869  29.3831396
  46.9656610   4.4855481  30.0846219  30.2816153  30.2485704  34.2422605
  30.5218911  31.1729813  34.3052173  30.0222373  30.0074172  35.1315308
  47.5567532  81.6137028  12.2538435  48.1050539  80.9308720  11.8673980
  47.9692793  81.8038654  13.0963957  45.8799410  47.6941776   8.5010201
  45.4497051  46.9431543   8.0922461  45.1603270  48.2644844   8.7714630
  97.6694775  45.9732819  29.8022032  96.8767738  46.5061951  29.7400331
  97.5320148  45.4290581  30.5775452 103.4668636  25.3829074  72.3590279
 103.4101772  24.4605660  72.6086378 102.8316021  25.4784751  71.6494226
  89.5333099  53.6619234  12.8447747  89.9787807  53.3965158  12.0401931
  88.6033440  53.5356855  12.6564741  82.6278687  13.0857897  22.8506970
  83.1101704  12.5972521  23.5177398  83.2683659  13.2389486  22.1560550
  46.8439627  69.1694784   3.0594945  47.4618816  69.8702431   3.2676703
  46.1147594  69.6138048   2.6269740  74.6658230  21.5605664  29.6385527
  74.0045500  20.9780526  30.0122213  74.1655922  22.1847844  29.1128588
  78.6554337  57.9732800   3.7296042  78.8970852  58.8950777   3.6394718
  79.2230415  57.5151634   3.1097806  61.3055754  20.6109309  44.6217966
  60.3833342  20.3788781  44.7307014  61.7647314  19.7710705  44.6153831
  70.3031158  24.3548846  33.9811540  70.8449221  23.5827160  34.1437411
  70.2053785  24.3828034  33.0293655  52.7371931  66.4498091  13.5006106
  52.6697731  66.9569445  12.6915967  53.6081791  66.6553736  13.8402653
  44.4240713  36.9373608  34.9049187  44.3465233  37.0586491  33.9586043
  45.2095270  37.4285603  35.1457787  80.8291531  62.3151636   5.1538622
  81.7230415  62.0151567   4.9889356  80.7615852  63.1412411   4.6750489
  50.7027388  66.6318893  18.8599253  51.3874817  67.2413206  19.1355324
  50.7441902  66.6415834  17.9036725  35.7082081  21.8267012  24.4113922
  34.9475980  21.7661023  24.9893498  35.6511855  21.0477614  23.8580060
 114.0975285 103.3736515  83.8600826 113.3623791 103.2404327  83.2617092
 113.7935352 104.0491581  84.4663048  50.3575182  43.5202551  27.0789766
  50.2055836  43.2025576  26.1889124  51.2828445  43.7649059  27.0912743
  78.2744932  51.6404057  29.3243957  78.6861086  50.7941532  29.4995070
  78.9285517  52.1253061  28.8210917  66.6698933  60.0997019  18.6660922
  66.0497141  59.4068050  18.4391570  67.5051022  59.8007917  18.3064938
  88.5369396  60.5559254  19.9536133  89.0998840  60.6658745  20.7199240
  89.0916443  60.1148176  19.3102252  75.7647943  43.8497925  30.5327606
  75.7272291  42.9013252  30.6561995  76.6945171  44.0380096  30.4046416
  73.0229473  57.9853392  26.1046505  73.1319046  57.6725483  25.2065849
  73.2609892  58.9116716  26.0661817  86.6901398  55.1062393  18.1349552
  87.4842072  54.9794865  18.6541975  86.8522072  54.6196127  17.3267734
  46.8043089  63.7282419   8.3921015  47.7437449  63.7964392   8.5625309
  46.7468357  63.4072208   7.4921715  72.9937840  41.8213367  38.7095523
  72.3908854  41.2868834  38.1927347  72.4631023  42.1451139  39.4374084
   6.2116736  48.2987309  29.6705651   5.6143034  48.1668663  30.4067683
   7.0123875  47.8411579  29.9269128  36.0528016  60.3320694  31.6387582
  36.0894012  59.4252348  31.3345408  35.3184104  60.3493690  32.2524405
  85.4968643  51.9179630  14.6088850  85.2388763  52.1388626  15.5038023
  84.8441696  51.2791729  14.3222249  60.5459118  49.2552519  13.6148965
  60.8870363  48.8657475  12.8098166  60.0308704  48.5570526  14.0192294
  45.2937698  59.0164185  11.5499020  46.0944271  58.5759449  11.8347907
  45.3136349  59.8623848  11.9973135  68.6305761  87.2720814   1.8374322
  68.5049057  88.0568409   2.3709014  69.4046974  87.4637604   1.3080645
  36.1001849  62.7555609  25.5980325  36.8821526  62.7921295  26.1488700
  35.4039359  63.1174803  26.1461973  75.5236435  62.5811195  38.1192756
  74.9295330  62.6812696  37.3754787  74.9671364  62.7031708  38.8884521
  26.6858029  54.7530603  36.3732553  26.1372304  54.1492462  35.8725452
  27.1300435  54.1978025  37.0140123  28.1639934  42.3086214  28.5769749
  27.4235892  42.6522303  28.0770087  28.0824971  41.3577890  28.5027432
  80.4238415  43.1119490  12.1482730  80.7916164  42.9324579  13.0135763
  79.5009184  43.3031750  12.3152626  58.3003712  82.4059582   5.7840908
  58.0331564  82.9810238   5.0670576  57.4853992  82.0045090   6.0855740
  65.9429073  47.6978827  22.4605680  66.4616442  48.0861759  23.1651020
  65.4718971  46.9773102  22.8790903  52.5486088  44.0475988   8.9112985
  52.9916048  43.3474779   9.3906951  52.1788883  43.6143446   8.1419921
  45.7260180  40.7180023  11.0062897  45.8768368  41.5070438  11.5267634
  44.9249077  40.3407764  11.3698268  69.2788410  45.6929684   9.2724204
  69.2571306  44.8645210   9.7514123  69.1489887  46.3618231   9.9447322
 113.6678696  70.4036856  19.0493035 113.6735535  71.2055588  18.5266125
 114.0040112  70.6726694  19.9042225  50.5230474  68.3630371  16.2360930
  49.9854183  69.1118193  16.4940047  51.4241362  68.6744738  16.3213575
  71.5550756  93.3156872  87.7799320  71.0622072  94.0264702  88.1899357
  71.5806389  92.6274300  88.4446716  83.5717201  41.0046434  27.7680755
  83.5344601  41.6787100  28.4466600  82.7132607  41.0416842  27.3462939
  98.9490318 107.5904179  85.3632641  98.5037804 108.0910587  84.6796417
  99.0952396 108.2229710  86.0666370  92.1179390  54.9314880   9.8874801
  91.3895130  55.4450178   9.5383084  92.2211838  55.2429104  10.7866967
  20.2480602  59.6164513  34.1296506  19.6189117  60.3373051  34.1574574
  19.7074687  58.8290071  34.0669775  66.8495321  32.4430895  30.7452297
  67.3662615  32.1159077  31.4815545  65.9686756  32.1022105  30.9005618
  31.1093235  59.5708609  22.3324871  31.7425847  58.9529991  22.6978111
  30.3172779  59.4380856  22.8533196  27.8081203  85.1124763  14.9545634
  27.8861237  84.3449020  15.5211127  26.8905735  85.3742409  15.0308692
  60.2534103  73.2875252   8.7859404  59.8265409  73.4617376   7.9470944
  61.0021305  73.8836718   8.8020480  60.8280039  54.8688602  16.3151085
  61.6230536  55.1575422  16.7632043  60.8721972  53.9130259  16.3408613
  78.7204552  18.8466084  24.3106103  78.9674807  19.1308117  25.1906323
  79.4934034  18.3880508  23.9812112  17.4145722  22.1334362  83.6810493
  17.6401341  21.2558007  83.3726501  16.9024122  22.5137925  82.9674244
  44.5461512  52.8072214  31.3096690  45.3817844  52.5159597  31.6745138
  44.7392893  52.9989195  30.3919649  72.5625277  28.2592797  19.6947622
  72.4854851  29.1735411  19.9675715  71.9763470  28.1837988  18.9418161
  82.5081539 103.1035805  94.6074963  82.7975845 102.5152206  95.3048420
  82.6613903 102.6121426  93.8005066  53.9833450  56.4527750  23.1842566
  54.5088720  57.1672487  23.5442233  54.3489647  56.3021421  22.3125553
  54.9724373  71.0258637   0.2067817  54.2791674  71.6814302   0.2832187
  55.0876352  70.6941424   1.0972369  33.3849812  48.7265730  24.8525190
  32.8017211  49.4148922  25.1722860  34.0100956  48.5922718  25.5648613
  98.6586571  48.8790607  24.5975780  98.9715672  49.7399616  24.3197989
  98.2893562  49.0278578  25.4680443  95.8695698  75.6810427  93.0654240
  96.5522099  75.8451223  92.4147987  95.5334663  76.5501499  93.2843304
  38.9822221  52.5546694  35.6848073  39.0338111  51.8175697  35.0763226
  38.0560827  52.6057148  35.9212232  56.3438845  40.4080820  28.1308603
  55.5792570  40.7023573  27.6359010  56.5572643  41.1453819  28.7027740
  88.6982727  28.9465213  30.3445005  89.3522072  28.3923912  30.7705712
  88.9054585  29.8327422  30.6410122  30.0196290  96.5062428   4.0849778
  30.0849843  96.7510033   3.1619105  29.3206406  97.0611477   4.4309932
  56.3796759  53.3480263  21.2050653  56.6009140  52.4167538  21.2083220
  56.5140438  53.6229563  20.2980971  24.6781158  41.0497570  15.7487094
  23.7759352  41.1254692  16.0594678  24.7194362  41.6309977  14.9893129
  47.8153515  53.9157343  41.2853432  48.4384871  54.4152260  40.7576704
  46.9839811  54.3770647  41.1747313  40.3921700  42.6375008  22.2525644
  40.8420944  43.4823656  22.2503757  40.9349680  42.0756531  21.6994572
  36.2590814  21.4653301  33.7750649  36.6838932  21.3878608  34.6293283
  35.7405138  22.2674799  33.8373089  72.2802591  65.3028917  18.9974642
  72.2574520  65.3859091  19.9507844  71.3668203  65.1642132  18.7472010
  64.9525881  56.0966587  30.0262809  64.8219681  55.9410858  30.9616780
  64.0743876  56.0419321  29.6494508  52.6347685  50.0269890  20.6890321
  52.5331116  50.8409262  21.1823940  52.5798512  50.2945423  19.7716272
  39.8332191  46.8600559   7.1582168  39.1235495  46.2378073   7.3175949
  40.5076790  46.6222429   7.7944422  59.5231342  58.9824247  18.0700946
  59.7510004  59.6754789  17.4504328  59.3304968  58.2231283  17.5200069
  41.4082766  19.5908618   5.2000260  40.7393599  20.1063991   5.6505895
  41.0901070  18.6894834   5.2502000  76.5723419  18.1890297  29.0530562
  76.8067455  18.7052202  29.8243117  77.1350574  17.4162495  29.1019893
   8.0425072  10.1638448  82.2196102   7.3439687  10.0719368  81.5716743
   7.8629792  11.0006464  82.6482964  24.6125484  78.7180710   6.5964109
  24.8383975  78.7813663   7.5244290  23.6815214  78.9375448   6.5609801
  42.3575830  14.5255089  72.8415966  42.9617929  15.2635288  72.9221201
  42.5313520  13.9882696  73.6145210  58.1295681  88.1047630   7.1319479
  58.3863926  88.6034393   6.3563180  57.1732712  88.1460381   7.1374178
  52.2279501  67.5598383  27.3752975  51.6586637  67.7115488  26.6208911
  51.6800642  67.7629042  28.1334686  52.9420137  58.3702374  30.3759313
  53.7560415  58.6832571  30.7704020  52.2627783  58.6096334  31.0064530
  69.6703672  56.1074734  18.5361016  70.1490498  55.5780649  17.8982759
  70.3496838  56.6007566  18.9959264  81.5250111  35.1453304  25.2288246
  80.7659435  35.1691818  25.8114696  82.0572662  35.8939409  25.4981160
  54.6824551  84.7883511   0.1030080  55.1683998  84.0467548  -0.2577311
  54.3944454  84.4892406   0.9654569  35.0195670  51.4101601  31.9373822
  35.2277303  51.5770149  32.8566527  34.1357040  51.0431242  31.9547510
  84.5207214  33.3790874  16.5228045  84.8398304  34.1907144  16.1282623
  85.1320934  32.7083468  16.2185562  45.5181551  74.1238976   0.7376441
  45.5140781  74.0433216   1.6914377  44.6134329  74.3398571   0.5116536
 108.8060951  27.2888517  21.3648796 108.7992477  27.5470757  20.4431939
 109.0055656  26.3527870  21.3498855  61.9379663  61.0666990  11.4513886
  61.9052076  62.0215845  11.3934839  61.7453861  60.7661438  10.5632389
  71.5903091  57.6261902  47.0214510  70.8931589  58.0686712  47.5056267
  71.4995146  56.7037153  47.2602558  45.1657724  66.0244370   7.7298099
  46.0279846  65.9987879   8.1447399  44.7664976  66.8305922   8.0567944
  55.8592844  36.8234134  18.7040162  55.5760717  37.6676965  18.3530068
  55.0449038  36.3573933  18.8933265  82.4575424  37.2709394  30.8975935
  82.4903965  36.5234184  30.3006291  83.0140877  37.9315042  30.4851079
  76.2195587  80.7359695  25.4320979  76.1631489  81.3413429  24.6927881
  76.8966722  81.1093807  25.9962916  51.4951181  44.2468548  15.5098164
  51.6422033  43.5351753  16.1327994  50.5573130  44.2104197  15.3216040
  66.7703915  54.0058565  12.3496401  67.4517250  54.3712759  11.7852962
  66.7955112  54.5486355  13.1376696  58.5194540  64.9451685  16.8520796
  58.1626940  64.9073219  17.7395046  57.9997444  64.3112946  16.3577712
  96.1858463 104.9086380  91.5086555  96.4323902 104.8118496  90.5888271
  95.8880043 105.8153057  91.5826607  48.5972500  55.3544188  43.5647202
  48.3472729  54.8251009  42.8073788  48.0411768  56.1314535  43.5079002
  52.0003176  68.4950781   7.9834932  51.6584015  68.1628656   8.8135278
  51.6620779  69.3886518   7.9256004 112.7288246  87.2049332  23.3643413
 112.4199486  86.9471359  24.2328835 113.6713123  87.0391846  23.3863592
  63.5383606  82.3956299  31.7313266  64.2984343  82.1916008  32.2762012
  62.7872944  82.1090984  32.2509766  40.8555222  39.6839046  94.6601963
  41.3498926  38.8652897  94.7013950  39.9570584  39.4119501  94.4730091
  79.2813492  65.4487085  20.3657174  79.0100384  66.1715221  19.7998917
  80.1422787  65.1945353  20.0333977  31.6028166   2.0004104  81.0999012
  32.2974873   2.2940144  80.5104446  30.9389734   1.6266878  80.5203533
  39.6740253   0.2382840  86.6018867  39.1056640   0.4532422  85.8623028
  39.0970142   0.2713669  87.3649120  27.0077229  21.2906170  73.8340712
  27.4067402  22.1574450  73.7590456  27.6955914  20.6854939  73.5567713
  59.0014029  80.0131798  23.9708281  58.0479336  80.0972271  23.9786029
  59.3121481  80.7638264  24.4769931 109.3801403  14.0487564  93.2062721
 110.1088810  13.5199726  92.8813744 108.8671398  14.2553580  92.4250031
  66.2493277 105.8185291  14.7093201  67.0261765 106.3195515  14.9577582
  66.4208937 104.9343014  15.0332487   4.0281096   7.6861042  86.6694260
   4.9113581   7.6154166  87.0315075   3.6927164   6.7896426  86.6793823
  96.7054939  86.2756062  42.6641941  96.8391037  87.2159004  42.5449038
  95.9858227  86.0588455  42.0714712  58.6385441  35.1203704  43.5562944
  59.3765497  34.5125365  43.5102081  58.5653734  35.3382587  44.4854879
  30.9166265   7.9645252  92.0197582  30.2239704   7.7653003  92.6496601
  31.4129519   7.1495861  91.9438267  70.4739141  62.0410204  22.3691082
  69.6061611  61.7236710  22.6191711  70.4027987  62.9944468  22.4154973
  59.6223736  65.0528955  27.5499225  59.8496532  65.9145069  27.2003555
  60.4327917  64.5474482  27.4868703  69.7055531  68.6747789   5.9655201
  69.9854660  68.8424969   5.0656587  69.4462872  67.7533627   5.9679109
  71.6041183  54.7002935  27.8157067  72.5164461  54.9473619  27.6645589
  71.1683989  54.8704052  26.9805765  81.3311291  13.6095417  27.1943140
  81.8384838  12.7988374  27.2340727  81.8199921  14.2250621  27.7405548
  47.2859144  33.7174940  20.3683829  47.9190159  34.0933967  20.9800291
  47.7257013  32.9451394  20.0130129  80.9579086  52.5734282  18.6909413
  81.8585300  52.6773405  18.9980459  80.7558632  51.6512442  18.8489926
  91.2690067  74.6322155  31.9483685  92.0812321  75.0529146  32.2303843
  91.5419197  74.0160608  31.2685871  23.2779551  27.9125643  93.2142639
  22.3767257  27.9747581  93.5307312  23.7024665  27.3034787  93.8184452
  46.9007969  58.2597303  26.9719410  46.7444658  57.3636675  27.2700453
  46.7943096  58.7956285  27.7578831  67.1091604  63.0719900  25.0611901
  68.0607128  63.0563068  24.9585652  66.9249296  62.3770905  25.6931758
  38.8444114  94.0381622   1.0472018  37.9414105  94.0412140   1.3647088
  38.7630415  94.0053844   0.0940303  96.5635395  95.2271843  68.3257866
  96.9750786  94.5198059  67.8292990  97.0068645  95.2138329  69.1740322
  72.6416016  42.4649191  13.1997931  72.7669954  41.5598774  13.4851098
  72.5901222  42.4102736  12.2455418  58.2856178  51.2762070  21.0886550
  58.9786100  51.8281746  21.4510465  58.3587360  50.4525280  21.5707731
  37.4928451  46.3039923  77.2094202  36.7439032  45.7246590  77.0691061
  37.8311634  46.4752293  76.3305283  64.3246937  60.2839804  11.9032490
  63.4271240  60.6125689  11.8519282  64.2288399  59.3332767  11.9598389
  50.9328794  61.3782310  34.5910978  51.1957836  61.2177229  35.4973817
  50.2075243  61.9991541  34.6585155  55.8418322  62.7314615  14.3867433
  55.6941223  62.7069092  15.3321588  55.9638596  61.8148279  14.1395092
  69.7906542  75.0217533  10.0773418  70.5813026  74.5090628  10.2454424
  69.2532301  74.4577742   9.5211613  80.5581379  65.7166481  13.7173629
  80.9874725  66.5328503  13.4610069  79.6536970  65.9696054  13.9023507
  56.1688805  91.8461132   8.0002588  55.2383280  91.6538143   7.8848225
  56.4834547  92.0454025   7.1184653  37.9099798  72.2278976   6.7878222
  38.4455180  71.7244625   6.1746472  38.3908653  73.0465269   6.9095904
  74.2555380  85.3061771  18.1278133  74.2741251  85.6329918  19.0273011
  75.1301241  84.9437141  17.9865599  26.4852691  10.2532995  65.2424097
  25.7650113   9.9500465  65.7951260  26.4060211   9.7363412  64.4407177
  66.9720697  55.7217836  18.7107718  66.6465425  56.6155052  18.6033988
  67.9244566  55.8068514  18.6665821  92.8204823  35.1377964   5.7650691
  93.4441185  35.6779265   6.2504292  92.5139999  35.7038260   5.0566125
  59.8567581  59.8206282  20.7591987  59.3041945  59.5894146  20.0125742
  60.5988884  60.2857256  20.3729892  65.3489780  46.2910557   7.1819550
  65.8874035  46.1779261   6.3986707  64.5050955  45.9030199   6.9506103
  85.8073997 101.8131161  18.8209307  84.8635769 101.7130184  18.9450240
  86.1603355 100.9323883  18.9474165  37.6164842  23.6490297  93.1036282
  37.0041251  22.9153752  93.0488968  37.2312427  24.3246961  92.5456905
  52.4953270  93.7698174  16.6832566  52.3447084  94.3871498  17.3991120
  51.8876362  93.0505753  16.8553853  80.7797909  67.8295565  11.7545581
  80.9478188  67.5045013  10.8700585  81.6354561  68.1213903  12.0690501
  71.3198090  58.6562109  15.5586767  71.6377640  58.4727621  16.4426911
  71.9677687  59.2572117  15.1910031   3.0834633  39.7566819  87.4122238
   2.7830496  40.6643152  87.4589539   2.9468066  39.4133902  88.2952309
  77.8431606  78.5452271  20.1943898  77.3859262  78.0482721  20.8727741
  77.4086523  79.3981028  20.1883602  59.6387529  94.2092514   9.0000975
  59.2176342  93.4392166   8.6180639  59.7334099  94.8184776   8.2678998
  72.3878813  64.3064165  25.6482935  71.8668461  63.6912632  26.1643767
  72.1110964  65.1701641  25.9541821  61.3077545  39.1425872   2.0057715
  61.9625664  39.4569278   2.6291817  61.3048840  39.7996569   1.3097224
  61.5171385  30.6419611  31.1063075  62.1404839  29.9264169  31.2314725
  61.2375116  30.8736825  31.9919419  19.8476398  10.4233623  74.1483831
  19.6430326  10.8468652  73.3147097  19.4003046   9.5782930  74.1038847
  37.0022297  32.9620433   6.3953429  36.9327807  33.8866138   6.1574769
  36.8830919  32.4927044   5.5696565  67.4550915  67.7840376  15.2805579
  67.8162098  68.4048843  14.6478045  68.1336451  67.1154213  15.3741038
  45.6701708 103.5336781  35.4251695  46.1521578 102.7899456  35.0635314
  45.8605814 104.2562294  34.8269248   1.1455324   2.9802644  93.0377293
   0.4218782   3.4645987  93.4351921   1.3991702   2.3401761  93.7026978
  44.1284704  26.4645648  21.3295555  44.8870373  25.8863688  21.2489843
  44.3079376  26.9876575  22.1108365  45.9762716  32.5424528  84.4902325
  46.9196749  32.5091100  84.3317795  45.8309174  33.3992934  84.8913956
  40.6505871  61.7683363  30.3360939  39.7296929  61.8342161  30.0834227
  41.1122561  61.5951061  29.5156717   8.8197142  20.2548289  93.8226223
   9.6255016  20.2920890  94.3379402   8.1816703  19.8428571  94.4052124
  57.7436066  54.4569969  10.1935816  56.9289827  54.3454504   9.7035021
  57.8502750  53.6344147  10.6713021  64.9148226  57.9729462  35.1329613
  64.1963005  57.5604963  35.6123805  65.4883480  58.3224344  35.8149862
  77.4436240  48.8045525   0.1692928  77.5643687  48.2008767  -0.5636632
  76.7287306  48.4228635   0.6786788 105.1999474 102.1372795  83.4073925
 105.7137775 101.3583851  83.1939793 104.4358540 102.0848751  82.8332520
  72.4653006  55.3679085  17.1923840  72.9342890  55.0157452  17.9488659
  73.1331778  55.8399010  16.6949940   9.4220698  10.5066836  30.9717655
  10.3143847  10.7961798  31.1620212   9.5202380   9.5970303  30.6904721
  42.4616671  22.5777292   4.7812155  42.5263405  21.6233373   4.8156866
  42.4820232  22.7855849   3.8470778  85.8975983  40.5603075  23.4199429
  85.6724834  40.8947277  24.2881131  85.0564384  40.3249645  23.0284166
  52.0637751  60.2170420  32.4891996  52.9321623  59.9131393  32.7533484
  51.7022228  60.6230783  33.2770109  57.8980160 107.6112461  30.9730434
  57.6474762 108.1613445  30.2308488  57.8592205 108.1969452  31.7291427
  74.8406601  44.3669891   5.6653315  75.6818056  43.9761591   5.4287815
  74.5810413  43.9104795   6.4655983  98.5426140  93.3078575  46.2585545
  99.2016411  92.6286030  46.4018250  97.7592564  92.9782295  46.6989136
 107.8343964  68.6024046  72.5764704 107.9772663  68.9621401  71.7010212
 106.9928265  68.9667797  72.8507280  50.0116730  52.9042387  24.5576358
  49.2971611  52.4996138  25.0495529  50.6705379  52.2141314  24.4809389
 103.0498505   2.5982192  32.9010987 103.8161755   2.1121007  32.5966835
 102.3065472   2.1525162  32.4947953  77.0425510  65.0703049  13.1340134
  76.1515903  65.3986263  13.0130756  77.6027632  65.7640982  12.7861011
  50.2977705   7.2924268  47.3450661  50.0428438   8.1391281  47.7115917
  50.9184074   6.9338864  47.9794884  23.3246422  31.2934422  84.6553040
  23.7032318  32.1070743  84.9883270  22.4166489  31.3103580  84.9577808
  89.9141216  90.1254177  24.5962834  89.4239521  89.3239307  24.7795510
  90.7852650  89.8206425  24.3424129  49.5703363  57.2858572  11.5967047
  50.2434778  56.8879318  12.1487641  49.9018240  57.1848583  10.7044339
  83.5912704  98.8509464  28.3289146  84.5140839  98.6065388  28.3990359
  83.5206890  99.2774868  27.4749136  26.4429903  49.1221952  29.6253347
  25.8003640  49.4768524  30.2397299  26.5684962  49.8190308  28.9812112
  65.1823854  53.5076284  17.5072515  64.6925688  52.8963566  18.0573988
  65.6008005  54.1051865  18.1269991 101.7529774  27.0857906  26.5086436
 101.0205555  26.4894772  26.6641855 101.3835239  27.7825475  25.9661818
  52.3530388  63.0784178  28.7416315  51.8894720  63.6918831  29.3117189
  51.7211533  62.8653622  28.0549288  48.3866167  89.7227478   3.4491983
  48.8579035  88.8905048   3.4876949  47.7450657  89.6025372   2.7490595
  75.2579212 101.2383747  46.5862751  75.9802008 101.2830734  47.2128105
  74.5797682 100.7360840  47.0379782  61.3021994  76.4754534  22.9356575
  61.4649153  77.3070717  22.4905014  61.0768414  76.7237711  23.8321972
  52.2453499  56.2493420  28.7237167  52.6614332  56.9947910  29.1566277
  52.4179935  56.3863707  27.7922416  52.8573370  89.3248367  36.6428137
  53.0559587  89.2250729  35.7117772  51.9200468  89.5173454  36.6684723
  63.1283236  81.1962318   8.3638227  63.2939100  81.5505409   7.4901640
  62.3029900  81.5992928   8.6332679  78.9572477  47.5285292  34.4604754
  78.7663841  47.5244951  35.3984451  79.2645264  48.4174061  34.2824054
  84.7034454  79.2753935   8.9468235  84.3976784  78.9965439   9.8099464
  83.9973640  79.0261364   8.3505434  85.8862972  52.1444130  26.3253474
  86.7797565  51.8628216  26.1286736  85.5191898  52.3874044  25.4753971
  64.1764641 105.8714771  13.3634806  64.1945410 104.9253368  13.2195222
  64.8569250 106.0271263  14.0184450  96.2185097  43.1473446  37.5647545
  96.5433311  44.0437555  37.6494074  96.8638134  42.6139402  38.0287528
  66.6405153  71.4821529  26.6821718  66.5176678  72.1329689  25.9910989
  67.4699831  71.0563898  26.4655089  85.7772636  60.0072765  23.6495709
  86.3353920  59.5471287  23.0226827  86.2331104  60.8324623  23.8154292
  73.9459276  96.5505314  90.9983063  74.1961622  96.9277763  90.1549149
  74.0638924  95.6076050  90.8833790  69.6263647  86.1909962  44.8873711
  68.8637829  85.6594563  44.6589804  69.9532890  85.8042622  45.6996489
  35.8572340  46.8115473   7.7085805  34.9615479  46.5063334   7.5642794
  36.3931847  46.2587547   7.1398884  51.1206818  48.1851196   2.3129040
  51.0222292  48.7009716   1.5126321  50.6444407  48.6819124   2.9782018
 105.2238846  87.0711136  17.5531220 105.4328346  86.5419102  18.3228707
 104.7782135  86.4660263  16.9602680  43.2091999  74.0098810  18.7743843
  43.5133362  73.2105589  19.2042851  42.4866676  73.7217665  18.2165623
  41.1829472  55.9084129  15.5945623  41.4140797  56.7712116  15.2504873
  40.7534981  56.0910225  16.4303005  79.6848583  77.4907160  22.3081326
  79.3432617  78.0217505  21.5887284  79.4959211  76.5884113  22.0504808
  58.1444788  74.6353340  29.7763062  58.5748291  75.1290894  30.4743290
  57.3327446  75.1143742  29.6094656  45.8895636  60.1678991  31.5692139
  46.1603498  59.2505741  31.6069531  46.1883593  60.5401611  32.3988962
  61.8695450  63.3137035  27.6888847  61.6755390  62.5185394  27.1925902
  62.4118996  63.0142784  28.4185600  75.5097246  54.0840912  51.2414551
  75.4539108  54.0656137  52.1968460  76.2618399  54.6464777  51.0563040
  52.3676348  14.6139050  91.0747814  52.1637297  15.5485725  91.1072063
  53.0338383  14.4905019  91.7509270  79.6628428  80.1602173  48.6551619
  80.3226185  80.2825546  49.3377733  80.1676559  79.9557066  47.8680325
  64.3218279  78.5051727  19.1811800  64.4615555  79.0162373  18.3839846
  65.1724052  78.5088253  19.6201921  70.3224707  86.7710304   4.4190633
  69.9014091  86.8654442   5.2734798  69.6043348  86.8365574   3.7896007
  78.2082367  37.9881668   8.5587764  78.0967331  38.4886885   7.7505201
  79.1517735  37.9998350   8.7194890  20.1525617  52.1467686  34.4641805
  20.9000635  52.5615501  34.8947906  19.6344805  52.8776550  34.1270947
 110.0263691  85.5679989  18.9943063 110.5324650  85.9452438  19.7138786
 110.6823540  85.3298569  18.3391702  90.7817554  79.9569130  40.4184961
  90.5531788  79.3339062  41.1083126  91.0144997  79.4093084  39.6687031
  85.2643394  61.4561224  44.0425968  84.5500565  61.3047361  43.4236336
  85.2941227  60.6600857  44.5733213  78.0990601  82.0894337  26.8137193
  78.4573364  82.8400326  26.3399386  77.5534534  82.4765491  27.4983239
  82.6320934  55.9993553  41.4374256  83.1753731  55.2201414  41.3194990
  81.7602348  55.6560993  41.6330624  76.5276241  58.2864618   5.6104803
  77.2142172  58.0188608   4.9995691  75.8172035  58.5991764   5.0503486
  52.5949240  74.5796204  25.4511380  51.8639374  74.0227461  25.7190633
  52.2841406  75.0182152  24.6591282  48.7602854  70.6765509  10.4698956
  49.5741892  70.6910944   9.9663293  48.1433535  71.1841869   9.9426985
  68.6649656  59.8166895  28.8037968  68.8385344  59.2373943  29.5457673
  68.7131977  60.6988192  29.1722465  93.7463760  86.0823059  27.3645926
  93.9892006  86.7793655  27.9739976  94.0897179  86.3725758  26.5195560
  80.3012848  56.6909599  20.3363323  80.9240532  56.7185259  19.6099460
  80.5360031  55.9009600  20.8232045  88.9697838  89.7722149  14.9038756
  88.8082409  89.1740513  14.1742587  88.6473465  89.3035603  15.6737018
  45.3523874  50.2748394  11.4155781  45.3657103  51.2180185  11.2528980
  45.8456469  50.1650143  12.2285151  23.5029557  10.4026426  94.5027058
  24.3964484  10.7366194  94.5824459  23.0265859  10.8191408  95.2209218
  89.1522026  66.0902643   2.6274791  88.2705593  65.9743595   2.9817554
  89.2003250  65.4724026   1.8979838 109.4289684  79.8166227  15.4243410
 109.6165180  79.5387650  16.3209200 108.4734535  79.8510218  15.3791690
  78.0842257  58.3982277  36.0890484  77.7996540  59.1308022  36.6354799
  77.4636030  57.6967955  36.2866569 102.6021576  37.3241091  92.1041298
 102.8473282  38.2489276  92.1329498 101.9181824  37.2783613  91.4360523
 107.0005703  58.5180140  12.8190076 106.7590618  58.0136824  13.5958946
 107.4575901  59.2850828  13.1639361 112.3653126  95.0585270  90.8898640
 112.0801163  95.7933617  91.4329243 112.1383858  95.3183079  89.9969864
  96.6038990  77.4001980  23.9129639  97.3331738  77.3219109  24.5279837
  95.8362103  77.5374985  24.4679785  65.8488274  71.5661192  21.7762041
  66.7705822  71.7561293  21.9508362  65.8505630  71.1379433  20.9201121
  76.9641733  62.5029421  26.3831902  77.6337719  62.3277950  25.7219839
  76.1984396  62.7812195  25.8807516  71.2077427  85.4014874  47.1157742
  71.9907665  85.2373219  46.5902710  71.5021610  85.9973621  47.8045893
  62.9740143  67.7683687  25.3600287  62.8508949  68.5535669  24.8266101
  63.6413622  67.2645426  24.8941541  62.8611755  71.7724800  28.0805683
  62.0134926  72.0993900  27.7792478  62.6633167  70.9244633  28.4780049
  30.7159567  45.2048063   1.7292894  31.4897728  44.6707344   1.5498310
  30.9644580  46.0869503   1.4530584  43.3723593  54.9727297  12.1189499
  44.1324997  55.0129557  12.6992941  43.0491304  55.8730602  12.0848656
 115.1698112   8.4864545  85.8136654 115.1486778   8.5186416  84.8572445
 115.7415962   9.2117476  86.0651493  43.3961916  29.3954229  30.8190656
  42.6555777  29.5982337  31.3905501  44.0374041  28.9805675  31.3961029
  55.8281755  21.7536736  27.1113873  55.9790421  22.4101686  27.7914500
  56.3388395  20.9948254  27.3935342  59.5689535  75.0241852  32.8209186
  59.8177242  74.2149782  33.2676101  59.0403795  75.4990435  33.4622812
  11.8583536  78.2739878  33.1629109  12.8083467  78.1589603  33.1402731
  11.5328848  77.7185059  32.4545765  60.5509377  73.9405203  12.8138244
  59.8530722  74.5955992  12.8043401  60.1599598  73.1802702  13.2443941
  68.7975407  72.3963785  45.8929873  69.7057343  72.5803089  45.6530046
  68.5345602  73.1457138  46.4273787  63.5093117  79.5506287  30.8096457
  63.4199524  80.5016422  30.8714366  64.0257406  79.4096422  30.0161386
  61.9102955  80.3669548  16.8256056  61.7717791  80.7966328  15.9815538
  61.3316202  80.8327198  17.4292910  61.9496727  76.8607998  13.5160077
  61.7930555  76.7809010  12.5750935  62.5952578  76.1812019  13.7099123
  63.4320784  95.4525948   4.0862548  63.7557459  95.8823204   3.2945433
  62.9149437  96.1251736   4.5294768  33.5577250  12.2300446  82.5735855
  34.1503334  12.4064469  83.3042908  33.2147765  13.0899656  82.3303699
  98.8563538  51.4278841  23.9072585  99.1206551  52.1953821  23.3999825
  97.9253483  51.5653515  24.0821123  68.3993816  73.2270670  29.3346310
  68.9893723  72.4737501  29.3602014  67.5572014  72.8818750  29.6309614
  70.8632946  52.3380709  33.5816169  70.6681013  53.2039928  33.9398170
  70.7652760  51.7435551  34.3253708  13.6519623  34.3405414  94.1109085
  12.8325403  34.5542598  94.5571136  14.2624307  34.1319942  94.8180676
  99.5544720 103.4422398  53.0881214  99.4399548 104.3729210  52.8959036
  98.6673069 103.1193542  53.2460165  75.1159191  95.1760769  42.4787474
  75.3241348  95.0896549  43.4090185  75.8113194  94.6934700  42.0318222
  57.7267694  51.1711836  16.6727138  57.4883175  50.5151892  16.0176992
  58.0061483  50.6604385  17.4325275   8.9331079   0.4858526  91.5221024
   8.2187736   1.1001374  91.3529491   8.5819393  -0.3665982  91.2647247
  24.5934153  35.8619571   0.6883431  25.3981519  36.3648200   0.8138762
  24.6283078  35.5782557  -0.2251817  82.2541618  50.4769564  44.2599440
  82.0987320  49.8483706  43.5549927  81.8831348  50.0608301  45.0380230
  64.6485710  80.4815960  17.2369504  64.9642849  81.2582016  16.7749405
  63.8058233  80.2854824  16.8276250  78.9559793  79.6652365  27.5070643
  79.1003895  79.3121862  26.6291499  78.6507034  80.5601406  27.3581076
  71.9214821  77.5657415  53.7071228  71.6886806  78.4932041  53.6642075
  71.7366266  77.2315359  52.8294182  75.5425122 109.6205195   5.3587228
  76.0369065 109.0939904   4.7305688  75.7582906 110.5257798   5.1347166
 101.5354729  93.5701656  24.3689394 101.3789368  93.1980801  23.5010219
 102.1034431  92.9338741  24.8034286  41.1075640  33.0812955  69.4550467
  41.7700243  33.1391501  68.7665510  40.2731323  33.0940127  68.9862251
  72.0964575  55.1774740  48.1093597  72.3528671  55.3226185  49.0200853
  72.0122814  54.2270613  48.0327940  28.1582308  62.1430159   3.7621206
  28.6348391  61.9233131   2.9616156  27.7023649  62.9583836   3.5533196
  56.0043287  46.3184261  86.7812157  56.2253714  45.5557537  87.3157310
  56.6574097  46.9760323  87.0205402  89.5748901  30.2807021   8.3625567
  88.9214611  30.4204679   7.6771909  89.1820812  30.6597114   9.1488659
  81.3969421  66.5697050  22.5108957  81.2877178  66.2305212  21.6224933
  80.5448341  66.9468784  22.7297235  93.4061432  41.8258381  24.2587757
  92.7110004  41.1706161  24.3194938  94.1673088  41.3389158  23.9429116
  50.4085159  31.8352866  81.0346413  49.6650696  31.2474561  80.9005642
  50.0234413  32.7116084  81.0377312  43.5439062  34.2276478  68.5513878
  44.3061399  34.7804189  68.7236500  43.0937624  34.6598077  67.8255510
  73.6439228  71.7167854  32.1664405  73.9409018  71.7361498  33.0762005
  72.7268696  71.4476585  32.2195292  90.9744740  84.1724300  20.4029036
  90.2869034  84.7694492  20.6979179  90.6297398  83.2991791  20.5895329
  71.4182329  91.6444492   2.8596655  71.2572670  90.7698631   3.2138088
  70.5744123  92.0907021   2.9308152  54.0552759  96.2535381   6.3899648
  53.6695957  95.3811550   6.4701468  53.3939266  96.8421650   6.7537928
  79.4220877  72.6346397  13.1948054  79.7256565  73.4342670  12.7650678
  80.0807858  72.4589777  13.8667369  36.3954401  67.6670361  15.3450859
  35.8775306  68.4587574  15.1995599  37.3041296  67.9664087  15.3152883
  47.2590876  77.1110868  11.1353374  47.9258442  77.2098398  11.8149793
  47.2865438  76.1821604  10.9060502  93.6763287 103.5025883  28.5711074
  94.1948318 103.0677795  27.8941083  92.9165745 103.8506317  28.1043315
  65.9820509  54.1573429  27.2057509  66.5287304  54.8901510  27.4892521
  65.0851631  54.4535160  27.3609900  88.5128117  72.8249979   7.6113081
  88.6344242  72.0286369   8.1282657  88.1637669  72.5167131   6.7750305
  67.4788761  76.1214972  21.2841082  66.6555166  75.7238722  21.5673041
  68.1530762  75.6514978  21.7748141  65.1282883  90.2748013  12.4648201
  64.4248247  89.8837280  11.9467223  65.7191706  90.6574249  11.8162155
  62.3456955 105.0297165   7.0963621  62.4696255 104.8647022   8.0310524
  61.8970442 105.8744621   7.0597011  78.3653498  77.2058058  28.8155246
  77.7918816  76.7477846  28.2010460  78.6514711  77.9858160  28.3401871
  81.4811897  85.8077145  12.5871074  81.8312645  85.7366753  11.6990566
  81.8214703  85.0367641  13.0410755  90.6641388  74.6226692  34.7625899
  90.9556389  73.7475681  35.0184393  90.6545448  74.6016836  33.8056684
  64.8636103  27.0769286  93.7176228  64.1318369  26.6391897  94.1525078
  65.6143999  26.5053749  93.8784790 109.7033596  67.6598930  25.9549069
 109.2393684  67.9109812  26.7535925 109.0435123  67.2124100  25.4252028
  19.9380720  11.8545711  82.5761795  18.9982092  11.6755140  82.6049423
  20.0995946  12.1427977  81.6778088  68.8803768  29.7902107  23.8906550
  69.2475319  29.3412256  23.1291819  69.0916491  30.7130647  23.7494588
  62.9564953  64.1552258  34.3704820  63.8013554  64.1018772  33.9237094
  62.3246813  63.8338852  33.7272215  97.4672890  34.4195127  29.4646859
  96.6401863  34.5656109  29.9238038  97.9612827  35.2285123  29.5978189
  78.2457161  63.4433508  17.5401938  78.0095482  64.3459129  17.3260891
  78.8902950  63.2003450  16.8755913  60.5479097  71.6523409   6.1531866
  61.4815426  71.8462181   6.2366664  60.4339170  70.8206940   6.6131949
  92.2846222  85.3885365  23.1651163  92.2153187  86.0759163  22.5025916
  93.2126808  85.3740883  23.3990860 112.4501991  11.1643183  82.1691990
 111.6959476  11.2302780  82.7548504 113.2073593  11.1488652  82.7546120
  25.6745911  34.1576529  91.8665791  24.9558997  34.7612572  91.6784954
  26.4258289  34.7256255  92.0376968  80.1974297  52.6099253  27.8748345
  80.9405327  52.5146818  28.4706235  80.4396915  53.3394909  27.3045039
  70.2601004 106.8906593  48.9418221  69.9595976 106.6132069  48.0764055
  70.8611345 107.6145840  48.7659454  67.5672150  87.2065067  24.1876435
  68.0820274  86.9262981  24.9444008  66.6571188  87.1095181  24.4679070
  73.4637642  97.3641682  41.9593573  72.6671314  96.8375778  42.0249796
  74.1753864  96.7240524  41.9678307   4.9081543   8.4214371   1.6735284
   5.0518918   8.8970852   2.4916545   5.3286052   7.5728720   1.8127768
  45.2017117  58.4963703  89.6619606  46.1397171  58.6340332  89.7939491
  44.8606110  58.3154106  90.5378246  88.5751247  51.8017817  50.1429033
  88.8363361  52.3182821  50.9052849  88.2742596  50.9700060  50.5087852
 109.4268417   6.4678067  43.2241106 108.7033939   6.0318798  43.6744595
 109.3471527   6.1848831  42.3131561  61.9955397  62.1616840  22.0455527
  62.7947617  62.6298332  21.8040633  61.6021013  62.6985025  22.7334905
  50.3054237  91.1775684   0.2941753  49.7629642  90.4130650   0.1005183
  50.0540924  91.4307880   1.1824013  75.4898024  57.9285860  51.6123629
  76.1540222  57.2468185  51.5111589  75.7278776  58.5928154  50.9655666
 104.5519066  57.3724365  30.5058122 103.8761139  56.7772436  30.1813459
 105.1299763  56.8164635  31.0282660  55.1963758  49.7839546  28.2193947
  55.0262547  50.1282787  27.3426199  56.1024427  50.0323534  28.4026241
  89.4043159  80.3493977  11.1284733  89.6211624  80.2534008  12.0558345
  88.9984608  81.2140083  11.0656500  86.0686398  78.7243223   4.1781330
  86.4671803  78.6506510   5.0452971  85.9062386  79.6611929   4.0679830
  68.0199194  59.3780708   0.7690515  68.7739182  59.8582792   0.4268315
  67.4361324  59.2811203   0.0167029  82.7826214  64.5036125  50.7526541
  81.9124222  64.8233604  50.9908676  83.2552910  64.4539690  51.5835285
  53.7801313  58.0287027  14.6353173  54.3280649  58.2164860  15.3973770
  54.2268276  57.3081923  14.1908371 100.5769253  60.3718281  26.1830592
 100.2871227  59.4596338  26.1953378 100.9031487  60.5314398  27.0686865
 108.6493397  87.9076385  16.4601660 108.7516880  87.0667171  16.0145044
 109.3825054  88.4363747  16.1452949  64.2239666  79.4859409  33.4103465
  65.0423002  79.9407434  33.2110524  63.9090061  79.1764212  32.5610924
  83.5491276  65.4013443   1.9663849  83.8904572  65.8352232   2.7483541
  84.3281555  65.1786947   1.4566976  65.1528597  37.4822807   4.8039123
  65.9598637  37.2741795   4.3330908  64.4715738  36.9985557   4.3369091
  79.5398760  92.1418858  38.6885738  79.8829889  92.9498386  38.3068490
  78.7575054  91.9466972  38.1727886  60.8914328  98.4033489  16.8204665
  60.9826994  97.9198933  15.9993839  61.1166000  97.7671623  17.4992943
  67.2591019  63.0326939  20.3677559  68.0573463  63.4836578  20.6428385
  67.5138807  62.5547600  19.5785165  39.1836548  81.9067669   5.5935377
  40.0725889  82.2520351   5.6760830  38.8519073  82.2908974   4.7819865
  55.0155020  88.0207729   0.3784176  55.4025030  87.3517132   0.9430596
  55.5341339  88.8070774   0.5486397  94.8193073  57.4909782  29.6811891
  95.3093147  58.3049583  29.5647383  95.1218128  57.1474934  30.5218697
  64.7317982  62.8515911  12.3763502  64.5902681  63.0232763  13.3073306
  64.6108675  61.9063663  12.2860229  12.7731764  16.4088106  21.2634969
  12.2198868  16.1273837  21.9921279  13.3768201  15.6789124  21.1253142
 109.4168472  64.8066568  35.1702237 108.5598469  64.8548603  34.7466040
 109.9989700  65.2967024  34.5895219  48.1642199  42.1403694  90.0377655
  48.7334919  41.4813614  90.4350948  47.6294613  41.6499233  89.4134808
  66.1871099  56.9037390  27.8110075  67.1072531  56.8115520  28.0581260
  65.7016087  56.5908289  28.5742950  89.1433239  59.1741467  30.3354073
  88.3337021  58.7039423  30.5345583  89.2055798  59.1500950  29.3805385
  70.4131985  64.5763826  11.1741841  71.0492420  65.0616646  10.6486511
  69.5660305  64.9478817  10.9281611  80.2257252  91.6525364  16.7507589
  81.0423088  91.9119263  16.3239825  80.4553032  90.8696461  17.2513747
  96.0185051  36.1733532  32.2522116  96.3334274  36.0601139  33.1490016
  95.5995369  37.0339918  32.2523665  92.6090717  54.4738007  28.0106115
  93.4804535  54.8311615  28.1815267  92.1717834  54.4913864  28.8619065
  89.4655514  69.5052147  22.4005532  89.9773979  69.4645214  21.5927196
  89.0467739  68.6467028  22.4622536  88.1334591  94.0096092  25.5388069
  88.2546329  93.9062881  26.4826679  87.2293186  94.3094921  25.4448128
  82.4010086 107.3105621  29.9848533  81.8348598 107.6265144  30.6890416
  81.7960262 107.0418835  29.2934465  82.6889038  82.0042992  16.4140117
  82.6320648  81.9155502  17.3653924  83.0501461  81.1692238  16.1167157
  78.7049294  80.1120567  33.2902646  78.9096308  79.7757530  32.4177790
  79.4462490  79.8406506  33.8315725  84.1412449  82.9150105  51.9588757
  85.0413036  82.9320145  51.6335392  83.6067390  83.1367874  51.1964178
  75.8674383  73.8959360  47.2702789  75.5853176  74.0457487  48.1726074
  75.0560284  73.7317705  46.7897654  55.5946732  97.4852753  15.7154572
  54.8796129  97.9444408  16.1560082  55.8343840  96.7811871  16.3179791
  70.6455612  64.6091175  23.5246754  70.2169275  65.1398611  24.1961026
  71.3100719  64.1113043  24.0009499  91.0858631 108.9569473  23.3076096
  91.7746162 108.3113098  23.1494594  90.9131718 109.3386364  22.4469590
  66.0572147 107.6523685  17.5239050  66.1242342 108.5429573  17.8682804
  66.9271421 107.4660492  17.1707165  93.4097481  89.6464634  43.1120348
  93.0593586  89.9631977  42.2794867  93.4687519  88.6975002  43.0015516
  71.6871500  71.3153982   8.6926079  70.9518528  71.6784525   9.1863310
  72.0154095  72.0513153   8.1759787  28.7991977  39.5183825  94.4936085
  28.8326430  38.9329505  95.2501678  28.3683276  39.0035915  93.8112831
  65.3375578 102.7052689  45.1950359  65.4514885 101.8312836  45.5683899
  65.6325054 103.3004475  45.8842325  65.9275246  96.6159439  16.0442126
  66.8451834  96.6957760  16.3045263  65.8734369  97.0835495  15.2107573
  98.0314064  75.0416183  22.1743274  97.8750610  75.7477331  22.8013730
  98.9117622  75.2101374  21.8384457  64.9885845  77.1190023  22.0172787
  64.9804640  76.4680624  22.7190208  64.2474890  76.8802261  21.4605069
  75.7139492  55.2715111  42.9287481  76.3089037  54.8380041  43.5405779
  74.8518944  54.9114370  43.1371784  99.2267418 101.6138554  38.0150151
 100.0378704 101.9706440  37.6530814  99.4865417 100.7817459  38.4103942
  71.9876909  70.8191109  47.8584385  72.5601387  70.2730703  48.3973026
  72.0135975  71.6794348  48.2772493 103.5908318   0.9105542  27.6789856
 103.1239223   1.7452504  27.6402068 104.4850636   1.1475275  27.9248214
   4.9233004  21.7917871  92.6495075   4.9905300  22.1867609  93.5188293
   4.5990959  20.9061694  92.8132343  59.5408821 104.9360943  43.3702517
  59.8995781 104.9857140  44.2563152  58.9417601 104.1900158  43.3958292
  84.7570801  62.1967411  17.4039435  84.8441887  61.4000845  16.8805075
  84.2654324  61.9221830  18.1779826   9.6861267  13.1235445  25.7589984
   9.3566680  12.3321772  26.1849427  10.1225817  13.6085165  26.4593840
 105.0490189  80.4371452  37.9462028 104.1529274  80.5250359  37.6213527
 105.0515938  80.9167004  38.7746048  94.9940968  87.5308132   9.6911377
  94.4826031  88.1361961   9.1543669  94.9801254  86.7075253   9.2030478
  62.6222992  97.9274559  27.2953963  62.3518705  97.0268059  27.1166968
  62.4945831  98.0333042  28.2381129  64.7671843  83.1125355  22.6692390
  65.0788498  83.6513233  21.9420552  64.9362850  82.2126484  22.3902369
  88.3434105  51.4986038  25.0001717  88.7265491  51.3606977  25.8664393
  88.9721298  51.1054754  24.3948627  74.4392490  47.8891230  17.2884703
  74.1610384  48.1263304  18.1730974  74.4468021  46.9319534  17.2883427
  13.7999070 103.4414196  89.8935795  13.4394479 103.8353634  90.6879997
  13.1784379 102.7499104  89.6659184  37.5720882  19.3133640  82.5531101
  36.8018031  19.8772073  82.6236439  37.3341990  18.5214555  83.0353165
  67.5146627  95.3439522  47.9207230  67.0903206  94.8232174  47.2388172
  66.8041325  95.8540154  48.3095789  81.1252117 102.2769547  16.8167925
  81.0011387 102.1657085  15.8742106  80.8200932 101.4533806  17.1973872
  46.7049360   5.7745594  71.2618637  47.5369167   6.1065799  71.5992117
  46.8695593   4.8476967  71.0884953  65.6370068  66.8504190   4.6208471
  66.0446024  66.8942976   5.4858172  66.3674212  66.7079258   4.0188348
  43.6503363 105.0434971  26.8747520  43.9328194 105.8788681  26.5024638
  43.1758070 104.6126842  26.1638045  52.5361586  55.0934553  87.1442986
  53.1610441  54.7723913  86.4941692  52.7643681  56.0157204  87.2608280
  92.5718212  90.6882191  40.6891775  91.8616390  90.7924557  40.0559187
  93.3465385  91.0229206  40.2374887  88.7280750 104.7954750  16.5232682
  89.6529675 104.8588657  16.7615795  88.2913494 105.4347324  17.0861626
   4.6897966  40.0679493  91.5403652   5.0361890  40.7193041  90.9304714
   4.9532780  39.2266726  91.1674595  85.9741592  95.1041603  17.2327256
  85.8756542  94.1777706  17.4525654  86.3388252  95.1028442  16.3477099
  81.4479542  65.9833241   6.4175028  81.2090588  65.4125738   5.6871533
  80.6283665  66.1199141   6.8927431  10.8604622  26.9890475  73.5294533
   9.9997711  26.8862844  73.9355087  11.4811265  26.7799759  74.2275190
  90.7367325  66.6997433  58.7300158  90.6317425  65.7974863  59.0319157
  91.6397476  66.7435598  58.4155846  94.1568470  56.8664837  48.3696699
  94.3028545  57.0210075  49.3029642  94.9664307  56.4564323  48.0652571
  30.2478933  37.2917700  91.6039753  30.0424123  36.8724298  92.4395370
  31.1903811  37.4543405  91.6429615  93.7787628 109.9683285  62.1331692
  92.9030228 109.8171997  61.7775488  93.8170147 109.4198513  62.9167128
  60.8139324  78.2600069  24.9575567  61.6083622  78.7287378  24.7018194
  60.1173830  78.6729717  24.4471550  35.4360015   0.1670731  34.7845435
  35.9446628  -0.0175868  35.5740976  34.5841129   0.4570092  35.1108098
  67.8518772  81.0804653  10.7476115  66.9695711  81.4457798  10.8132911
  68.2260323  81.4962101   9.9708283 105.4515457   1.3373224   7.2852677
 105.0671577   1.2106909   6.4178342 104.8279095   0.9287346   7.8855693
  45.9242153  48.3229494  87.5963020  46.6169596  48.7926435  88.0607605
  46.0949326  47.3995590  87.7818680  69.9536419  44.3458557  15.8798242
  69.5759201  44.0617561  16.7121994  69.4922066  43.8297129  15.2188373
  21.9288921  39.8386192  76.6020918  22.7811337  39.8082328  77.0368290
  21.8385124  38.9785504  76.1917973  72.2792006  67.5886679  30.0713038
  72.9064655  67.2573853  30.7139730  72.7431917  67.5380564  29.2356110
 113.7160873  54.1270065  19.5739794 114.1628456  54.5650768  20.2983642
 113.6741352  54.7884464  18.8833523  15.0759637   8.2272553  92.3903561
  14.3556035   7.7002829  92.0445061  15.7114303   8.2628548  91.6754055
  52.5658655  35.0044703  94.2114735  53.0083227  35.3367615  94.9925232
  52.9732752  34.1536522  94.0491199  51.9578524  81.4897013  94.6303399
  51.5167566  81.3845253  93.7873670  51.6483207  80.7522703  95.1562822
  68.1149006 105.2546978  37.8126502  67.4458265 105.9343147  37.8945017
  67.6568079 104.4410133  38.0231142  89.8288822  39.9332690  14.1771662
  89.7645092  39.5329666  15.0442564  89.1119099  39.5413470  13.6785936
  49.5003986  42.1155262  86.2476444  49.1674662  42.8086948  86.8176460
  48.8257170  41.4371347  86.2763405  70.2877378 100.0510883   9.4450825
  70.2938938 100.8363819   9.9923462  69.7889423 100.3043461   8.6683601
  72.3719978  70.3040981  27.4244142  72.2528219  70.6292915  26.5320683
  71.8413591  70.8889532  27.9653382  70.0944519  76.0442114  13.0474901
  69.7866535  75.7897615  12.1775770  69.2939472  76.1881781  13.5521650
  95.8629704 102.7987766  21.0607362  95.3964615 102.0127583  21.3449454
  95.3843021 103.0945396  20.2863741  92.7490520  48.2569313  36.7113662
  93.4347725  48.9112854  36.8448901  92.0312595  48.5435534  37.2760415
  23.9077592  31.8310142  92.3060131  24.0028310  31.9463944  93.2514668
  24.5327473  32.4480557  91.9253826  72.5472593  78.3370352  31.4526200
  72.2962189  78.6938524  30.6006265  72.1447992  78.9289188  32.0881748
  72.9882526  89.3911076  52.8265667  72.1982002  89.2022991  53.3329296
  72.6766634  89.4993114  51.9279957  82.7860928  68.2868958   5.6696016
  82.2139931  67.5320435   5.8079219  82.3339939  68.8122940   5.0094569
  69.8874855  93.9073849  12.2236657  69.1317225  94.2232800  12.7189028
  69.5226336  93.2681751  11.6116762  60.8047152  88.5359669  11.5038729
  60.5364799  87.8005314  12.0547032  60.7383108  89.3004608  12.0760357
  60.5388355  89.4051456  48.0910158  60.3594255  89.7562885  47.2188091
  60.2707338  88.4877014  48.0396557  67.1832705  97.1275520   1.3129663
  68.0535603  97.2479057   1.6928883  67.2704601  97.4375916   0.4115780
  67.9373741  19.1619205  92.2141647  68.3256102  19.7525144  92.8596878
  68.6774111  18.8677120  91.6831017  77.3744488  44.8360300  20.6309462
  77.1759510  45.7722712  20.6142664  77.7918100  44.6947861  21.4807081
  82.4425983  74.5724106  47.5410700  82.4205971  74.4083405  48.4838438
  81.5567112  74.3680048  47.2416449  69.3620205  56.5658283   2.2207701
  69.3585157  55.6098652   2.2693287  68.4510565  56.8167639   2.3737565
  87.5998116   1.4621836   7.4177808  88.5476589   1.3739139   7.3176563
  87.3132229   1.8945575   6.6133231  43.7309122  18.5832691  89.8037529
  43.1442118  19.1726613  90.2777004  44.1663361  19.1440117  89.1617203
  86.7086887  86.0261154  45.3508520  87.2277832  85.4171848  45.8761740
  85.8289433  85.9750938  45.7245970  45.3767443 102.5417805   2.9536223
  46.0773897 102.9916286   3.4258154  45.5409193 101.6118908   3.1103727
  93.4864330  41.3087988   0.8363903  92.6150894  41.0072851   0.5793166
  93.3740997  42.2427320   1.0135589  54.6979666  60.8557367  30.2830601
  54.9779797  60.6820107  31.1817503  53.7867069  61.1366749  30.3661966
 102.1154499  68.4117126   7.3272377 101.7710400  68.8053131   8.1289208
 101.7848969  67.5134945   7.3402482  77.3632622  85.0511646  52.0950079
  76.7946386  85.8197403  52.0483112  78.1642008  85.3706741  52.5105095
  77.4325895  69.6012735  10.9358525  76.9974613  69.2870712  10.1432812
  77.4195004  70.5549002  10.8542490  91.8523598  58.0648947   9.1818929
  91.3553429  57.7815628   9.9493086  92.4124718  57.3181057   8.9701945
  89.2062187  47.9752398  20.0045896  89.7701931  47.3913002  20.5117226
  88.3162975  47.7113247  20.2382898  78.4117270  61.0998154   8.8329619
  78.4094429  61.8935490   8.2979715  78.7875223  60.4283333   8.2636493
  83.0481815  69.6617651  20.7409668  83.7627792  70.0871038  21.2149620
  82.2541142  70.0617743  21.0954809  84.5919037  55.6549549  20.0783372
  84.8724079  56.2987757  20.7287550  85.3320694  55.5855274  19.4753718
  66.1319542  69.7230148   4.8085105  65.5162954  69.0099669   4.6389300
  66.2442017  69.7215462   5.7591057  79.6697474  80.0942612  42.6343203
  79.4227171  79.7250938  41.7864275  79.4468498  79.4113970  43.2669687
  71.3999844  92.3621750  37.8642273  71.3882256  92.6900864  38.7634325
  70.5566168  91.9219017  37.7587938  73.6639738  97.2101021   5.5268419
  74.3173552  96.6709709   5.9725553  73.2486629  97.7118874   6.2282419
  68.3671713  88.7433147  33.7624073  68.2482433  89.6904659  33.6917186
  69.2185831  88.5779381  33.3574677  75.7384014  58.4380436  22.7449107
  76.6641474  58.2540894  22.5855565  75.5461931  59.1956806  22.1923995
  67.0377398  89.5840931  16.2747717  66.8830061  89.0901756  15.4695785
  66.2720633  89.4006920  16.8191385  78.1768560  57.9106760  21.9211864
  79.0325642  57.5093317  21.7697906  77.7234888  57.8318977  21.0818505
 113.0001545  95.3202057  57.4144983 112.0905590  95.0600052  57.5599813
 113.3395958  95.5043888  58.2903337  37.3779488  63.5029650   9.0690613
  36.9106555  63.8319731   9.8369306  36.7338896  63.5415745   8.3620048
  90.8770084  92.4344730   9.2758685  90.4578304  92.8119087  10.0492144
  91.7801952  92.2721672   9.5481831  28.8165331   2.8166246  87.7181816
  29.2390776   1.9660354  87.8372860  28.3846784   2.9887897  88.5548973
  88.1206417  47.2223473  29.5768261  88.9164257  47.5955677  29.1978002
  87.8512859  46.5484905  28.9526463  84.2901421  96.9398975  38.9576983
  83.9722347  97.8043365  39.2182732  83.6355877  96.6213226  38.3361650
  60.0259113  28.5787392  25.2099991  60.4643297  28.0950689  24.5099378
  60.4458046  28.2708240  26.0131860  65.9518671  69.7313261  23.9342284
  65.7998466  70.3752375  23.2424903  65.5040598  68.9421415  23.6294556
  70.5524254  57.4869967  27.5510406  71.4146948  57.5758791  27.1450639
  70.4675055  58.2628107  28.1052423  40.5817938  22.0308900  81.1027050
  41.3272095  22.4510550  81.5317154  39.8559475  22.6414585  81.2315083
  84.8378849  52.4549007  23.5795689  83.9224815  52.3274183  23.8286257
  84.9245834  51.9971275  22.7434134  86.8925667  84.5206547  42.9880238
  86.8005180  85.1833916  43.6725283  86.0900307  84.5963764  42.4718571
  61.5605164  88.7165165  20.0262713  61.1864424  87.8453827  19.8942959
  60.8628654  89.2147636  20.4520249  64.8465824  76.2308311   7.4595690
  64.9513435  75.3670168   7.0607185  64.7539759  76.8278265   6.7171037
  62.7677319  80.5484878   0.8694328  62.3282525  81.3104831   1.2468589
  63.5887978  80.8944498   0.5195869 116.1924267  81.9232178  13.2906103
 115.6699085  82.6185322  12.8909302 116.9623470  82.3725033  13.6392939
  70.3967571  98.3524132  21.4149785  69.5240736  98.4871578  21.7844367
  70.9543276  98.9720726  21.8854713 107.5005913  57.1510983  18.1260920
 107.8661251  56.5452194  18.7707055 107.1352768  57.8650475  18.6486399
  82.5784302  81.3938046  11.5659785  82.1684265  80.8183861  10.9202039
  81.8700886  81.6208267  12.1684277  37.3607492  98.5241699  11.8124652
  38.1328154  98.9976788  11.5027285  36.7424321  98.5711956  11.0832858
  61.7152452  66.3123798  31.3893127  60.9681559  66.5443897  30.8377171
  61.5952063  65.3812408  31.5758753  69.8200274  90.4975700  26.9886351
  69.4100857  91.1803722  26.4576387  69.1167402  90.1800156  27.5550103
  52.2985220  63.1565666  12.7383161  52.5353193  63.9907312  13.1436825
  52.6715755  63.2035875  11.8580604  70.1410770  40.8309937  16.3790333
  69.7604561  41.0928106  17.2173727  69.8151159  41.4795351  15.7550323
  64.1508722  83.6665630  18.1579328  63.8430023  84.5274448  18.4413338
  64.0394783  83.6733723  17.2072613  21.2887716  61.1928463  88.9731598
  20.6032252  60.5317688  89.0692520  20.8691454  61.9045448  88.4898090
  26.8341160   8.1570351   8.5147440  27.3609018   8.9532095   8.4452057
  26.1851382   8.3573854   9.1892213  36.9769382  29.7614241  88.9268303
  36.1997604  29.2919779  89.2298889  37.5610375  29.0748835  88.6047649
  78.9356804  75.6304121  25.6189775  79.1804790  75.4375267  26.5240192
  79.1055202  76.5671396  25.5193615  84.3023014 106.5281200  45.2634811
  83.8545990 107.3670292  45.1538563  84.2123413 106.0958481  44.4141960
  15.9865808  87.7391338  19.1750216  15.8391321  88.2483387  19.9720192
  16.9390213  87.6747417  19.1047108 103.2045364   8.7513095  19.9351430
 103.7215328   9.5088822  19.6612287 103.5417557   8.5326636  20.8038855
  65.0918770 108.5744667  32.6841235  64.8770857 108.4856606  33.6126757
  65.7551861 107.9026222  32.5264001  94.5537758  11.1847949  32.2999358
  94.3077564  10.9429610  31.4070654  93.8644314  11.7850471  32.5840712
  94.9859905  92.4639797  39.7971964  94.8226357  93.4066010  39.7654581
  95.8379936  92.3542023  39.3749785  30.3543854  11.7821491  84.4700718
  30.4251742  10.8585453  84.2288685  30.9925246  11.8953216  85.1744938
  80.0073433  54.6971560  14.8461676  80.5682278  55.2783394  14.3324864
  80.2960491  54.8229933  15.7500768  74.2431831  36.8166304  87.2782612
  74.5622826  36.7350650  86.3795090  73.4917545  37.4059796  87.2130680
 109.4512177  63.6807299  31.8936110 108.6743832  63.2011366  32.1812558
 109.1976357  64.0666485  31.0551643  55.3825045  34.4367743  87.1475887
  55.6225967  33.6973286  87.7059841  54.5010805  34.6766114  87.4335957
  89.8971653 106.7455006  11.4000845  90.4962921 106.4805412  12.0979881
  90.2719021 106.3653469  10.6055534  74.2370558  79.3224525  11.9889915
  74.3698788  78.4467411  11.6260612  73.6993408  79.7726822  11.3375390
  79.4167328  95.6001186  14.8688757  79.5127487  94.9007511  15.5153346
  78.4802485  95.6169224  14.6715176  69.0066719  82.1812725  53.2240820
  68.1115675  81.9036102  53.0293322  69.0198231  82.2982788  54.1740131
  70.6486320 103.5305786  15.9959495  69.9730635 102.8764629  15.8171594
  70.5417347 104.1811466  15.3020000  93.8225174 101.2772369  37.7185726
  93.2720757 101.2757874  38.5016727  93.8294983 100.3649044  37.4290299
  51.5231466  79.0018845   3.3280560  51.4651918  78.6400414   4.2123309
  50.6173420  79.0268040   3.0196252  81.8387890  69.7806215  48.8448143
  81.0803127  70.3173494  48.6148834  81.8262672  69.7455263  49.8012877
 102.2809505  76.1842012   9.4335657 102.2996902  76.7254162  10.2228487
 101.4384556  75.7316065   9.4734484  79.5832300  59.3364763  29.4005942
  79.9965715  59.4747639  30.2528000  78.9914942  60.0817823  29.2976403
  53.6328936 109.4553280  36.6070461  53.4461689 110.3589439  36.8616796
  54.3971777 109.2122936  37.1295786  90.7554722  98.8361359  28.6318564
  90.4348850  97.9382324  28.5468650  90.2023315  99.3450642  28.0391765
 111.8664169  90.1267719  19.0861142 111.2972069  90.6320953  18.5057032
 112.3654556  89.5598221  18.4980989   9.8884469   2.4595304  48.0001497
  10.2902222   1.6522996  47.6789188  10.0959575   3.1127274  47.3319387
 109.1500664 101.1357975  22.6147318 109.8580170 100.6488323  22.1929288
 109.5262623 101.4371967  23.4416962  94.2146397  83.1344891  53.1396484
  94.5215130  83.0566406  54.0429783  93.6676216  83.9199829  53.1393814
  91.1788082 109.2390919   2.9531303  91.9763660 108.7324715   2.7999368
  90.9425545 109.5804977   2.0906582  60.2951574  70.7101250  26.1155963
  59.5100355  71.2381411  26.2605572  60.2453470  70.4547596  25.1944351
  80.0260448  75.8582163  18.6676109  79.6799994  75.4272413  19.4491112
  79.5620108  75.4437494  17.9402077  67.5236797   1.5082474  26.5881324
  66.6900778   1.2033227  26.2298584  68.1719494   0.8952548  26.2414074
  70.1222610  83.4530640  24.8796701  70.5987072  84.1735554  24.4672155
  69.2686081  83.4514809  24.4466543  77.6123619 104.1694736  47.1163464
  77.3858833 103.6237907  46.3632393  77.2393560 105.0269127  46.9116592
   6.1093813  61.0242248  94.5926645   6.9095713  61.0085386  95.1177230
   6.4159208  60.9729904  93.6873256  74.0440559  92.3309708   3.4573203
  74.0370083  92.9655361   4.1739196  73.1203461  92.2036743   3.2410306
  12.0039201  58.9956522  92.0040798  11.5653241  59.8057508  91.7440796
  12.2621107  58.5872316  91.1777878   2.0031476   2.9321265  54.4109249
   2.1603942   3.4097737  53.5964584   1.3809510   2.2458535  54.1698217
  79.8234987  83.1777573  79.1022873  79.4874048  84.0287781  78.8211632
  79.9087858  83.2559204  80.0524712  27.3421741  40.4462719  89.8344803
  27.6912999  41.3374138  89.8489761  28.1165099  39.8865914  89.7762299
   8.2338351  68.7001610  82.7256966   7.2908586  68.8641930  82.7367115
   8.3242440  67.8010321  83.0413342  81.2583923  93.9323997  21.7009234
  80.9622860  94.7955132  21.9900465  81.0203362  93.3448696  22.4181175
  49.4234514 107.9743004   8.1675756  48.8784885 108.4766293   7.5618434
  50.0417709 107.5091648   7.6040435  40.9916544  32.6380134  85.5163002
  41.6470146  31.9550538  85.3738308  41.3701487  33.1949830  86.1965656
  43.7850142   0.6955595  44.6460772  44.3974209   0.6557093  43.9114952
  42.9392958   0.8908252  44.2425203  76.4804792 107.4185371  44.4684553
  77.3126173 107.8053284  44.7408056  76.0733700 107.1271992  45.2843046
  32.1263194   8.2242572  30.1566887  31.9905186   7.4680519  29.5857739
  32.6525354   8.8283825  29.6328950  73.4139490  83.7884808  25.7972240
  73.2125282  83.0763912  25.1901007  74.3665791  83.7640667  25.8874249
  79.6998549  81.7137718  45.4705954  79.9293756  81.6567993  44.5430660
  78.7440825  81.7655468  45.4780769 115.4538250 105.5937099  25.8939409
 115.3929329 104.7721863  26.3814068 115.5280113 106.2679958  26.5692687
  74.9785280  87.9266834  37.6722074  74.1221380  87.8385067  37.2538161
  74.9200153  87.3793221  38.4552813  74.3259716  94.6155739  21.6353464
  74.2334843  95.0998974  22.4557829  74.1122532  95.2540112  20.9549379
  90.6358910  96.2864017  40.4773521  90.2804947  96.5194607  39.6196747
  90.0977612  96.7747974  41.1003494 114.1821957  12.4847281  93.8500309
 115.0366211  12.2700000  93.4757423 114.3861580  12.9402673  94.6668053
  57.6013470  22.4672198  74.5735931  58.2434607  22.1391201  75.2030945
  57.2184849  23.2341194  74.9996424  74.4891787 104.3391037  54.3413401
  74.7519541 103.5391140  53.8861561  74.8813868 105.0460815  53.8289070
  70.2408314  59.9053335  39.8316741  69.6575356  59.2304754  39.4844580
  71.1125708  59.5119715  39.7920585  78.3424664  90.0903225  20.6239557
  77.4827719  90.4804516  20.7819319  78.7867832  90.7142353  20.0498915
  67.0998335 106.5989017  32.4526668  67.6586723 106.3356590  33.1838512
  66.7134380 105.7809067  32.1399331  99.1927338  36.5361309  30.7667685
  99.3931961  36.1709523  31.6285658  98.7647629  37.3715401  30.9542871
  44.5378447  43.7225008  64.1337299  44.1712189  44.3589211  63.5199070
  43.9808989  42.9498291  64.0387678  75.8647633  63.9929867  28.8722897
  76.2981510  63.4369802  28.2247853  75.6238270  64.7822857  28.3873296
  87.5836086  65.0271749  57.6255894  87.6883698  65.9289646  57.9289627
  87.1030807  64.5918798  58.3297491  95.9709549 101.5958309  24.2926002
  96.8290424 101.2998581  23.9887667  95.8767891 102.4746609  23.9251375
  98.1228447 101.2407207  18.5896897  97.2812176 101.6966724  18.5904658
  98.7357426 101.8698788  18.2092202 104.0609074  77.7248955   7.8681177
 103.4668159  77.1660376   8.3690792 104.9216175  77.3216629   7.9813617
  71.3367605  88.1030273  27.9032898  70.5965137  88.5912228  27.5428295
  71.2632847  87.2327614  27.5115442 100.7958508  94.3067837   7.1568996
 101.5539932  93.9980984   6.6607505 101.1593914  94.9277592   7.7881414
  97.2887707 100.6185150  40.8955336  97.6391411 101.1475658  41.6121817
  96.7708874 101.2328434  40.3753090  74.0414047  80.8993244  40.5143738
  74.1711998  79.9844074  40.2647400  73.2616663  80.8878326  41.0694504
  80.6879616  49.9141550  19.3056428  81.4145088  49.4735241  19.7463262
  80.5531311  49.4097662  18.5033667  58.0406141  87.7797508  34.7734976
  58.1947708  87.8128147  35.7176232  57.3321295  88.4058952  34.6244216
  71.0843563  80.6995773  22.4329066  70.7882452  80.0343609  21.8115950
  70.6813240  80.4476166  23.2637548  83.6798763 104.5468616  23.1166148
  83.5175991 104.3505859  22.1939182  84.2235374 105.3345490  23.1019068
  56.2874508 101.0450268  46.5461493  57.1640205 100.7141972  46.3501740
  56.4388752 101.8978596  46.9535732  99.8080635  90.6214714  49.1070890
 100.1698208  91.5066147  49.1505671 100.4646015  90.1177597  48.6259842
  31.3798475  50.0383615  90.5063725  30.9180045  50.3772783  89.7395134
  31.9080591  50.7753992  90.8129501  90.6418991  88.0537987  32.7794790
  90.1511097  87.9928207  31.9599390  90.1175785  87.5600052  33.4099483
  71.6148853  49.9318743  22.6707435  71.2620211  49.3475103  23.3417392
  71.2010288  49.6410084  21.8581200  82.9615307  93.9688110  18.5937750
  82.6736736  94.7810841  19.0103984  82.8780746  94.1382885  17.6554024
  91.0323334  96.3260078  61.3607025  90.4345703  96.5169239  60.6378841
  90.8028221  95.4375267  61.6330194  95.7476521  56.7206240   8.6772668
  95.0875187  57.0005512   8.0431628  95.4249954  55.8807468   9.0039635
 115.2824211  28.7579942  93.4129238 115.2198124  29.1333961  92.5346375
 114.7942924  27.9364681  93.3576107 104.0416145  93.1622696  15.2069819
 104.8721313  92.9392719  15.6273925 104.0526009  94.1175079  15.1466346
  86.1122608  83.5523796  22.2004199  85.5662918  82.8053856  21.9551730
  85.5005932  84.2860508  22.2622728  70.2350521 104.0925694  74.0898895
  69.5468998 104.6839619  73.7850285  71.0198879 104.3765736  73.6212635
  83.1277752  61.1634254   4.1926825  83.4168530  61.4954329   3.3427173
  83.8032150  60.5344391   4.4464377  77.7683687  54.2694807  12.1634126
  78.5119677  53.7907934  12.5296676  78.1492424  54.8113203  11.4723432
  79.8565006   3.6604643  74.1325092  79.0476656   3.2859227  73.7835979
  80.4668331   3.6412430  73.3953810  77.8622818  99.2512131   5.9794152
  77.5279474 100.1322174   6.1476141  78.7561893  99.3899632   5.6665134
  76.2014818  75.0349760  20.1304889  76.9669008  74.7695112  20.6402850
  75.7451057  74.2155838  19.9393046  65.2268314  57.8976154   7.7104300
  65.9679222  58.1933212   7.1816796  64.8322630  57.1928024   7.1968311
  90.9897137  95.4599380  27.9763365  90.0788212  95.2348423  28.1656456
  91.0544300  95.4143047  27.0224166  62.1623373  94.7450924  63.0064964
  62.3265886  94.1075134  62.3116970  62.2522020  94.2442894  63.8172722
  65.2615833  70.7523108  10.2735150  65.1747799  71.6074085   9.8521984
  65.3921700  70.9539795  11.2000716  75.2596235  82.7214432  30.4327202
  74.4282007  82.6323128  29.9668598  75.5710077  81.8228054  30.5410504
  71.3339472  94.4949150  36.2057829  71.5157652  93.6429214  36.6023612
  70.3787613  94.5405674  36.1636782  80.1535225  62.3133898  44.5273972
  79.9196482  61.9446564  43.6755896  81.1107063  62.3149776  44.5330429
  74.5487022  77.2526503  10.1654720  73.6906719  77.3589373   9.7547209
  74.5021343  76.4013529  10.6006205  37.2590780  34.6195579  83.8739300
  36.3855124  34.2452717  83.9880657  37.6772118  34.5168686  84.7288227
 111.9036102   7.6040965  36.4126086 111.0672092   7.4120438  36.8366170
 112.5609398   7.4109483  37.0810747 114.2267990  35.1042032  12.9713881
 114.5006466  34.2960358  13.4050941 113.8016129  34.8112655  12.1653891
  71.9228315 103.5915279  18.3681846  71.7087078 103.6956120  17.4410653
  71.8001080 104.4642258  18.7417841  70.5022144  90.3739262  19.7987008
  71.2062740  90.8604431  19.3699455  70.1805782  90.9667397  20.4779315
  80.5425644  87.6450729  24.7628212  79.7462988  87.9108334  25.2227736
  81.0249043  88.4608078  24.6280575 114.5883560  94.7663021  34.0843058
 114.0676785  94.2782593  33.4463882 115.3228283  95.1138306  33.5783339
  81.5764904  74.0827608  21.5456772  81.8976498  74.3124962  22.4176335
  82.3665619  74.0154552  21.0094881 109.0460491  70.5622005  15.9860039
 108.6848927  70.4472733  15.1070344 109.7552395  69.9215412  16.0391986
  68.3388376  22.3732066  29.8760176  68.5349989  21.5739346  30.3648067
  69.0838766  22.4813938  29.2848825  54.8811150  10.6696236   2.8135657
  54.6180010  11.0786700   1.9891368  54.8475122  11.3796306   3.4546515
  47.8061247  36.3935876  33.5367918  48.6809397  36.5771794  33.8791704
  47.3660326  37.2436166  33.5358548  46.6977692  29.1159344   8.6255038
  46.8648767  29.1218758   9.5679855  47.1655369  28.3451104   8.3041710
  70.3594732  16.8567491   7.4367338  69.5388079  17.3479974   7.3990816
  71.0265970  17.5185120   7.6190710 102.3026085  62.0939207  84.5784569
 102.8958035  61.7916918  83.8907051 101.4958572  62.3211336  84.1161156
  78.3298445 104.1700268  91.8165016  78.5880566 105.0809097  91.6755676
  78.8052177 103.6798000  91.1457348  39.1203642  19.0888298  30.3603721
  38.9225125  19.5449042  29.5423985  38.3572268  18.5320473  30.5147958
  50.5388594   5.9944427  10.9200466  49.8082256   6.5051883  11.2686753
  50.8841085   5.5222666  11.6777313  33.5626507  16.8125200   7.0048064
  33.2833934  15.8984995   7.0578349  33.7612033  17.0551538   7.9092056
  45.8330536  42.2608948   3.4688142  46.6748905  42.4028349   3.9017057
  45.3568792  41.6750813   4.0572968  82.7578354  18.5772693  11.3618314
  83.4158325  18.0615592  10.8956611  82.8328037  19.4553018  10.9881055
  78.8286781  39.4765258   3.8625792  79.4998312  39.4421649   4.5441979
  79.2192650  40.0073624   3.1683996  29.7748637  19.4205940  21.4653111
  30.6152844  19.7731853  21.7578912  29.7730327  18.5157204  21.7774534
  62.3699903  53.5814428  11.5462315  61.9935179  53.1664658  10.7701564
  63.0776215  52.9943323  11.8123055  92.7163696  16.9135380   6.6765755
  91.8439007  17.1810091   6.3876379  92.5979328  16.6584218   7.5915176
  18.0889225 104.3838120  25.2524543  17.4042284 104.5573139  25.8984590
  18.6980140 105.1162148  25.3464222  55.1809692  65.6698322  79.6309566
  55.5874014  66.4006662  80.0967121  55.0583410  65.9931517  78.7383986
  52.8129196  94.1405582  79.3761873  53.1241655  93.7056828  78.5823059
  53.5720539  94.1467381  79.9592066  61.7306614  39.5923257   8.7610847
  61.1603594  39.1172528   8.1566900  62.2437906  40.1733446   8.1995255
  49.6068668  36.7363596  21.9220018  49.0857553  37.4893332  22.2007513
  49.1471863  35.9793353  22.2850990  42.9439259  13.4980321  17.1175075
  42.9648829  13.8878405  16.2435269  43.6400604  13.9472783  17.5968874
  58.1323957   7.5501955  10.4980981  58.3531713   6.8210882   9.9185359
  57.3618126   7.2487789  10.9793234  34.1200399  40.9933615  17.2654331
  34.1015911  41.8529224  16.8446708  33.2202387  40.8512020  17.5593400
  67.4501324  49.5953989  16.2609994  67.5493050  50.5469751  16.2910295
  68.1939411  49.2934084  15.7396698  64.8156691 100.5405998  92.6091576
  65.5085135 100.4146194  91.9608307  65.1399279 101.2430191  93.1727982
  79.5514011  46.0321665  23.4478092  79.8622704  45.6954384  22.6074505
  78.7534523  46.5148211  23.2320380  34.1312051  86.9751167  13.2281351
  33.2328033  87.2384930  13.4274828  34.5718050  87.7899837  12.9871166
  36.3458753  16.9985616  12.0704234  36.5810466  17.8375626  11.6741872
  36.4761996  16.3583827  11.3708389  77.5616598  10.4878414   1.4073461
  77.1438074  11.3175273   1.1765783  78.0219126  10.2219069   0.6113092
  50.0567055  32.1950698  41.7281008  49.1346550  32.2751641  41.4838934
  50.4924536  31.9052958  40.9266090  15.8740175  98.6856079  28.1708574
  16.4647532  97.9522324  27.9993081  15.1333666  98.2934475  28.6333227
  41.6393852  79.2862415  11.3839746  40.7257128  79.3445635  11.6633201
  42.1154547  79.8371172  12.0053625  54.5190573  37.3861289  15.5947220
  54.8220491  36.5535426  15.9569764  53.6578655  37.1880245  15.2268457
  96.4137650  60.7631826  85.5372715  96.3128281  60.2213144  86.3198376
  97.3408890  60.6875658  85.3115273  16.7293799  31.0799026  32.9160714
  16.5509880  31.4282846  33.7895918  16.4823699  31.7876935  32.3208833
  69.7307730  62.1145773  19.0597284  69.9062824  63.0540609  19.1126001
  70.4669237  61.7611265  18.5603404  95.5206394  95.5442810  87.9481888
  95.5598831  96.0560989  87.1402740  96.4340591  95.4559898  88.2203960
  58.6311769   9.4794971  13.5607088  58.7918091   8.6013460  13.9060795
  57.9965973   9.8626614  14.1662872   3.0926341  54.6310997  94.9150372
   2.3015955  54.3078566  94.4837570   3.7929690  54.0692997  94.5831585
  57.5517082  43.6949825  93.3099079  57.8652334  43.9176607  94.1864681
  56.5985727  43.7555456  93.3738899  76.5684462  55.3368521   5.5562949
  76.3888311  56.2544060   5.3512079  75.7765341  55.0307798   5.9983712
  37.1649361   7.6643276  46.4423323  37.0733356   7.5538754  45.4959488
  36.7348313   8.4988737  46.6288137 111.3694382  98.2150173   1.2370330
 111.0192585  97.3392963   1.0735730 112.3188782  98.1079483   1.1791959
  48.0534935  21.0609388  41.6094780  47.1189928  21.2570500  41.6764402
  48.0887794  20.1214242  41.4297533  61.2771320  40.5465412  24.3872428
  61.0743093  40.1484394  25.2337694  62.2003508  40.7907629  24.4524693
  59.3635559  57.5019407   0.5828526  59.9058056  57.5921774   1.3664687
  59.9113750  57.8363180  -0.1273010 110.2342987  32.7158165  79.5997906
 111.0940266  32.3505807  79.3907452 110.4056835  33.3468699  80.2988148
  21.9045830  20.9005618  43.1763887  21.1814785  21.2934041  43.6652946
  21.5637350  20.0559378  42.8820038  57.8785896  48.2925510  10.6395733
  57.3135424  48.0950689   9.8926109  58.7563229  48.3621836  10.2641177
  60.2672625   2.9764351  16.9543254  59.6472216   3.1835362  16.2551188
  61.1236906   2.9909968  16.5270638  17.0323253   1.5390921  78.4893513
  16.9549024   2.1827115  79.1936207  17.9727304   1.4805534  78.3206987
  56.1193275  17.3283565   5.5527228  57.0073557  17.5916815   5.3112757
  56.2292385  16.8290520   6.3619483  13.5492396   1.5119788  93.3035851
  13.1899822   2.3976353  93.2508755  13.1292212   1.0399483  92.5845528
  69.5150042 106.7075920  90.9717083  69.2323875 107.2459126  91.7110157
  70.2132750 106.1585236  91.3283253   8.4213346  98.1458569  90.1682091
   9.1296738  98.4148502  89.5832920   8.6187404  98.5792446  90.9985352
  85.4300594  91.3211727  90.7628155  85.6097317  91.0885429  91.6737652
  86.0880852  90.8421803  90.2590275  20.5894136  16.3349879  17.1502423
  20.5611897  17.0810676  17.7492416  21.5227699  16.1757231  17.0098519
  55.4778099   6.5251273  40.5209684  56.0223246   7.2542489  40.2241278
  55.0527000   6.2043518  39.7255969  53.2600451  49.1732788   7.8675681
  53.1908321  49.2871952   8.8154411  52.3704243  48.9593410   7.5864476
  23.1675959   5.5269915  37.1777225  23.3838153   4.6792412  36.7893934
  22.2150207   5.5119741  37.2704959  39.6470666  51.3039017  29.1935468
  40.5280876  50.9819126  29.0028763  39.2550731  50.6210375  29.7378516
  11.0857916  46.1728334  10.9377110  11.7064786  45.6448412  10.4355121
  11.6292572  46.6482258  11.5661049 102.1697426  73.1864977  87.4840069
 102.2984695  74.1195774  87.6543713 102.2471905  72.7731133  88.3438587
  40.5334473   3.5565662  33.1005383  39.9455023   3.3264259  32.3811007
  40.8326435   2.7146947  33.4439993  60.7979345  18.0173504  28.9030313
  60.3606749  17.2574782  29.2872596  60.0946569  18.5096586  28.4796309
  73.4522152  85.1630592  64.1713428  74.3761683  85.0237751  64.3790483
  73.3833981  84.9610424  63.2382345  61.7366028  48.5185385  25.8618212
  62.0646191  48.0545664  26.6321230  61.1164379  49.1574574  26.2131214
  61.0124731  28.1568742  28.0075336  60.6938362  28.9622521  28.4150481
  60.7487965  27.4624276  28.6112261  77.8076744  14.9055803  16.7202461
  77.0551729  15.4971659  16.7198920  77.4481392  14.0605509  16.4502609
  40.2133894  31.8954301  22.9490972  39.8096085  32.6173091  23.4308481
  41.0714722  32.2309756  22.6896167 115.3222318  16.3323736  80.5492496
 114.6539213  15.9992421  81.1480904 116.1323938  15.9109914  80.8361435
  92.3878765  59.6617985  75.2037716  92.6967049  60.4149961  74.7002316
  92.6099014  59.8726749  76.1106730  86.3147163  48.3409452   3.9731726
  85.4727745  47.8862143   3.9489344  86.9592190  47.6625586   3.7715578
  31.6870618  49.3203115   3.3846295  30.8503628  49.7836924   3.4226501
  31.6229367  48.6536551   4.0685093 101.3039303  97.2255611  93.8021851
 101.6257000  98.1018734  93.5905743 100.8893681  96.9212151  92.9948807
  35.6723094  49.6392155  12.1372700  36.1728001  48.9946890  11.6369486
  35.6279659  50.4049778  11.5646648  68.7963200  58.9823818  17.5833809
  68.8095331  58.0648661  17.8558207  69.3502998  59.0085793  16.8032205
  70.2645874  41.5142775  29.8338032  69.8342848  40.8120966  30.3216720
  69.9464798  41.4124584  28.9367676  85.6907272  48.8997793  87.7119255
  85.9542942  49.1177797  86.8179226  86.2786961  48.1893492  87.9684734
   1.6224183  23.5585046  90.8416080   2.2158253  24.2497158  90.5477905
   0.7998085  24.0116501  91.0265446  36.4630103  19.3136895  10.8155334
  35.9017467  19.6469343  11.5156496  37.0195293  20.0562572  10.5807674
  56.2398577  22.5879884  35.7977557  56.6193914  21.7806244  36.1446691
  56.3590240  23.2290697  36.4985013  84.8769093 101.4911461  85.7674217
  84.8060226 100.6428242  85.3297424  85.8172798 101.6672897  85.7975197
 106.7130470  87.1841240  85.2282619 107.0799065  86.9711685  86.0863400
 107.2497177  86.6895580  84.6088982  40.7811546  14.2048085   5.8167183
  40.5547762  13.2901835   5.6480521  40.6389666  14.3173409   6.7565858
  91.4480972  69.8638344  11.0549212  92.1387768  69.9043989  11.7164052
  91.8782139  69.4987917  10.2816308  38.5505390   9.8377275  15.9217560
  39.3058681   9.6361321  15.3694260  37.7959633   9.7380191  15.3413212
  64.6582127  24.4842243   5.8763236  65.3756046  25.0640440   6.1320382
  65.0383091  23.9128280   5.2090430  83.6470222  40.0823021  13.8242376
  84.0907383  39.3951941  14.3214691  84.0777683  40.0755501  12.9694593
  87.0851994  41.8439960   3.5729972  86.2745380  41.9020605   4.0786526
  87.4245834  42.7389288   3.5609347  90.4382896  83.3541584  83.9946270
  89.5928955  82.9646492  84.2178249  90.3501511  84.2749977  84.2406368
  41.2454987  35.3149819   3.6200115  42.0589638  35.7817078   3.4285167
  41.3188553  34.4953251   3.1311217  91.2651348  92.3972893  66.4061308
  91.3756275  91.5070152  66.0723162  91.3372135  92.9543686  65.6310844
  81.7442131  17.1548760  38.3483958  81.8819809  16.5242517  37.6415968
  81.5435982  17.9766560  37.9004431  78.0665541  95.7197571  80.7855797
  78.6965084  94.9991798  80.7730198  78.3831978  96.3027096  81.4756012
  57.0141506  24.9013042   7.5270689  56.3290453  25.0557256   6.8766731
  57.2166204  25.7706594   7.8726959  42.8855515   2.0052257  47.3308086
  42.9940224   2.0967311  46.3841867  43.3609724   1.2038765  47.5500107
  24.6522045  28.4424949  28.2824349  23.7206340  28.2226896  28.2728553
  25.0974941  27.6034594  28.1642413  39.9509239  13.6401403  75.3999138
  39.7697687  14.1705310  74.6239614  40.8895826  13.7503803  75.5515814
  83.8797474  70.3242016  57.8402138  84.7172356  70.7664061  57.9791451
  83.7940407  69.7330856  58.5881853  35.1177049  14.7307563  21.7424107
  34.5885491  15.5187595  21.6188145  34.4990826  14.0079188  21.6373253
  48.1060219  37.3720527  46.2905312  48.3359909  36.4848900  46.0143328
  47.2265720  37.5118089  45.9394312  40.8081532  61.2864494  26.7336082
  40.6925154  60.4995441  26.2010312  41.7518234  61.3358879  26.8861389
  51.5815306  52.8643179  12.8607416  50.7600784  53.2690859  13.1393313
  51.3263988  52.2598267  12.1637976  52.6016092  39.9841762   5.7607454
  53.5487509  39.9415040   5.8924103  52.4714375  39.6879339   4.8598972
  61.5337563  54.0776873   2.2981891  60.5837154  54.1690636   2.3710009
  61.7224503  53.2225609   2.6846904 108.4497261  86.0278606  77.9381418
 109.0946007  86.1051083  77.2350025 107.9060745  85.2822590  77.6836872
  97.0865059  61.5724754  15.4104388  97.1853352  61.5329123  16.3617015
  97.2686005  62.4856091  15.1884913 112.3956776 105.2842331  81.6363430
 111.5171719 105.4564571  81.9751644 112.4563122 104.3295574  81.6021729
  72.9417467  46.5717649   6.2364191  73.5903645  45.8684063   6.2077802
  72.1102858  46.1245394   6.3942111  54.4719172  92.1701241  73.5480022
  55.0614882  91.4711571  73.8309813  53.6479044  91.9855595  73.9987469
  98.0879784 108.1664848  90.5518818  98.8633919 108.6266327  90.2305984
  97.4293327 108.3026314  89.8707867  24.4452333   4.9747127  93.9288807
  24.9098206   5.2593982  93.1418991  23.8643765   5.7051998  94.1415405
  70.3693724  79.6265554  24.8944569  70.0630999  78.9005470  25.4379106
  70.5491161  80.3318596  25.5161262  17.2263341  40.4799199  -0.0838887
  17.4572997  40.3152203   0.8303035  16.8151574  39.6668362  -0.3772675
  62.3930502  32.2766495  24.6378255  61.9464874  31.7980456  25.3362179
  61.7545557  32.3120880  23.9255762  45.5741549  36.0961223  62.6156759
  44.8630095  36.6994071  62.8314400  45.7706976  36.2765598  61.6964149
  65.6316137  39.4635558   6.6004670  65.3893471  38.6114216   6.2379676
  66.2547445  39.8238564   5.9694976 102.0282173 109.7550106  66.5836287
 102.3099041 108.8583088  66.4025068 101.6648388 109.7178268  67.4683905
  55.4389381 107.1388912  86.7868805  56.0509396 107.3986149  87.4755287
  55.9623671 107.1475697  85.9855175  62.7099943  91.0547733  80.2046394
  62.4060488  91.9262695  80.4582787  62.9935932  90.6517792  81.0252476
 110.6614780  73.7017012  73.9720392 110.0884724  72.9563475  73.7921762
 111.1747742  73.4309864  74.7332716 107.0149994  77.1553755  74.7705603
 107.2808933  77.5133705  75.6175375 107.0614433  77.8998041  74.1706467
  66.6699457  58.6696911  33.2057118  66.2135601  58.3991718  34.0024281
  66.1459923  59.3941164  32.8637862  55.9124184  39.2660093  17.1313620
  55.6833744  38.6034989  16.4795566  56.0056496  40.0749063  16.6281474
  91.3862514  87.3132610  74.1566515  91.7768288  86.5135098  74.5089054
  91.9881153  87.5894260  73.4654760  64.1076326  55.7235003   6.6403955
  63.7580490  55.6969690   5.7497102  63.9289618  54.8520899   6.9938791
  78.9447832  37.1788788  19.8425961  78.2408094  37.7894878  20.0612497
  78.8701868  36.4834189  20.4960513  32.0171785  31.3521528  16.4076447
  32.3981094  30.4745817  16.4391589  31.2684083  31.3097358  17.0024347
 113.4873772 107.7088928  91.4427567 114.3551826 107.3683453  91.2255859
 112.8872204 106.9997215  91.2122822  48.7071133  38.9931941  23.2262897
  49.3165159  38.7119818  23.9087725  48.4994936  39.9005246  23.4496140
  19.8625064 106.3274479  66.4606476  20.1648879 106.3810062  67.3672485
  20.5328298 105.8096695  66.0147762  59.9296522  50.1498175  30.8910584
  60.8020830  50.3089809  30.5308318  59.3387651  50.2634144  30.1466227
  68.3680820  91.8126583  90.6163406  68.1668043  91.3260651  89.8169994
  68.1806183  92.7248669  90.3950500  24.9929786  61.4750862  14.5072591
  24.9073219  61.6160870  13.5643840  24.1535020  61.7589331  14.8691201
  75.7810307  15.9975016  19.3155229  75.1751995  15.2584660  19.3705201
  76.5534544  15.7107735  19.8027420  84.9858952  45.3978872   7.3947251
  84.3371582  45.4213476   6.6912931  85.4383373  46.2390327   7.3314315
  48.3700705  40.8942986  25.6007242  48.5039425  40.3417921  26.3708210
  49.2200184  41.3089323  25.4527450  76.3629675  38.4053755  19.5921040
  75.5308962  38.1302333  19.9770463  76.1842966  39.2736197  19.2309093
  62.9473972  47.5248671  21.0782218  63.1396770  47.2253084  20.1896715
  63.3720875  48.3804893  21.1396813  65.3414202  21.9348121  16.3815379
  65.6521511  21.0831285  16.6886365  65.3615093  21.8671227  15.4269457
  58.5008430  66.4128399   7.2453636  57.6109409  66.0812092   7.3650610
  58.7458420  66.7567635   8.1043869  72.9151869  96.6673088  87.6449966
  73.3162880  96.2971115  86.8586731  73.5416222  97.3253727  87.9462814
  94.5687485  21.2223148  29.4368219  93.7869167  21.6732764  29.1180682
  95.1140499  21.9183969  29.8033500  29.2185378  40.8631945  11.9802964
  29.3152571  40.3131914  12.7577078  29.9660921  41.4600325  12.0146418
  39.5819116  42.1796513   5.7260793  39.7904253  41.9515753   6.6320246
  39.7795200  41.3865662   5.2278769  62.7599573  22.9217219  42.0602179
  63.6256456  22.9242086  41.6517878  62.9274750  23.1362200  42.9779100
  43.1980038  48.5514784   5.8363718  43.4700727  48.6344671   4.9224111
  43.1432152  47.6075077   5.9851956  72.3548317  51.5531111   1.5257855
  71.4182854  51.4997101   1.7162065  72.4149132  52.1590567   0.7872387
  92.0474339  69.3154097  66.1103773  91.5387344  68.9967728  65.3647661
  91.4273453  69.3185711  66.8395615 102.9331875  88.3221817  78.9078331
 103.2731342  87.7056122  78.2593775 103.5536575  88.2714176  79.6349287
  74.5330811  24.9584126  19.2934716  74.7035074  25.8590531  19.5692158
  75.3331852  24.4835854  19.5184290  33.8652563  26.5307713  11.1563456
  33.7886977  26.2766385  12.0760131  34.8050427  26.5009475  10.9770525
  82.5107765  97.2622395  82.6642513  83.3390427  97.7354527  82.5849915
  81.9619370  97.6216602  81.9672489  95.7761669  97.0208931  82.0835590
  96.3337135  96.2652016  81.8983364  94.9627686  96.6423607  82.4172401
  64.9739933  20.4034281  33.9786911  65.1487589  21.2221026  33.5145140
  64.4482231  20.6643391  34.7348142  60.2804375  45.1694393  10.9972107
  60.7884645  44.4163609  10.6955266  59.6188879  44.7946501  11.5786898
  58.6360216  53.6699820   2.5462568  58.1645584  53.8200426   1.7268436
  58.1420279  52.9762506   2.9832232  80.2176762  40.5236959  18.6170256
  80.0663185  41.0157824  17.8100693  79.7683477  41.0297298  19.2939842
  72.6959229  73.9870119  93.5830307  72.9004765  74.4220734  92.7553177
  72.1257114  74.6031189  94.0429306  46.1255360  42.4177837  25.4988313
  46.9743347  41.9872379  25.6008267  46.2227774  43.2511377  25.9595871
   4.6603745  22.8051829  73.4859276   3.9293867  23.4013987  73.6484623
   5.4270297  23.2687330  73.8229609  82.6232243  40.7105207   5.6958663
  82.3908520  39.8690033   6.0884029  82.2724628  41.3627195   6.3023639
  75.2116966  51.2142992  17.4344742  75.5716133  50.3354549  17.5541532
  75.9120274  51.8008900  17.7202654  39.7802234  52.1790028  38.5945845
  40.3353882  52.9280996  38.8110781  39.7834229  52.1470594  37.6379228
  57.1827316 104.2007732  35.0476241  56.8246841 103.3544540  35.3155160
  56.4239216 104.7835255  35.0186658 107.3447132  94.8591518  74.4884062
 107.9242325  94.8212242  75.2492952 107.5630951  95.6878757  74.0620756
  91.3436413 101.9709206  74.2898607  91.2600040 102.8893185  74.0333748
  91.3725185 101.4925194  73.4612894  81.6833591  91.7578316  80.5344105
  82.4995613  91.8170261  81.0309505  81.5227509  90.8181000  80.4487419
  23.7478232  27.4398756  81.5830898  24.5747972  27.3184490  81.1166096
  23.6363411  26.6336036  82.0868015  13.3827841  70.4998589  65.9798241
  13.7410951  69.6183014  66.0832453  13.2091057  70.7942247  66.8739271
  85.8425713  15.2925837  51.7236137  85.2692223  15.2851665  52.4900675
  86.2582684  14.4303691  51.7271185  52.3748589  10.0607800  24.6981859
  52.5517178  10.3026462  23.7890911  51.4896011  10.3847349  24.8643351
 114.8987770  81.1813259  85.2852821 115.0224590  80.2582836  85.5064392
 115.1529789  81.2431526  84.3645191 114.0069580  51.7733192  89.6921349
 114.3311310  52.4105597  90.3285789 113.5034084  52.2943687  89.0666866
  29.9427152  46.9427443  41.8414927  29.2988157  46.4684725  41.3154793
  29.4215965  47.5461149  42.3712206  41.0500956  42.8435516  12.6483536
  41.7924881  42.3372030  12.3186588  41.2872458  43.0563068  13.5509753
  46.5055752  78.1954288   1.8733929  46.9536352  79.0412474   1.8814467
  46.0757542  78.1602049   1.0188491  76.7486954  30.7120943   6.2988478
  77.3410177  30.9734511   7.0038873  76.3289070  31.5272951   6.0241526
  69.1893625  51.8439388   1.8825006  69.2972851  52.5708771   2.4958116
  68.5342455  51.2795162   2.2929628  41.8259096  24.2862773  30.9505677
  41.7570686  23.3611488  31.1864305  40.9892559  24.6651053  31.2202454
  94.7647190   7.6997566   4.8280871  94.0792751   7.2651923   4.3205813
  95.1161480   7.0122731   5.3938520  27.8264642  54.0967464  20.3216267
  27.8550959  54.1197872  21.2781215  28.3904743  53.3611727  20.0827742
  53.3566427  21.9482040  22.7988410  53.7298965  22.8212357  22.9202032
  53.5103226  21.7482567  21.8754601  48.9598560  63.6320686  14.9553514
  49.8005438  63.9914036  15.2388215  49.1380501  62.7058649  14.7921801
  99.5486832  84.8097038  87.4856281  98.7397194  85.1115322  87.0724583
  99.3155956  83.9713478  87.8844547  55.0953960  22.1834803  33.5199666
  54.3170023  21.8051887  33.9289069  55.6744432  22.3908901  34.2533946
  21.5405822   1.0957555  89.6609211  21.1199379   1.2258430  90.5108452
  21.0368657   1.6427293  89.0581608  84.3273926  89.2669010  86.8938351
  85.0270367  88.9062500  86.3491631  84.5855141  90.1762962  87.0441532
 102.7223206  98.5763550  71.6130924 102.1784878  99.3399715  71.8064070
 103.5834122  98.9410877  71.4088488   7.4060088  72.8525686  89.0501022
   8.0681354  72.7207518  88.3715343   7.7560061  72.3998547  89.8174286
  60.8441305  32.9905844  17.3623657  60.3877211  32.3592114  17.9185057
  60.2360868  33.1592298  16.6425896   2.1524981 103.0829430  20.0588918
   2.2487557 102.7064133  19.1841400   2.3338553 104.0152073  19.9396467
  74.4132137  89.1129494  67.6116467  74.3594074  90.0452137  67.8219271
  75.2890873  89.0009308  67.2421455  65.2028942 102.8471756  82.6990891
  64.5874691 102.1793365  82.3966408  65.7285404 103.0558205  81.9268227
  50.0912714  45.5156326  34.0645361  49.2081356  45.7449818  34.3538356
  50.1190710  45.7821751  33.1456161  82.5698471  48.9564085  21.5075469
  82.0870495  48.7892246  22.3169827  82.5696754  49.9096966  21.4211011
  64.3625021  66.2370920  19.9282742  65.3169727  66.3039160  19.9555790
  64.0976191  66.8645287  19.2556679  73.6471844  31.7529964  18.8540566
  73.4601879  32.6445723  19.1479206  74.3655252  31.8524408  18.2292938
  82.5644875  46.6673279  29.2890644  83.3669472  46.6256285  29.8092127
  82.2867298  47.5813055  29.3500948  27.7610397  50.6054592   8.4969932
  28.5855293  51.0334110   8.2661068  27.5846100  50.0146437   7.7648461
   7.3739576  86.2609100  87.0141506   7.1427566  87.1628761  86.7922688
   6.8710345  85.7266140  86.3994789  50.2698898  31.2607813   9.4607794
  50.3338814  30.5188918  10.0622237  50.5205297  32.0191216   9.9883509
  53.0721617  52.3185825   0.8616444  52.3336887  52.9139900   0.7336680
  53.3309603  52.4505520   1.7736965 115.2755260  70.1502800  70.3565264
 116.0377502  70.0127268  69.7940922 114.5769882  69.6445799  69.9411488
  55.4981136  47.5315428  35.3599119  55.0534725  48.1034899  34.7342920
  55.1812935  47.8204870  36.2156963  30.7007551  35.3456426  32.0499253
  31.3205338  36.0345173  31.8100166  31.1499929  34.8461127  32.7317524
   8.2497942 108.2948112  50.0993299   9.0652174 108.3205318  49.5986748
   7.9689431 109.2086506  50.1467752  53.8469315  69.5758820  27.1278095
  53.3259773  70.3652048  27.2754979  53.2112074  68.8607931  27.1548414
  42.4632931  41.6598749   9.9074006  42.9566622  42.3268175  10.3849041
  42.6985073  40.8362436  10.3346431  69.6780157  72.0208454   0.5740469
  69.5376635  72.9160309   0.8825536  68.8258934  71.7484951   0.2335344
  94.5703506  36.8994880  39.6950436  93.8673210  37.4715233  39.3872070
  94.1594028  36.3550115  40.3665304  76.9725084  35.9653378   5.5115610
  76.3459539  36.4975548   6.0018682  77.0065832  36.3722467   4.6458265
  64.1592836  56.1392021  32.7744818  64.2328262  56.9597960  33.2617736
  63.6915350  55.5501795  33.3665013  52.4096251   1.5743004  67.2443628
  51.7065668   2.1254170  66.9005442  52.5171995   0.8860111  66.5879202
  79.2884922  36.0234427  27.1746969  79.4117594  35.8616066  28.1100273
  79.2084789  36.9747210  27.1047235  87.3498821  94.0464592  90.6526852
  86.7933750  94.4472599  89.9849224  86.7973328  94.0079021  91.4333534
  44.2856121  43.4595966  17.0836806  43.7454891  43.2231665  16.3296223
  43.6556721  43.6677980  17.7736521 101.7770100  86.2213135  81.1738014
 102.5134563  85.6291771  81.0212612 101.2240028  85.7585526  81.8032932
  30.4320359  36.4390039  23.5175014  29.5197034  36.7196846  23.5889268
  30.8109069  37.0212698  22.8589773 102.2109509  92.0813847  91.2698364
 101.6887474  91.7495155  90.5394936 101.9427109  92.9957962  91.3600349
  12.2543585 103.2021141  51.9239616  12.6020193 102.3105431  51.9025421
  11.3899958 103.1319427  51.5187645  50.0500345  47.9509592  23.7360096
  50.2374506  47.0145082  23.8005090  50.1987982  48.1620693  22.8143072
  85.0885487  28.7453675  38.3052993  85.4866886  28.2331109  39.0090799
  85.6190872  28.5456300  37.5340247  80.2114487  58.4082365  15.4683840
  80.4150677  59.2313290  15.0242078  80.5098534  57.7293015  14.8632121
  50.9952545  38.5688281  24.9758077  51.0678434  37.6245570  25.1147938
  51.6571236  38.7648964  24.3126988  50.7356501  29.5418024  20.8095288
  50.6966352  29.9984217  21.6498899  51.5207624  29.8878312  20.3851485
  57.9167223  11.8281162   1.0950261  57.2791290  12.5350606   0.9953626
  57.9202890  11.6393268   2.0334172  78.2726431  89.8519516  91.8622303
  79.2168713  89.8210716  92.0162201  77.8847408  89.7478008  92.7310944
  94.1257668  86.0091400  72.7370071  94.2618465  85.0802994  72.5499916
  94.4069576  86.4577198  71.9395494  74.5008326  48.2201958  25.9194446
  74.1021204  49.0499306  25.6571460  74.4085789  47.6566982  25.1512027
  28.0476069   7.2900349  13.3933234  28.4901118   6.6286594  13.9253032
  27.7414131   7.9402995  14.0254891 103.9747143  71.1535788  77.1445084
 104.3661499  70.9558392  77.9953384 103.1517696  70.6647396  77.1400452
  97.7391624  34.1574192  19.8973930  98.4362984  34.6610403  19.4771576
  97.9491329  34.1903210  20.8307004  88.4446053 108.4411894  80.5579376
  89.2519360 108.4576643  80.0439548  87.7498667 108.5948696  79.9176598
  76.1428118  58.9938641   1.6992122  77.0875406  58.8930511   1.5828140
  75.8691502  58.1911135   2.1429801  74.0444422  76.5832567  81.3594913
  73.2297182  76.0819101  81.3928795  73.7848663  77.4772215  81.5823555
  14.6271813  19.5633686  88.3279610  14.9766529  19.0026736  87.6353359
  13.6832654  19.5792544  88.1698418  58.0718899  31.5353227  40.9310246
  58.8991165  31.1315870  41.1935663  57.5836945  31.6344023  41.7483854
 115.4560375 106.1601257  66.8093204 115.7293797 106.3943577  65.9223890
 114.5298290 106.3990021  66.8454552  66.7671776  70.1503086   2.1777685
  66.5316534  69.8567295   3.0578673  66.6991520  71.1042690   2.2172859
  64.3114567  34.9477816  39.0377641  64.3400192  34.3068171  39.7481036
  63.7518406  34.5448303  38.3739209  11.6657102  20.7091403  94.8209763
  12.3592401  20.7595444  95.4787827  11.4122546  21.6197276  94.6699047
  66.9074106  45.2123976  14.9309218  67.1550703  45.9714079  15.4589355
  66.8521595  45.5502224  14.0370238  48.8863516   3.3255699  55.2786303
  49.7891569   3.0248129  55.1750898  48.4374332   2.5942734  55.7027864
  47.3563910  24.3319464  32.1938324  46.6725063  24.2110276  31.5351129
  48.1629229  24.4267392  31.6871214  82.2345734  55.0385141   3.6788109
  81.8662834  55.2054024   4.5464218  82.6592255  54.1844320   3.7591052
  81.4413548 102.1047878  83.8918018  81.8389606 102.4545288  84.6891785
  80.5005932 102.2262096  84.0201187  57.2547007  48.6570358  21.3579845
  57.5920248  49.0086079  22.1819043  56.7750597  47.8687382  21.6124701
  55.0011301  36.6508222   9.6280116  54.9988890  35.7155108   9.4244909
  54.5803499  36.7103171  10.4857051  18.0158186   0.6089083  91.2172031
  17.8829885   0.4037796  92.1426773  17.1443808   0.8400494  90.8956432
  52.8451920  61.7321396  16.0189998  52.4477577  61.4387846  15.1991117
  52.3026419  62.4698448  16.2976730  62.6670647   0.5252091  13.0658901
  61.7560005   0.7145253  12.8415048  62.7324438   0.7334577  13.9978719
  28.6505818   1.2988421  14.9899447  29.4272709   1.8582262  14.9812114
  27.9940319   1.7929313  14.4989753 106.7831230  72.0835304  37.0574903
 106.4182758  71.5207911  37.7404571 107.6487827  72.3273993  37.3851848
  80.6443691  48.5213327  16.9771457  81.5728951  48.7125397  16.8448222
  80.4988194  47.7019072  16.5042961  20.9368944 102.9935360  33.7196422
  20.0051689 103.2035255  33.6562181  21.1768460 102.7008820  32.8404307
 112.8073025  36.3715482   3.3081070 113.4553909  36.2864542   4.0073764
 113.2901192  36.1654592   2.5076997  83.9544010  72.7875757  12.8796077
  83.9451122  72.4135733  11.9985473  83.9074326  73.7332106  12.7388966
  43.5186338  23.8699031  87.7535534  43.4698343  24.1504240  88.6674213
  42.7944183  23.2520294  87.6536751  55.3427410  54.7014141  18.9812744
  56.0733414  54.9390507  18.4103227  55.1745033  55.4906797  19.4960380
  80.3321362  35.1717925   0.9752902  80.8259392  34.4246411   0.6374247
  79.4329882  35.0147295   0.6870319  49.5362663  80.0067997   1.8382666
  48.7987614  79.9159861   2.4416468  49.8658991  80.8917809   1.9944113
   1.9509307  88.0890179  83.6877441   2.6810285  88.0180836  84.3026829
   1.9306529  87.2425270  83.2413483  85.6635284  10.0536823  24.6058154
  85.5596066  10.0120139  23.6551857  84.8991776  10.5436051  24.9090695
  69.6367455  68.9346075  21.1138988  70.4973507  68.5301208  21.2233591
  69.3541145  68.6636877  20.2404284  53.2926798  85.3469467  87.5017166
  53.1841183  86.0935497  88.0908108  53.4667015  85.7400036  86.6464615
  50.0890923  47.1986103   8.7442517  50.5285501  46.4918232   8.2714260
  49.9552917  47.8803062   8.0857569  99.3567085 107.7342510  80.1724148
  99.9298573 107.2287846  80.7488155  98.6469269 108.0319023  80.7414818
  73.5251045  45.5071878   3.1607655  73.5489321  44.9728107   3.9545551
  74.0705252  46.2663698   3.3666581  28.8307762 103.5108662  83.2849216
  28.1294298 104.0302467  82.8917408  28.6565852 103.5462570  84.2254734
  57.5903320  42.5651646  21.8568468  57.5277042  42.8290367  20.9388709
  58.4572458  42.1665239  21.9328594   2.5728762  59.4874716  74.7470236
   2.4974893  60.4273367  74.9119377   1.9659626  59.3214273  74.0256929
  71.2883902  38.2609510   4.9485174  71.1960697  39.1485405   5.2947718
  71.5932608  38.3850026   4.0496865  62.4040842  43.5690165  34.7455120
  62.1608543  43.8366652  33.8592649  63.3178616  43.8395977  34.8351288
  83.5148048  87.8262329  83.6499119  83.2411480  88.2140541  84.4811344
  84.3336487  87.3746586  83.8543797  29.3665409   9.3183625  61.9758654
  28.8693500   9.1585183  62.7780390  29.7367764  10.1931405  62.0938540
  72.8271341  48.5937166   1.6703640  73.0315828  48.6689281   2.6024449
  72.7770424  49.4986200   1.3623631  98.1592560  68.1252337  86.9461155
  98.6732578  67.5584459  87.5212574  97.5858402  67.5254774  86.4689159
  16.3192177 104.9621296  73.7176991  16.4970779 105.8756447  73.9415216
  16.9767642 104.7450638  73.0568361 106.7096233 102.0328140  89.1160488
 107.1784973 102.8586578  88.9961433 106.1065578 101.9898605  88.3739567
  98.7724495  52.6608086  19.7912300  98.8056755  51.7101622  19.8980260
  97.8406906  52.8588438  19.6971989  65.7620335  13.4233677  23.5853314
  66.0027361  12.4997997  23.6582518  66.2650824  13.7435889  22.8365779
  72.8641844  14.2733169   3.4072676  72.7889776  13.3443689   3.6255142
  72.5541258  14.7290671   4.1898206  84.1082764   4.8996246  44.1108704
  84.1453266   5.8324873  44.3221188  83.4214592   4.8313296  43.4476519
  92.5684166  64.0314388  14.1594303  91.9390774  63.5207939  13.6501169
  93.3456421  64.0778351  13.6026549  84.2217064  40.0066948  17.1775162
  83.8956547  39.2214775  16.7377973  83.8153267  39.9822783  18.0438280
  44.4316006  45.6753111  26.3002014  43.7824631  45.0636292  26.6476107
  44.9600458  45.9206533  27.0596647  39.7241831  81.7982960   1.2520377
  38.8909125  81.6164875   1.6865924  39.5767856  81.5521526   0.3388450
  43.3957291  55.7517529   5.0131273  42.9295111  55.8014345   4.1786200
  43.0234432  54.9858761   5.4502439  14.2745531  53.1257486  88.9619923
  13.8202775  53.5954952  89.6614265  15.1009381  52.8482199  89.3573380
  97.9776478  74.0095949  89.3998814  98.7511349  74.0933228  88.8422680
  98.2623577  74.3331623  90.2545547  93.8880634  17.5129592  63.9965439
  93.2837486  17.0538044  64.5798254  94.4818401  16.8312407  63.6820316
  77.9821205  89.3960857  94.6562576  77.0948029  89.1244030  94.4215488
  78.1210804  89.0311146  95.5301666  42.1183395  19.0119064  14.6964538
  41.9179678  18.4732568  15.4619205  41.3163424  19.5095754  14.5372176
  76.6868162  26.0181808  26.3197803  76.3907099  25.7988834  27.2032142
  75.9716463  25.7347369  25.7501984  59.7312498  40.6977320  40.2088356
  60.3576946  40.2014589  39.6820450  59.9305630  41.6142273  40.0176525
  73.1828928  55.1291466   0.8951674  74.0043592  55.5649233   0.6681855
  72.9961348  54.5644522   0.1451845  72.9044628  13.5122097   8.1052154
  72.2907877  12.8131247   7.8795743  73.6018705  13.0713236   8.5904735
  54.6871805  42.2599077  18.1404769  55.3906870  41.9996357  18.7350965
  55.0980711  42.2766495  17.2761154 105.4867502  98.2115293  95.2496331
 105.2007051  98.7837148  94.5375816 104.9885889  97.4040675  95.1228690
  88.2848930  73.4154701  32.8799343  89.1425228  73.2110071  32.5072336
  87.8963566  72.5614595  33.0695081  35.6104207  12.7367461  94.5421600
  35.1653147  12.0314550  94.0723991  35.6637573  12.4261427  95.4459858
  28.0671787  10.0819468  82.6801682  28.2541013   9.6093553  83.4913063
  27.1496010  10.3423357  82.7606869  81.8644238  80.2903366  65.3258038
  81.7849064  80.8667660  64.5657778  82.4849224  80.7372856  65.9015179
 110.0343227  79.8957014  66.7271662 110.1058197  80.7943153  66.4052820
 109.3933868  79.9455929  67.4363422  25.9736943  93.6476421  84.8151875
  26.5052700  93.9506054  85.5513096  25.9968400  92.6929188  84.8799706
 115.0211143  90.7816601  89.8523426 115.6378269  90.5751419  89.1500282
 115.5006123  91.3818932  90.4233360 115.9292316  11.8309629  87.0843887
 116.6208172  12.4807966  86.9593048 115.1794052  12.3365498  87.3980427
  69.3481350  47.5451612  31.3876510  68.7214661  46.8324566  31.5124297
  69.6566248  47.4380589  30.4878759  89.7850895  68.4190607  12.8484666
  90.2397823  68.8098955  12.1023190  89.2806721  67.6984787  12.4708986
  58.6502266  35.6117654  46.2541246  59.0908813  36.4588308  46.3214397
  59.0661001  35.0713825  46.9258881   1.5396835  35.2719116  20.2580619
   1.3351446  34.8148680  19.4422770   1.8154640  34.5790291  20.8581352
  33.0354762  58.2661581  23.6341667  32.5595093  57.7722692  24.3018222
  33.9309788  58.3188152  23.9681339  68.1372070  62.7941275  31.9808125
  68.6086750  63.4379292  32.5094628  68.5731888  62.8181934  31.1290073
  33.8269114  30.6907153  42.1597528  33.5516977  30.0044847  41.5518236
  33.1249309  30.7309556  42.8092432 111.5875530 101.7241383  94.2321110
 111.3829517 102.2458076  95.0081444 110.8176517 101.1694050  94.1066074
   1.8149126 103.8603878  65.1736164   1.4843522 104.5059299  64.5489216
   1.3497974 103.0534458  64.9528646   4.3160132  12.2330272  91.9007969
   4.7299209  13.0843234  92.0429516   4.3663967  11.7971623  92.7515125
  97.8736687  41.4435959  27.4298120  97.1042538  41.8458939  27.8327799
  98.5715294  41.5632153  28.0739498  82.2053528  85.3511333  78.1327963
  81.9688511  86.0163307  78.7791729  82.0495415  84.5183086  78.5781765
  15.5927610   5.1120287  92.8103542  15.1800513   5.9747964  92.8495216
  16.3406968   5.2306622  92.2249031  15.6205130   1.3870364  76.0129499
  14.8555565   1.9602202  76.0632944  15.8906865   1.2676558  76.9234371
  68.5533857  92.8042603  21.4536524  68.8557529  93.6683559  21.1740994
  68.0473709  92.4756145  20.7105732  87.6208878  34.0147543  20.8315730
  87.4859715  33.7881088  21.7517138  86.9814014  33.4830451  20.3576779
  74.4618082  82.9050636   2.0015153  75.1435137  83.4452629   1.6018960
  74.7584629  82.7723408   2.9018560  96.2783241  17.4752378  23.5588741
  97.1773720  17.4039257  23.2381582  95.9189129  16.5933514  23.4622812
  92.2767353  51.0247993  25.0102329  92.2101116  51.2001371  25.9488773
  92.9336071  50.3318977  24.9420404  84.2796421  91.8024158  81.0751343
  84.9075222  92.5175571  81.1779213  84.7824955  91.0994720  80.6637287
  69.8690891  64.8857212  18.1476808  69.3688774  64.8282051  17.3336089
  69.3104887  65.3929090  18.7367082  98.3390522  75.1283646  92.0108223
  98.7021732  75.8259726  92.5564575  98.3068180  74.3652582  92.5877666
  70.1515484  55.0086832  10.3963149  69.2645931  55.3078508  10.1962233
  70.2132654  55.0631618  11.3499677  80.2887535  37.1069813  12.4269617
  80.8703709  36.5797424  11.8792641  80.8363438  37.3819804  13.1623244
   8.8968426  77.9139566  17.7736259   8.9618403  76.9879150  17.5402713
   8.0318564  78.1795073  17.4613535  90.9726524 101.8238544  84.9006939
  90.7882786 101.2696838  84.1423130  91.9159126 101.7361450  85.0377750
  65.7930660   8.4396756  82.5034523  65.3394318   7.9719180  81.8022728
  65.0933552   8.8640058  83.0000210  76.5938473  56.0763836  36.5839362
  75.6863785  56.2955904  36.3725638  76.5674829  55.1491690  36.8201852
 100.1839733  73.3285093  80.8642673 100.0004482  74.2603874  80.7453060
  99.5163345  73.0298376  81.4817524  85.8543491  53.9870501   8.6526877
  86.6628265  53.4785366   8.5893387  86.0840893  54.7343683   9.2049277
  61.5609694  82.9884529   1.2809317  61.6411352  83.7984180   0.7771830
  61.9401169  83.1986427   2.1343364  52.5921440  62.9258251  19.2701674
  53.4775686  62.6349926  19.0518391  52.7219296  63.6462355  19.8869312
  90.9111118  74.3733740   9.2916328  90.8229923  73.8086557  10.0594628
  90.1349545  74.1837406   8.7645119  40.5968332  16.0835469  91.3674831
  41.3764858  16.6370249  91.4125919  39.8910141  16.6832674  91.1258507
  75.1378107  25.3538704  40.1188755  74.3966246  24.7501922  40.0694513
  75.2738190  25.6405854  39.2158103  63.1704330  43.0204058   5.7444894
  62.2597694  43.2472038   5.9328651  63.3751059  42.3183680   6.3621330
  14.7937453  32.4012136  80.2425289  14.6248817  33.2469678  79.8272991
  15.0780153  32.6223135  81.1293983  28.4318829   1.7556500  75.7040596
  27.5533462   2.1105202  75.8399773  28.9919734   2.5275505  75.6222057
   5.2695334 105.3376770  69.5673847   6.1325288 105.6841946  69.7940874
   5.3834093 104.9642277  68.6934280   4.9837556  94.8178196  76.9049454
   4.3049487  95.4677773  76.7232609   4.5003521  94.0277004  77.1463299
  78.8034868  64.9186850  45.6896067  79.0927553  65.0019693  46.5982437
  78.8324833  63.9781284  45.5142689   9.3825006  21.7775607  87.7713680
   8.6806446  21.7651749  87.1206188  10.1822436  21.6398716  87.2637367
   9.7285897  15.2182472  81.0325527   9.0330261  15.8653605  80.9156418
  10.2602088  15.2922046  80.2399921  23.3199239  30.5438089  77.6133108
  23.9075446  30.5681777  78.3685207  23.7328601  31.1197162  76.9698524
  49.9454546  36.3689733   6.7326224  49.2824078  36.9507194   6.3609052
  49.9010992  36.5268993   7.6756614  59.7685051  78.6063862  12.0135045
  60.2544260  78.6016178  11.1888301  60.4451990  78.5910511  12.6903224
  25.4906535 104.5802975  84.2884541  25.6210446 103.7034416  84.6495056
  26.2036562 105.1003933  84.6590900  15.3847253   3.5043064  90.5399513
  14.4823849   3.6344707  90.2482796  15.3732789   3.7414739  91.4672279
  44.6727085  88.2708359  11.3216686  45.1910734  87.5096703  11.0605943
  44.5597219  88.7720871  10.5140722  90.7341194  52.8236008  10.4076171
  91.2882423  53.5809755  10.2190363  91.0783291  52.1291924   9.8458803
  32.9128027   0.5328359   6.7277694  33.0517936   1.4737329   6.8355936
  32.1106339   0.4670446   6.2096691 114.9593925  94.2560577  14.5089805
 115.6624508  94.5974255  15.0616145 115.1394272  93.3181572  14.4444573
  48.3417654  11.4853561  84.7052002  47.5708342  12.0483994  84.7750282
  48.0468798  10.6342435  85.0290489  23.4319520  12.7940929  87.8553867
  23.7992072  12.6079190  88.7195015  22.8593183  13.5481322  87.9959011
  72.4719810  44.7098875  14.9302292  72.6521683  43.9067554  14.4416130
  71.6104555  44.5642471  15.3211200 115.4512691  20.1014996  40.0104666
 115.7345867  20.2848339  39.1147256 115.7509995  19.2080724  40.1783514
  95.6756878  48.4164143  15.5048919  96.0489368  47.7281904  14.9541998
  96.4294720  48.7989950  15.9539795  62.8854036  60.7341909   4.6367368
  63.5819340  60.6128502   3.9914852  62.2847176  61.3564444   4.2266005
  79.9798965  68.5285902  19.7461188  80.5743313  68.3080769  19.0290058
  80.2615547  69.3975687  20.0320840  49.8983812  40.8696079  66.0016584
  50.5036736  40.4817963  66.6336870  49.2279530  40.1992798  65.8696795
  25.7610679   4.3500510  88.0222797  25.7036400   5.2791440  88.2452583
  25.2798939   3.9059806  88.7204933  51.7934799   1.2963362  88.7287617
  52.4943352   1.8757612  88.4299374  51.9650126   0.4650202  88.2863617
 107.3305225  13.2936513  82.9052258 106.5396595  13.6416566  82.4933147
 108.0288315  13.4784591  82.2771835 100.3941822 103.1858921  76.7978811
 100.6026173 103.0159378  75.8792400  99.4867611 102.8971195  76.8949842
  97.8360081  81.2858295  84.1205120  98.2686329  81.0702705  83.2943153
  98.4903049  81.0909462  84.7914505  89.8315716  19.9206793  11.5271294
  89.4915867  20.4929161  12.2150171  89.0555191  19.4902873  11.1683249
  70.0525188  55.6833744   6.5951490  70.5468035  55.3387642   5.8514029
  70.6979847  55.7573414   7.2980970  47.2589636  99.3070507  12.9036546
  47.4443388  98.6178398  13.5415101  46.9608879 100.0479221  13.4313774
  66.5055132  16.9476414  93.0532837  66.6415644  16.2998676  92.3618317
  66.9497824  17.7337968  92.7357674  20.1538253   2.1643126  91.9782066
  19.6681488   1.4061245  92.3030186  20.7494569   2.3910922  92.6923656
  68.3826303  69.4239950  18.2657516  68.9615345  69.0169716  17.6212120
  68.7958813  70.2648878  18.4615982  51.9751596  16.3256621   3.3667129
  51.6184378  16.7163825   2.5690174  52.6577377  16.9351828   3.6474237
  33.1351614  38.0033994   0.6859098  33.3940625  37.1298909   0.9794812
  33.6100554  38.6007953   1.2636881  20.7254672 104.3360329  54.9554253
  20.7112622 104.8304558  54.1359282  21.0639310 104.9547577  55.6026125
   4.3944323 102.8542805  75.3119469   5.2780080 103.1772232  75.1352167
   4.3956810 102.6530838  76.2477636  59.8635340  51.5449953  18.6415684
  59.2335463  51.0839558  19.1954541  59.6107149  52.4659061  18.7066424
  34.0278578  63.0158949  14.6708381  33.7784004  63.2752800  13.7838650
  33.2130337  63.0594826  15.1712275 114.8449707 108.2764244  56.5931463
 115.6789684 108.2805729  57.0628977 114.3345833 108.9735889  57.0050859
   7.0586970 110.0797572  68.8980007   6.9129470 109.8799059  69.8226881
   6.9776776 109.2352360  68.4547710 101.6637039  79.4782829  88.6714268
 101.3003063  78.6041832  88.8132763 101.4652920  79.9539471  89.4780254
  19.5766115   6.4150673  88.8472843  19.2632520   7.1314687  88.2951927
  19.2150211   5.6259555  88.4438133  32.3547912   1.1663133  92.6573753
  33.2694507   1.3738137  92.4661350  32.3134470   0.2106778  92.6215553
  22.1737266  37.8456163  93.2091141  21.4963818  38.3613658  92.7715778
  22.5080132  37.2621894  92.5278664  78.2077932  14.7326028  70.4870415
  77.6988459  14.7919369  69.6785355  77.7669525  14.0539980  70.9983063
  54.2473984  76.4713860  16.7658925  54.7167778  76.2215090  17.5618064
  53.7326384  75.6971312  16.5383387  46.5148449  10.1141810  94.7285843
  47.1520376  10.7496774  94.4024467  46.8948317   9.2622626  94.5139217
   5.6797099  84.8147297  79.1392899   6.1264706  85.6287575  78.9069033
   6.3355368  84.1323280  78.9962864  79.0919733  75.7455301   9.2972785
  79.2067003  74.8016787   9.1867316  79.2563009  76.1102533   8.4276783
  80.1807976  74.9464321  11.9347405  80.1138687  75.7016134  11.3504016
  81.0688782  74.9952984  12.2885203  49.2622328  56.9440889  32.1755505
  49.4688272  57.7591944  31.7182183  48.5852861  56.5328550  31.6380978
  37.9398847 103.7964249  80.4366112  38.8170815 103.4133625  80.4317379
  38.0912495 104.7415733  80.4333305  49.4956350   6.8550295  90.2301311
  49.2703104   6.7049700  89.3120098  48.7878847   6.4382231  90.7216549
  79.6656227  75.4808569   1.4363758  80.3274727  74.9088526   1.8249580
  78.8736200  74.9441957   1.4053690 104.5637321  42.1519470  13.3237875
 104.0401268  42.9438066  13.2012081 103.9606285  41.4338970  13.1316638
  21.4091182  42.7879715  79.4799519  21.7529678  43.6470604  79.7248268
  21.9982576  42.1643114  79.9044418  83.2357216  37.2973108  25.2198219
  83.9943123  37.2191477  25.7983112  83.6110687  37.4192119  24.3477654
 103.6048126  93.6612129  58.8483715 103.9898968  92.9549026  59.3670940
 103.5556602  93.3069515  57.9605007  79.7077656  87.1438408  18.4144199
  78.9810514  87.1285152  19.0372241  80.0249863  88.0466270  18.4386754
  10.4884064 105.9487343  83.4445858  11.2407553 105.3624535  83.3641148
  10.4298723 106.3815784  82.5928497  86.9735336  76.9374084  18.9642131
  87.4662971  77.4764729  18.3454871  87.1628380  76.0368204  18.7008822
  70.3031301  68.4052420  16.6301417  71.1510897  68.8467169  16.6780317
  70.4820108  67.5939131  16.1547637  41.5287685  29.2033458   3.0775160
  40.6597281  29.5360231   2.8531927  41.9534063  29.9304438   3.5327578
  84.2747402  70.5135965   5.1406139  83.8590145  69.7852182   5.6019956
  84.6391582  70.1186085   4.3485159  99.4692898  97.2932148   4.9870443
  99.1159439  96.5184498   5.4242104  98.6975861  97.7609062   4.6677291
  36.0744548  52.7243710  92.8361320  35.9270144  52.3339128  93.6975479
  36.8385696  52.2623301  92.4913406  69.6375179  43.6445093   3.9258066
  68.8931131  43.1512022   3.5812265  70.0626135  44.0097857   3.1498557
  92.8906059  94.3592739  14.2500329  92.2493267  94.4748878  14.9512017
  92.3643112  94.1739655  13.4722769  86.3661575  48.2278156  26.2033796
  87.0909023  48.5066128  25.6436920  85.6975174  47.9176569  25.5926800
  86.0552597  32.3048735  13.0210519  85.6326771  33.0635452  13.4236264
  85.8050346  31.5677428  13.5780609  69.2647886  65.0719404  21.1181808
  68.6657953  65.8184671  21.1295342  69.7749281  65.1619196  21.9231009
  44.8287296  38.6643624  89.8082829  44.7721672  38.1250191  90.5970478
  44.3010092  39.4374633  90.0084209  50.4959869  61.4082050  13.9963007
  51.0423183  60.6502438  13.7883186  50.8862543  62.1280146  13.5005224
  82.5948620  68.0925226  24.6677971  81.8683338  68.6128616  25.0107813
  82.2034359  67.5636292  23.9726067  61.2370729  76.4519739  16.2539899
  60.3963614  76.0395050  16.0557282  61.5067434  76.8548536  15.4286468
 106.5162563   0.5864880  84.0895081 107.0712852   1.3629065  84.1626263
 106.2961006   0.5361911  83.1593227 102.5279140  26.8602204  74.5453882
 102.8760910  26.2011337  73.9448833 101.5826416  26.7095661  74.5444536
  79.6126032  69.1553688  15.1658797  80.3336906  69.7270203  14.9022806
  78.8566923  69.4831705  14.6786690   6.5293175  33.1633663  27.9964709
   7.0013350  33.9338303  27.6805329   7.2167522  32.5335526  28.2132626
   7.0664138 107.0561695  79.5227623   6.3043582 107.1201134  80.0984478
   7.7734947 106.7559719  80.0938511  50.4560661   0.5918716  82.1605492
  50.9006500   0.5895219  83.0082321  49.5581865   0.3269965  82.3602676
  50.0055981  23.9788795  69.8761654  49.2355394  24.1394782  70.4215574
  50.2797079  24.8490763  69.5865870  89.7250080  88.6866093   4.5935693
  89.3574429  89.4772625   4.1986132  88.9694405  88.2304955   4.9641201
  16.5535259  41.8414688  80.4023552  17.3000741  42.4366713  80.4703903
  16.3612735  41.8045235  79.4653893  77.0696211  74.3178844   1.5578923
  76.5661573  73.9431286   2.2806056  76.4409828  74.3888855   0.8395571
  21.5276432  13.6084247  66.8061924  20.8711720  13.1134856  66.3159752
  21.0176563  14.1674435  67.3924017  80.6821728  45.1466990  18.3774912
  81.4863300  45.4433823  17.9514134  80.0344467  45.1183081  17.6733088
  82.6560974  86.1611176   1.6584724  81.7678738  85.8576202   1.8460202
  83.2134914  85.4092693   1.8591583 108.7783432 107.1543312  86.7287445
 108.0416107 107.1429825  87.3397446 108.3712006 107.1939087  85.8633423
  33.8306832   9.7132826  81.3373661  34.7262239   9.9363011  81.0834026
  33.6925983  10.1790047  82.1621513  77.1721506  56.5428638  19.9053442
  77.1784687  55.5963373  20.0477481  77.7089834  56.6710043  19.1232812
  19.9050927  19.5956039  72.7408934  20.1483345  18.9906049  72.0401525
  20.6980419  19.6801090  73.2703495 101.0380363  93.9335823  66.1375189
 101.8368244  93.7012482  65.6640387 101.0992527  94.8809147  66.2601566
  91.4036560 101.5994453  88.4337139  91.4924145 101.8128681  87.5048447
  91.4130402 102.4480724  88.8764095  48.7410927  33.7795305  82.6435852
  49.5596886  33.4648895  83.0271721  48.9224958  34.6884179  82.4043274
  40.5090857  65.8592844   0.9305944  40.1353407  65.4621601   0.1439313
  41.2986517  65.3471804   1.1054267  65.4975748  52.5866079  10.0323570
  65.8188200  53.1123972  10.7648730  66.2895060  52.2439051   9.6180671
 102.4776268  60.4440212  41.7218399 102.4633789  61.2359285  42.2593451
 101.7281342  60.5398798  41.1342144  75.4683495 107.4127769  74.6714497
  74.9402857 107.0530033  75.3841543  75.0644445 108.2586288  74.4774961
  82.3453903  51.7923737  21.6459394  82.0037174  51.9964504  22.5164843
  82.1533489  52.5717735  21.1245060  58.5790014  73.3225679  22.8660870
  58.5400677  72.6771402  22.1602988  59.5070410  73.3709145  23.0955100
  87.8676033  89.6603107  34.4871902  86.9198227  89.7252560  34.3699861
  88.2333946  89.9798965  33.6623907  58.3878517  53.2693577  29.4724059
  57.7706242  53.3450174  30.2000976  58.1732035  52.4314690  29.0624070
  51.0770464  74.9475193   7.8188604  50.4578924  74.2496634   7.6046646
  50.8886003  75.1628733   8.7322843  60.8793592  81.8495274  21.7953086
  61.6434336  82.1345425  21.2941265  60.1609755  82.3884106  21.4640021
  21.4482331 108.3074093  93.0818176  21.9921494 107.9780769  92.3663330
  21.5542531 109.2580223  93.0452824  67.5809050  18.7996447  70.5764818
  67.8447008  17.9462337  70.2324867  68.3836889  19.3208468  70.5655289
  75.9111166  49.2581892   7.9736650  75.3930521  49.6783495   8.6601865
  75.8309650  48.3212900   8.1526333  84.5575714  31.9771719  29.6228170
  84.9183083  31.6569257  30.4495835  85.2371216  31.7880487  28.9757633
  88.2772350  11.2857819  39.8250723  89.2182922  11.3773584  39.6758890
  87.8773212  11.9165909  39.2264199  89.5333290  87.8400517  91.7872906
  88.6090851  87.9822350  91.9917393  89.9818611  87.9350471  92.6275444
  99.9439526  89.7242641  75.8612633  99.3430042  89.2298317  75.3039122
  99.8050594  89.3677139  76.7386532  74.5989847  70.0929403   6.6426492
  74.4938326  70.2034473   5.6976819  73.7465429  70.3300190   7.0078444
  41.9050360  98.7345314  12.0298278  42.1610880  98.7648869  12.9516459
  42.6959276  98.4517384  11.5707517 105.7574940  43.1217909  15.4624259
 105.4588413  42.5486946  14.7563100 105.7886314  43.9929056  15.0669277
  37.9244924  22.9328632  83.1295109  37.2561431  22.3457432  82.7762032
  37.4283004  23.6328363  83.5538483   7.1327972  19.8542452  67.2474051
   6.3492805  19.3990457  66.9389772   7.6728785  19.1655910  67.6350927
  64.1615391  78.5917187   9.3998206  64.3235445  77.8762484   8.7849289
  63.5178852  79.1458273   8.9583397  73.8242579  82.7844048  13.0169630
  73.2758760  83.4646320  12.6260483  74.5984507  82.7486706  12.4551976
  44.8340273   6.3342005  86.2647343  43.9910841   6.0024893  86.5739918
  44.6904182   7.2720265  86.1378860  85.7489872 104.3517017  87.3433590
  85.2554703 104.8242188  88.0137253  86.3025570 105.0193214  86.9383049
 109.7209263  64.1658354  16.1909139 109.1919136  63.5007906  15.7503510
 110.5598354  64.1483879  15.7303071  54.9614763  32.4812770  12.2254503
  54.8086977  32.0257044  13.0533051  55.6677055  31.9884276  11.8076324
  69.4403982  32.8945208   3.2529587  69.5604181  33.7085247   3.7420675
  70.2385759  32.8084111   2.7316785  55.1696062  48.7309933  18.2593381
  55.1990318  48.1870270  19.0463996  54.7193623  49.5289660  18.5363877
  71.2571526  49.3973827  27.6611280  71.5066624  50.3207445  27.6239872
  71.8978739  48.9996719  28.2506466 104.4783211  35.2263284   3.9683619
 104.7349262  35.9024549   3.3412740 103.5346508  35.3452086   4.0759858
  91.6364002  38.4742451   8.6180329  92.3751640  38.4854198   9.2265749
  91.6806507  37.6126456   8.2033968  58.3082771  62.2428083  28.0839610
  58.2395554  62.5271940  28.9953518  58.7555027  62.9639816  27.6411009
  95.4240894  72.2210073   3.3255109  94.8088074  71.5688324   2.9903594
  96.2276936  71.7285347   3.4926057  82.0983124  44.1082525   3.3456802
  81.6343212  43.4204102   2.8683782  81.5536785  44.2751455   4.1149366
  41.9207811  59.4101048   6.5233737  41.7558575  58.7731409   5.8281702
  42.8169250  59.7081709   6.3674581  61.8973923  52.2369289  17.1299744
  61.2774563  51.9311762  17.7921140  61.8219709  51.6003132  16.4191556
  38.1853819  21.3443398  90.5586910  37.2668719  21.1171603  90.4139137
  38.5335493  21.5047574  89.6816063  82.4102402   5.8734906  86.2586212
  82.3197174   6.2206149  85.3711796  81.9184685   6.4852846  86.8064308
  99.7503757  94.4696045  83.2905769  99.8983288  93.5289001  83.3876419
  99.2971134  94.5554924  82.4518871  71.5646791  39.7113585  10.8614779
  71.5809965  40.4748631  10.2843952  71.7356443  38.9691877  10.2816617
  71.1022902  83.3975124  70.3853464  70.8190632  84.3081856  70.4671955
  70.8865595  83.0027390  71.2302399  63.7636423  24.4516802  84.1897774
  64.3772793  24.5558405  84.9169827  63.6324692  25.3398991  83.8579750
  54.7947884   7.6239687  68.3019257  55.6946039   7.7963859  68.0247211
  54.8230553   7.6821846  69.2569351  67.8497648  39.5038652  50.5604506
  67.7734756  39.7441506  51.4838552  68.3279800  38.6747146  50.5674410
  23.5510159 104.2052364  91.2030315  24.5070267 104.2040539  91.2507343
  23.2737160 103.6620235  91.9407654  69.5875597  85.6696701  19.4088137
  69.5408821  84.7477531  19.6620429  69.2427731  86.1436653  20.1655698
 104.4318104  85.0057983  90.8200645 103.7314224  84.7206020  90.2332497
 104.0953922  84.8284435  91.6984749   1.7385848 108.9958096  93.3244038
   0.9991650 109.6025658  93.3608437   1.3673672 108.1504250  93.5768890
  78.0216503  47.5938272  30.2398801  77.2727871  47.8993750  29.7279453
  77.6337194  47.0824385  30.9499621  16.5313232  16.6479719  87.4388409
  17.4499166  16.3828743  87.4851131  16.1915076  16.4890087  88.3194542
  90.3613091  36.5723348  44.7309256  89.5391369  36.4964628  45.2151728
  90.6714249  35.6710601  44.6427965  43.0599308  93.5943031  92.6606846
  42.3286152  94.1167736  92.9899788  42.8346014  93.4155178  91.7477226
  61.2110806  23.3301687  50.9772253  62.1506500  23.1614399  51.0477734
  61.0868025  23.6188459  50.0730944  10.4722416  16.1152208  93.7344646
  10.1767349  16.4429760  92.8850651   9.7108912  16.2118185  94.3065166
  85.8328438 104.1614246  72.8556204  86.6169643 103.9240742  73.3506489
  85.4964447 103.3281708  72.5258350  51.8994045  46.0108614  11.1330473
  51.9458103  46.8952513  10.7698238  51.9337177  45.4358578  10.3685713
  58.1253624  40.3057146  25.2378583  57.6948881  39.5583892  24.8226166
  58.7619448  39.9136806  25.8356047  77.2573090  69.3062496  19.3297994
  77.3230743  69.6280527  18.4307170  78.0714417  68.8231754  19.4714415
 112.6607990  71.2960291  21.9215131 113.0817413  71.3966560  22.7752805
 112.3242092  72.1682453  21.7161393  45.0230026  74.7010040  15.1731122
  44.5540667  75.4820490  15.4668736  44.4332170  74.2914391  14.5401490
  79.4020557  15.9531212  39.6228409  80.2826500  15.7948327  39.2826557
  79.0255260  16.5967083  39.0226293  53.9306259  55.7237864  10.7009184
  53.8166952  56.6110182  10.3602266  53.1782341  55.5901194  11.2773502
  61.6360044  38.2272553  19.2985606  61.7112923  37.8440332  20.1724625
  61.7351866  37.4851084  18.7022269  81.4158440  51.4326382   8.1922746
  82.1144390  51.5280533   7.5449002  81.7468357  50.7779026   8.8070905
  79.4671106  87.6713276  29.4301867  78.8870001  86.9401836  29.2177582
  80.2630615  87.2566700  29.7629738  74.3046141  69.8933125  30.4544258
  73.5539055  69.3297148  30.6415701  74.1880226  70.6473207  31.0324478
 102.2997856  31.0006118  19.4161868 102.9967594  30.7509947  18.8094401
 101.9389248  30.1684093  19.7218883  66.6526318  85.3310871  34.5286393
  66.1586094  85.3755760  33.7099838  66.4591312  84.4612598  34.8781896
  73.5695791  44.8640394  11.3470352  74.2670870  45.4855251  11.1385274
  73.3157635  45.0809813  12.2441113  55.7762432  80.2221107  14.2051744
  56.1830711  80.5656147  15.0006199  55.1259661  79.5944977  14.5205629
  44.3187952   8.6914933  74.0037680  43.9581728   9.0365523  74.8205423
  44.6505117   7.8241503  74.2359591   5.0877303  54.8246098  26.3639593
   4.8806971  54.1747618  25.6923461   5.1891714  55.6445837  25.8806491
  91.7220783  34.9921703  92.1683979  92.1427441  35.3717256  91.3968945
  91.6992760  34.0519142  91.9905472  90.9115028  37.4145532  40.8292437
  91.5527534  38.0797338  41.0793591  91.3935280  36.5887403  40.8730412
  36.5274358  95.2204609  69.4381714  36.7401123  95.8896351  70.0887108
  35.9571385  95.6672668  68.8125896  47.6715279  96.9682789  89.5774746
  47.0718241  97.6717567  89.3290520  47.5080633  96.8326187  90.5107975
  73.0007935  43.8804579  25.5587077  73.1792784  43.6273432  24.6529984
  73.8060236  43.6670065  26.0301685  45.0961542  17.3483181   1.7946713
  44.9435186  16.7337477   2.5124723  45.2355480  18.1911194   2.2265124
  30.1514030  26.8460298  61.1778259  30.4354787  27.6464415  60.7363844
  30.7206655  26.7804241  61.9445515  66.5267277  81.3866711  19.4008863
  65.6598473  81.3308048  18.9988554  66.6502857  80.5364418  19.8228824
  75.1359653  53.6903191  11.8188596  74.7291994  53.5325193  12.6708412
  76.0708046  53.7660170  12.0101118  54.7123575  67.5259209   9.2570829
  53.8958454  68.0208588   9.1894162  55.2762365  68.0683470   9.8084879
  55.3646469  13.6260235  83.9919567  54.5686626  13.9184892  83.5479927
  55.7363033  12.9657388  83.4070396  77.1264696  48.2211351  26.2882733
  77.3727322  49.1281748  26.1069822  76.1696482  48.2329845  26.3124299
  80.7868767  54.6719837   0.5659798  80.1356030  54.4713116  -0.1061854
  80.9155750  53.8444090   1.0294296   3.3016756  68.0759144   9.9540192
   4.1786444  67.8391600   9.6521819   3.3882385  68.1536198  10.9041250
  58.1699848  26.7178321  86.0682201  57.5510931  26.4024806  86.7268181
  58.9967346  26.2907362  86.2925148 107.8206539  69.8469400   8.1632096
 108.3203220  70.4797459   8.6790782 107.4164200  70.3688765   7.4700868
  75.2345181  76.8649340   1.8808332  74.4710541  76.2979603   1.9899024
  74.9247646  77.5792885   1.3240708  27.1864057  46.2719536  83.0535507
  26.7522216  46.8404579  83.6895752  27.4176478  46.8545866  82.3301601
  89.2739010  73.9170265  28.7752390  89.3152809  73.9470434  27.8194046
  89.6501637  74.7506618  29.0575647  83.0343342  51.6367149  29.2530322
  83.5384178  52.1080732  29.9163151  83.6960220  51.2331152  28.6913300
  19.8793435  98.9222240  88.6144543  19.4718933  99.5973206  89.1570950
  20.5044651  98.4913540  89.1973877  43.7763071  16.9012213  74.5810890
  42.9194689  17.1920907  74.8932648  44.4037962  17.4002850  75.1039934
  79.5115376  64.5611143   4.2148045  78.7994051  63.9857817   3.9353573
  79.8854876  64.8931551   3.3986303  79.4045687  60.4920483   3.5877973
  78.7987375  61.2085342   3.3984521  79.9310541  60.8109617   4.3208307
  13.9337468  18.8762391  75.5346441  14.0527833  17.9418921  75.7051086
  14.4568253  19.3111122  76.2080717  79.9544621 100.1593113  23.8746715
  79.9116278  99.5679569  24.6261334  79.0410089 100.2893925  23.6198854
  70.3645563  78.9115000   7.7142620  71.1052322  78.3476830   7.9372746
  69.6450567  78.5871696   8.2558942 109.2684555  68.8970423  82.0587158
 108.3946323  68.8466120  82.4461555 109.2314816  68.3060312  81.3066673
  84.4282627  93.9777565  13.9385939  85.3644180  93.9180470  14.1290367
  84.2813683  93.3265114  13.2526398  76.9383001  37.6706123  15.0107884
  76.7981529  38.4799457  14.5192933  77.4937248  37.1378827  14.4416356
  88.5124207  39.6204805  26.0179162  89.4637871  39.5179772  26.0431314
  88.2360840  39.1058016  25.2596450  59.6572828  64.4855404  13.4129524
  59.7886515  64.4855928  12.4648094  60.5384588  64.3998241  13.7768388
  79.0641117  98.1557178   8.5891289  80.0018883  98.3295727   8.6702204
  78.8787413  98.2715988   7.6572263  78.6288118  35.5101848  13.5447812
  79.1401339  36.1368895  13.0328977  79.1276598  35.3983426  14.3540251
  96.7965317  89.5410824   6.8182743  97.1493816  88.6753941   7.0239693
  96.4124680  89.4423676   5.9470773   6.6867733  22.6478076  82.2049236
   6.4214927  23.1611967  82.9679966   7.5884908  22.3875380  82.3930645
   8.4591675   7.3200387  27.8929853   7.5318325   7.4832183  28.0651879
   8.8929635   7.5001627  28.7270164  45.8943748  19.2754710  80.6949615
  45.5310202  18.4026277  80.8444500  46.8301249  19.1255307  80.5603409
  54.5734644  86.1291027  22.4179435  55.3062582  85.7159901  22.8746414
  54.0659666  86.5505791  23.1115127  50.5692005  52.2459316   6.4549369
  51.0420561  51.9248486   5.6871206  50.0239182  52.9577875   6.1200303
  60.7222271  72.8620434  34.4569492  60.9057093  71.9778633  34.7744298
  61.5737677  73.2991934  34.4601464  78.4074259  70.1134491   7.4014556
  77.6304388  69.7746849   7.8461605  79.0224075  69.3799448   7.4016529
  62.5111151  53.1285572  20.1592827  63.3994102  53.4818983  20.2073598
  62.4061918  52.8679943  19.2442226  52.0043993  93.6738014  13.6536503
  51.8188381  93.9082909  14.5629430  51.1779165  93.3211708  13.3237946
  77.1398067  86.7196846  27.7925515  76.9544077  85.9779167  27.2166753
  76.2897921  86.9500732  28.1675553  91.3965225  65.6105518  16.2584889
  91.3363743  66.5633821  16.1897635  91.8770885  65.3437519  15.4748440
 108.4896088  10.9965169  50.0557661 108.3621883  11.5774238  49.3057346
 108.6416054  10.1346409  49.6680832  55.6538439  61.0013008  23.6901045
  54.9969482  61.0964537  24.3797874  55.1441574  60.8966112  22.8866792
  27.9577661  24.6268773  59.0919209  28.0966926  23.7561727  58.7193584
  28.2777023  25.2287745  58.4199190  27.9115725  32.4639320  91.9408226
  27.0110893  32.7594662  92.0750618  27.9762387  32.3136163  90.9977055
 108.3651638  56.0091209  20.5289388 109.1758823  55.9702301  21.0363340
 107.9701233  55.1446056  20.6420350  61.2945366  45.2640104   0.9471097
  61.6724777  44.4652462   1.3150321  61.8135548  45.9721994   1.3283217
  55.6721401 100.6350708  10.8099854  55.1397514 100.2433681  10.1176238
  55.8278704  99.9193954  11.4262569  20.7269645  11.1367953  87.1545219
  20.1894832  11.6092932  86.5188408  21.5848899  11.0646939  86.7361927
  69.5209455  57.0571613  35.1957154  68.9130068  56.6804695  34.5595193
  70.0706100  56.3217115  35.4662919  31.9601965  31.6746807  92.3962116
  31.8868446  31.6370630  91.4425659  31.4081669  32.4143672  92.6498985
  80.2236462  23.5875654  19.0059149  79.8516893  22.9045224  19.5638859
  79.6091604  23.6613369  18.2757115  82.7227402  75.7681847   2.2088581
  82.8892899  75.9535694   1.2846696  82.5579166  74.8257351   2.2381739
  53.2042170 100.2587414  14.5811975  53.6508226 100.5838203  15.3629255
  52.5511789  99.6444416  14.9164617  40.8950949  17.0847547  35.3230762
  41.8292665  17.0985293  35.5313158  40.5740118  16.2732160  35.7161975
  92.3834515  51.6910267  27.8347564  93.1877899  51.3516474  28.2273102
  92.5327206  52.6335335  27.7597284  57.3646641  62.2076225  17.8710818
  56.5162897  62.3606205  17.4550486  57.3069096  62.6670074  18.7088537
  54.9885225  77.2317982   2.6280454  55.6949520  77.0058632   3.2331419
  55.3469515  77.0439911   1.7605841  53.7077761  60.4015017  18.1345057
  53.3200264  60.8297729  17.3713112  52.9664278  59.9954987  18.5837245
  70.9136534  73.2631683  44.0543222  71.1337996  74.1943407  44.0805864
  71.7409039  72.8271484  43.8499451  68.4631157  77.4772358  17.4178767
  67.7419043  78.1046820  17.4668086  69.1784096  77.9657936  17.0105720
 109.4098568  86.8481064  14.1068840 109.0874004  86.9299603  13.2093573
 110.2911472  87.2206879  14.0796757 100.2066135  67.4398708   4.3318760
  99.6855640  67.4541855   3.5290477 100.8092690  68.1777668   4.2394647
  11.8724656  20.8443236   3.2471919  12.5963962  21.0167646   3.8492048
  11.0934043  20.8438540   3.8033363  72.4288893  91.7627716  18.3405733
  73.2003784  91.2311649  18.5365975  72.3782921  91.7681408  17.3847270
  68.4105730  36.6371346   1.0246424  68.8029671  36.1564660   0.2957959
  67.5427008  36.8867946   0.7073046  67.6255608  34.9593210  23.1675076
  66.8992996  34.8756504  23.7853885  67.7218819  35.9027362  23.0374336
   6.4468104  79.0698862   7.5014997   6.2535578  78.3918333   8.1489021
   6.0742056  78.7353134   6.6857421  92.4644661  62.4644756  24.4582033
  93.2613754  62.9908180  24.5224357  92.7782536  61.5701485  24.3242288
  71.3443184  82.5936604  32.9122925  71.1844254  83.0697346  32.0974159
  72.2698784  82.3530388  32.8714418  79.6683550  82.9957199  17.2350299
  78.8837147  82.7933216  17.7445519  79.4878387  82.6389027  16.3653576
 107.7332687  66.5284395  24.2788553 107.3045254  65.7135201  24.0174770
 107.1679497  67.2185087  23.9317846  76.0364056  54.3385649  18.1995833
  76.2834930  54.5200777  17.2928107  76.8187380  53.9460230  18.5870135
  60.1123047  67.9225636  34.9900794  60.7400799  67.8511429  35.7091284
  59.2643976  68.0267143  35.4218626  47.9449749  59.8557043  34.0039754
  47.8193092  58.9824533  34.3752861  48.8905907  59.9267292  33.8736033
  92.3735523  43.5543633   8.9322114  92.8753376  44.0734243   8.3037049
  92.2781658  42.6986122   8.5140967 115.5408812  24.0632939  94.6689510
 116.1257575  23.3643055  94.9614716 115.6131620  24.7353816  95.3466797
  29.0161586   6.2877780  77.7893925  29.4725609   7.1286321  77.7595139
  28.1446886   6.5000260  78.1236458  35.2372241   0.9561623  89.2166138
  35.6255841   1.8164162  89.3758965  34.2974138   1.0915062  89.3377399
  54.5974684  52.2996569  17.7327704  54.8694658  52.9797459  18.3489871
  54.7262812  52.6930428  16.8697023  73.8264561 104.1339016   6.2771887
  74.1635561 103.3837605   6.7669600  73.1883335 104.5370865   6.8658161
  59.3188429  87.2250748  25.8054972  59.1303825  88.0298805  25.3227949
  58.7874985  87.2916412  26.5988922  80.4106236  77.9775476  15.6174982
  79.5632029  77.5420618  15.7095134  80.2634811  78.8614416  15.9541166
  63.6744595  73.0426311   8.8319212  63.1247759  72.2761202   8.9948291
  63.1225967  73.7878942   9.0691227  94.6314144  66.8823385  18.8215458
  94.4468403  66.4810753  17.9723382  93.9438820  66.5493393  19.3982971
  91.4862633  32.1289873  30.3304982  91.7014122  32.9993987  30.6656408
  92.0307541  31.5329695  30.8448124  76.1585474  69.1906166   8.7643826
  76.0944557  68.2385159   8.6893231  75.6258726  69.5241833   8.0424273
 101.8063354  91.3863850  11.7720163 102.3321629  92.1659660  11.5931344
 101.2832737  91.2633419  10.9798670  41.0489225  20.2377272  93.6876965
  41.2690306  20.9415269  94.2979813  40.8922577  19.4764769  94.2464352
  81.8315792  77.5670671  19.3750048  81.2727642  76.8789434  19.0138364
  81.3526630  78.3782673  19.2052031  60.0419760  26.1577058  81.9193459
  60.0239897  26.9363904  82.4757195  60.7307386  26.3366103  81.2791634
  40.3421974  46.7197704  86.3391018  41.0778141  46.2890768  86.7745399
  40.6156063  46.7947149  85.4248428   3.3257762  49.5900488  13.3164799
   4.1454372  49.1126537  13.4448540   3.1078839  49.4484472  12.3952293
  97.9189205  77.2995853  13.2405567  98.3294773  77.0835638  12.4032903
  98.1630611  76.5780640  13.8202441 106.7997742 106.3936996  88.7122536
 106.3300037 106.9098949  89.3673038 106.1371613 105.8048630  88.3510876
  11.8110156 107.1679592  51.2871170  12.6054609 107.6972961  51.2171841
  11.8459821 106.5824318  50.5307007  47.9630709   2.2224581  86.1365128
  47.3045444   1.6107261  86.4657021  48.1290340   2.8136891  86.8707752
  28.3916593   6.4980298  58.6661053  28.2554817   6.8889630  59.5291567
  28.9047050   5.7086450  58.8389826  30.5204535   7.4515915  86.9803524
  30.1719260   6.5639091  87.0627022  30.9596014   7.6148713  87.8150558
  62.5030851  22.6804018  87.7372932  61.9890261  22.3856258  88.4890175
  62.2634840  22.0786619  87.0324993  59.1451120  66.7658043   4.5499313
  58.9385414  66.5819979   5.4663247  59.4180584  65.9211063   4.1918546
  84.1122913 106.4693451  85.5825710  83.5768032 106.3468552  86.3664627
  83.7673569 107.2657871  85.1789284  99.3168831  97.9542255  88.1303883
  99.4963074  98.3680248  87.2861099  99.6860027  98.5570526  88.7758255
  43.4367704  96.9580173  13.6155689  43.0048847  96.8760395  12.7652824
  44.1910601  97.5228786  13.4476125  50.0426197  84.4695663   2.4014932
  50.0146818  83.6313629   2.8628555  50.6325102  84.3170834   1.6632479
  93.6323166  70.2668238   5.8941466  93.6437798  71.1966610   5.6672019
  94.2844677  70.1819801   6.5896618  69.6095228  81.3923359  15.0927341
  70.4442024  81.3954449  14.6241891  69.1002655  82.0895386  14.6794689
  63.8727665  93.3082104  23.9612961  63.8056374  93.2196617  24.9120259
  64.8133183  93.3605099  23.7914324  94.7244644  66.6948843  14.6939158
  94.1087627  67.1174574  15.2927256  94.7625542  65.7859612  14.9916375
 109.7258568  32.2217584  28.8085294 110.4332352  31.6671062  28.4795713
 109.2762375  31.6780329  29.4553995  54.5683384  74.0343189  18.4769356
  53.9751339  73.4814453  17.9683411  53.9950275  74.6697235  18.9056671
  81.6320515  59.7472525  17.3261917  80.9943295  59.2467213  16.8172538
  81.1039543  60.3692579  17.8266501  94.5061493  58.9197159  52.6773882
  94.6091461  58.8697004  53.6277199  95.1335621  58.2832289  52.3346519
  84.3295002  79.7945166  18.4158874  83.8996506  80.3601265  19.0574110
  84.0209389  78.9136791  18.6283720  51.2697411  78.8503170  17.1273839
  51.2554550  77.9085398  16.9568324  50.3837681  79.0527773  17.4278700
  75.4633617  61.1680984   3.6129314  74.5256901  61.2993336   3.7535810
  75.5172777  60.3703070   3.0867606   2.5687629  73.0850601  94.7081947
   3.1837410  73.4182501  95.3616619   2.7651429  73.5865116  93.9168644
  92.9739094  82.9828167  84.3711185  93.0781078  83.5549641  85.1313972
  92.0397949  83.0243587  84.1663265  81.3943577  86.5674400  92.8081799
  81.9259262  87.1726608  93.3252621  81.8442917  86.5138435  91.9650173
  67.3678160  70.5528021  88.2671452  68.1094790  71.0630798  88.5923862
  67.7680731  69.8246765  87.7919006  87.1323967 103.9970112  83.3809757
  87.7687073 103.7182903  82.7224541  87.4772549 104.8266125  83.7112236
  59.2582512  20.5333495  12.1436119  60.1128149  20.8851767  12.3929524
  58.6908579  20.7319975  12.8884840  74.8250294  60.9474850   0.2769656
  73.8939762  60.7300472   0.2311413  75.2187347  60.2158594   0.7523109
  12.7980375  96.9177628  67.4255323  13.2985210  96.2697887  67.9213810
  12.5596917  96.4674091  66.6152191  10.6499910  80.7482338  86.9108200
  11.0240281  80.7301998  86.0299110  11.2373936  80.2006245  87.4316978
   7.9518688 103.4792614  57.2457600   7.6116663 104.1005230  56.6019249
   7.3398560 103.5355949  57.9795885 111.4605236  60.6280422  79.2395401
 111.6009903  60.2179861  80.0929737 111.2264347  59.9024439  78.6608028
 101.6490078  99.7900963  92.7733326 102.0622635 100.1441479  91.9858646
 100.8250427 100.2714062  92.8484631  65.0334644  38.0871272  14.2241168
  65.8147573  37.9898596  13.6797357  64.3941975  37.4907732  13.8343358
  94.7261143 101.7266655  90.7469845  94.5994949 101.1811733  89.9706841
  95.6756973 101.7630482  90.8618641  88.8726521  25.1559520  17.0523894
  89.6109772  25.2557826  16.4514422  88.1064892  25.4000735  16.5331304
  59.1479111  86.8336105  90.1732731  59.9443674  87.2695351  90.4763412
  59.3390512  85.8995247  90.2580643  42.2913170  30.6693721   7.6985675
  42.0805073  29.7682476   7.4541008  43.1440830  30.6075454   8.1289142
 103.7324142  24.4679308   1.5839888 103.1709862  24.6878099   0.8405641
 103.4825420  23.5736752   1.8165892   8.7554330  79.4235373  72.2340536
   8.1882846  78.8680267  72.7688265   9.4450819  78.8355684  71.9259787
  61.9067335  42.4631119   2.3411159  62.5992632  42.8410292   1.7990696
  62.3597622  41.8380594   2.9070741  34.2917371 101.5635395  84.7838593
  35.0372243 102.1304893  84.5862484  33.6339593 102.1527863  85.1531124
  78.9769650  22.7211142  33.8380647  79.6693325  23.3788514  33.9031839
  78.4809208  22.8141904  34.6513987  58.4168863  36.7760730  15.9416950
  58.1164265  37.3322010  16.6604984  58.6442852  37.3896456  15.2430892
  91.8789291  80.2862549  86.2089729  91.8904781  79.7496414  85.4164219
  92.2176170  81.1362076  85.9277058  67.3830891  72.4885464   5.3139085
  66.6947842  72.9358292   5.8062601  66.9250345  72.0790482   4.5799261
  69.7925282  29.4885421  13.9973295  70.1258993  29.4709802  13.1002307
  69.5232010  28.5864782  14.1704655  56.8945503  58.7457848  11.8323326
  56.7874718  58.1040859  11.1301994  57.7563286  59.1315031  11.6749108
  69.9178600  65.6797838   6.1541569  70.2032328  65.4337835   5.2742255
  69.5640516  64.8717642   6.5258503  52.2373343   2.6818377  50.3283119
  51.4846420   3.0910042  50.7552433  52.8963757   2.6131129  51.0190916
  42.7606630   6.6931427  79.4624138  43.2307816   6.3238293  80.2099609
  42.3984098   7.5162822  79.7902012   4.5734394 100.0303555  93.2404804
   5.1224738  99.6776295  93.9407539   4.9588341 100.8834457  93.0406284
  43.0625439  16.5015006  93.4616470  43.6652374  17.2176385  93.6620045
  43.0865288  16.4281070  92.5075626  88.4502983   8.3449388   6.2533498
  87.9852867   8.9810747   6.7967951  89.0504169   8.8730180   5.7268381
  92.6748371   4.8525453  43.1670809  93.4381008   5.4212815  43.0660868
  92.3572445   4.7171295  42.2743177 105.3386402  78.3117962  70.3391647
 106.1194992  77.9158640  70.7261133 104.6122169  77.9631805  70.8558846
  94.6761799  80.7579517  74.4231558  94.4538403  81.6873455  74.3681812
  93.9490128  80.3659058  74.9066544  21.2403875  68.4920347  94.8217340
  21.1954886  68.7748444  93.9083698  21.6845137  67.6447547  94.7885584
  85.2684784  60.6558418  33.7557220  85.6628799  59.8083162  33.5498381
  85.1174450  61.0632515  32.9028225 106.4890480 105.3722572  38.9770341
 107.0764256 106.0901833  39.2132401 107.0706940 104.6814060  38.6597919
 115.9463692  92.8988743  79.0079880 115.0597095  93.1212807  79.2919111
 115.9427547  91.9443226  78.9369202 102.6229858  74.7167444  65.7111120
 102.1420002  74.8841667  66.5215778 102.9129028  75.5818176  65.4215860
  91.1812878  90.3378677  82.8923607  90.5019665  90.8333397  83.3498001
  91.0531807  90.5525494  81.9683838  68.2779312  40.7101727  22.7426839
  68.6058044  41.5068865  23.1597924  67.7747631  41.0230589  21.9909167
  67.6263571  45.1857615   5.7308412  68.4136105  44.6583366   5.8660698
  67.8550100  45.7780790   5.0145215   2.5992250  99.0535641  91.6299152
   2.7613774  98.1225777  91.4775848   3.2537174  99.3073368  92.2806549
  67.3812008  42.8347301   2.7737233  66.5624523  43.1383085   3.1657964
  67.2875023  43.0307865   1.8415141  93.1547832  19.1844320   4.8949176
  93.9938641  18.8862956   5.2460384  92.6440620  18.3828080   4.7818080
 111.5215397  71.7633581   1.5973765 111.3308430  71.1275673   2.2870392
 112.3420906  71.4580870   1.2104215  85.8451557  60.6296682   4.7578651
  86.1435890  60.3656292   5.6281829  86.3860035  61.3885546   4.5392182
 113.1988335  82.7445602  90.6060886 112.6146507  83.4762383  90.8051300
 112.7279949  81.9709682  90.9160805   5.0712216  32.4507427   3.9908916
   5.5954176  32.5426888   4.7865021   5.4609823  31.7066503   3.5319299
  82.9042339  11.5974295  65.2135277  83.2005119  12.1400797  65.9442711
  82.2239017  11.0392666  65.5901289  39.6563959  86.5408707  19.3151200
  39.6268559  86.1628723  20.1940274  40.1167917  87.3725319  19.4274235
 100.2315044  86.5972710  78.9400244  99.9985409  85.7298756  79.2710733
 101.0355282  86.8239880  79.4073391 107.5891685 109.7882652  65.7181406
 107.4161053 109.8027897  64.7768259 107.1545982 108.9941978  66.0293341
  97.9719353  84.3714046  77.7787304  98.4251595  84.4554901  76.9398308
  98.6530876  84.0964222  78.3924532  63.2626772  81.8712234  19.9795425
  62.8647470  81.1876678  19.4404387  63.5531044  82.5327587  19.3516409
  74.7610283  87.6318645  12.6481211  75.0146675  87.2533512  13.4899187
  75.4137039  87.3017120  12.0306671  54.5653009  11.0850418  20.9950113
  54.8581791  11.7499423  20.3718257  55.2806759  11.0178697  21.6274333
  40.9749985  24.7969317   5.0002187  41.5275002  24.0156531   4.9761426
  40.0903177  24.4603610   5.1426786  84.2582321  64.6906042  75.6824398
  84.9246025  64.8291731  76.3554859  84.7210503  64.8263741  74.8556376
  69.7304106  70.6848383  79.3894672  69.5830297  71.3689089  80.0425816
  68.8962364  70.6128979  78.9255524  51.9250584   6.4366204  27.2816586
  52.6167345   6.7400181  26.6936421  52.1386337   6.8320459  28.1267977
  69.4162512  21.6696215   9.8153710  70.2091026  22.2050762   9.8454469
  69.2674017  21.5142536   8.8826674  88.1720448  47.9583836  13.7998641
  88.2284451  48.5514212  14.5490992  89.0817070  47.7368164  13.6007619
  12.9840851  98.1070042  76.6691303  13.9270532  97.9491615  76.7152882
  12.8775656  99.0103149  76.9673014  73.9956999  55.7756901   6.2226492
  73.6988926  55.5122280   7.0936978  73.3152056  55.4552269   5.6306458
  70.3363371  22.1949005  28.1473851  69.6561813  21.7992401  27.6023436
  71.1551046  21.9868374  27.6973152  84.2626572  37.1716809   9.8770130
  84.7576427  36.4731932   9.4488400  84.6086311  37.9787040   9.4959068
  76.2613964  34.3318200  12.5435567  76.4008093  33.4164119  12.3010147
  77.1386766  34.7146964  12.5479865  78.4527493  56.5244436   7.5083262
  77.8526688  57.2241926   7.7661681  77.9888105  56.0542154   6.8155926
  11.9171929  83.4475231  86.9215488  12.0680285  82.5305557  86.6921043
  11.0096204  83.4723854  87.2247410   8.5575974  98.7993336  87.2078419
   8.8244486  97.8921318  87.3561859   7.6055735  98.7572765  87.1177673
  33.7474990  48.4104347  17.4441350  34.1762424  48.1922150  18.2716560
  32.8272796  48.5345078  17.6765800  57.1330595  72.7498102   9.1680640
  57.2627544  72.4662638  10.0730586  57.9540205  72.5293350   8.7280101
  58.7045813  40.5784893  12.5722778  59.2697716  41.2287855  12.9893005
  57.8883982  41.0471582  12.3978579  85.5660248   4.1395313  31.3950539
  84.9000835   4.7960520  31.5993667  86.3345909   4.6495250  31.1392379
  48.3625698  21.6505361   2.0729972  47.5821209  22.1798015   1.9086407
  48.7392616  21.5034199   1.2054198  94.5244122  18.9598525  22.1170425
  94.9933052  18.2633424  22.5766587  93.6430359  18.6098540  21.9869971
  86.9001007  44.8954487  11.6674829  86.4837265  45.4946995  12.2869706
  87.4945450  45.4491901  11.1612868  48.5557127  49.9807072  18.2851553
  47.8648329  49.3299580  18.4094191  48.7731886  49.9244452  17.3546863
 107.5456715  72.6554012  56.8968534 107.8696442  73.5520077  56.8109894
 106.6121387  72.7549028  57.0835495   8.3455336  15.5111349  67.9229307
   9.2706895  15.6324327  67.7093744   8.1700641  16.1597037  68.6046886
  39.5555449  31.7579317   5.6846219  38.7371922  31.9928265   6.1220592
  40.2030659  31.7263508   6.3888597  39.8968625  96.5906811  67.3035812
  40.0257349  96.3972855  66.3750219  40.7637453  96.4794922  67.6939487
  66.6752005  64.5031309  13.5389221  65.9269857  64.0162230  13.1934786
  66.2928629  65.1157570  14.1672087  51.3660240  10.8725953  69.8276377
  50.6897974  10.3039384  70.1958513  51.1713600  10.9006655  68.8908577
 101.4785671  71.8893957  19.2655087 101.3939571  72.8042412  18.9969289
 100.6909561  71.4657688  18.9242899  89.7061634  70.6360340  17.4576497
  89.7185707  71.0379171  16.5889907  89.4468880  69.7285509  17.2980249
  66.5341568  34.9562073   3.7114865  66.5836668  34.8780131   4.6642017
  67.4449825  34.9146652   3.4201065  83.2440090  52.2790813   3.5570899
  82.8672791  51.4380264   3.2983762  83.8622761  52.4899483   2.8574365
 112.4213505  82.9242706  85.0039577 113.0881119  82.2467518  85.1163197
 111.8603802  82.8384209  85.7747841  12.0489633  67.1429825  94.4325733
  12.6894486  66.8818760  93.7708855  11.7291880  67.9942179  94.1336155
  68.8824701  12.7087867  60.2530241  69.3201590  13.5570252  60.3247690
  69.0489769  12.2815204  61.0932302  84.7239017  41.9540215   4.8274419
  84.4213581  42.8443766   4.6486422  83.9203739  41.4435196   4.9272045
 110.1708126  66.2435865   5.6137156 110.9768009  66.2404680   5.0973797
 110.4674625  66.1751509   6.5212095  67.1676493  40.4708624   4.7986943
  67.2248411  41.1783409   4.1564834  67.3563242  39.6771288   4.2980781
  75.5797720  78.3677387  24.6611094  76.2132978  77.9805040  24.0570116
  75.9777832  79.1968060  24.9265718  27.2282624  28.3489871  71.7753315
  26.5339637  28.9532137  71.5124798  27.9822683  28.9120889  71.9503212
  87.8508377  67.2437572  14.5875967  88.2279968  67.6895952  13.8291669
  87.0689011  66.8099976  14.2460525  48.5357809   2.7830729  79.1424847
  47.6739359   2.3666450  79.1360092  48.9020348   2.5890225  78.2796764
  60.0696135  39.0148044  26.4261389  59.9176693  38.1355405  26.0796690
  60.8026695  38.9098763  27.0326447  56.7787695  47.5411606  12.9712129
  57.2733498  47.8718996  12.2213912  57.4454403  47.1918392  13.5626173
  62.6359034  55.9090519   9.4396168  62.9407930  55.8267021   8.5360181
  62.9443312  55.1116753   9.8700738 115.6466103 100.0579357  73.3963203
 114.7507000 100.3705978  73.5220671 115.5746174  99.1041088  73.4317780
  71.0897589  45.0449038  29.3572450  70.9875488  45.1578760  30.3022432
  71.9893885  45.3191042  29.1791630  99.7493172  98.4165955  73.7586975
 100.5443668  98.0977249  73.3315563 100.0636673  98.8771915  74.5366907
  38.1388545   9.7601539  77.9416513  37.4649119   9.7511488  77.2619820
  38.7634635  10.4246151  77.6508141  42.8097725 105.0308704  72.0573759
  43.4142303 104.5827675  72.6490402  42.0445442 104.4572449  72.0172215
  96.0808277  37.5684142   9.5369554  96.5505981  38.3202982   9.8978031
  95.2174759  37.6053238   9.9486685 104.9932384  29.2578459   3.7984174
 105.2000999  28.3508110   4.0236512 104.0375328  29.3006110   3.8305014
  41.7837667  27.9136872  47.6264286  42.7188206  28.0837345  47.7403879
  41.6783476  26.9906592  47.8569508  66.5919495  24.7056794  76.1696577
  66.7727613  24.4396710  77.0711994  66.5701914  25.6620884  76.2019205
  68.8119030  60.6474257  34.2150497  68.7768173  61.3127613  33.5277891
  67.9019117  60.3737402  34.3301439   4.4281402  73.0727196  89.1407681
   4.0118846  72.2377491  89.3547535   5.3376937  72.8446150  88.9486408
  31.0155439  80.1276779  72.2713852  30.3238678  80.6849861  72.6280642
  30.5581832  79.5219374  71.6881752  45.4100704  38.8106132   3.0990168
  45.4626989  39.2647076   2.2580296  44.8705435  38.0400681   2.9218018
  13.9541602  23.1016707  49.7097588  13.5616350  22.2770333  49.4231796
  13.5483098  23.2778883  50.5585623  48.6695337 105.4340076  69.6561575
  48.1919575 105.3276920  68.8334513  49.5820045 105.2561378  69.4281292
 100.3665924  50.2897882   2.4982147 100.7750320  51.0519218   2.9087794
 100.2529335  50.5433321   1.5822296  37.8058052  17.1450317   6.0361409
  36.9307518  17.4302936   5.7731986  37.8420997  17.3195529   6.9765967
  64.8420906 101.4106846  77.8047228  64.7031498 101.3089752  76.8631411
  65.2590227 102.2676659  77.8941107   3.2605717  75.5403805  87.7010727
   3.4777147  74.6286869  87.8957367   4.1051614  75.9558487  87.5270462
  83.4780502  60.9446144  19.7393429  82.6353073  61.2965536  19.4527233
  83.4225559  60.9385347  20.6949139  13.6486650  79.0399694  25.2149510
  12.7252126  78.7958431  25.2771664  13.9990044  78.8770390  26.0907078
  98.5091877  59.1340303  36.5510440  99.1530991  59.7984409  36.3057566
  97.7740765  59.2817402  35.9560418  97.5475597  97.7442455  78.2402372
  96.6372013  97.9741573  78.0542040  97.6519489  96.8653870  77.8756285
  96.1961651  34.2762065  11.1720252  96.2662697  33.3408213  11.3627362
  95.6068516  34.3236566  10.4192388   0.4031668  33.7613487   0.6185762
   0.7343295  33.3445859   1.4141083   0.4188614  33.0668664  -0.0399680
  70.9376287  41.3573408   7.9872078  71.5282297  40.8478737   7.4323505
  70.1828718  40.7845068   8.1229907  44.3520403  42.4463606   0.8467104
  43.8660765  43.2710218   0.8458351  44.5830536  42.3054647   1.7648675
  84.1473770  26.4711285   4.2820767  83.5070992  26.2196279   4.9476793
  84.0747261  25.7922244   3.6112255  79.1416121  34.5868134   6.2948769
  78.4960032  35.1717138   5.8982503  79.1866064  33.8398075   5.6980610
  82.8137016  61.8522310  12.8524232  82.1854210  61.4448309  13.4486711
  82.2740650  62.2339821  12.1601176  20.9534001   1.9400701  65.9598541
  21.7295241   1.5756910  65.5343056  20.5279422   1.1861106  66.3682222
 100.5521011  21.0612440   3.9083993 101.3235283  20.4970145   3.8557494
  99.8349953  20.4665971   4.1283858  46.7729664   6.7178798  88.1001949
  46.1473131   6.4718652  87.4188137  46.2741947   6.6609699  88.9151859
  27.5008130  91.4997292  89.4019318  28.3385587  91.4989758  89.8649788
  26.8616128  91.2335014  90.0628185 111.3772202 100.6233501  80.2607155
 111.2972164  99.8460865  80.8136082 111.0978985 100.3301239  79.3934107
  72.8524113  40.6807041  16.8290532  73.1754971  39.7971725  16.6523492
  71.9056654  40.6193972  16.7019832  42.4506903  22.6198125   2.2062512
  41.5909672  22.3794580   1.8607970  42.6215506  23.4878254   1.8407521
  50.2931643   0.6783022  85.0463200  49.6791267   1.3482836  85.3468513
  49.9056578  -0.1482163  85.3343105  66.2794876   3.9767379  86.2458229
  65.8395815   4.2008230  85.4257584  67.2103357   3.9657325  86.0230446
 112.8724766  96.3439083  80.1252556 113.2207966  96.8452263  80.8625317
 113.6162663  96.2434673  79.5311880  18.0609119  78.0771542  86.7935944
  17.8157270  78.9099073  87.1968746  17.7277803  78.1373596  85.8982563
  68.9770222  57.9744148  37.8865337  68.6848545  57.0782852  38.0533361
  69.6168947  57.8900528  37.1796513 114.8884106  81.9507408  94.0727520
 115.2508736  81.7807198  93.2032967 115.5589962  81.6340160  94.6779251
  68.8914776  34.7085428   8.3252054  69.5691919  34.1865492   7.8957176
  68.5015917  34.1141367   8.9662206  31.2026358  98.5187531  81.3094711
  30.6057262  97.7795982  81.4259815  30.8108401  99.0341854  80.6044483
  44.7126532  40.2417135  14.8657835  43.9061642  40.6704187  15.1521742
  45.0484848  40.8046722  14.1682684  36.1794543  38.7174726   7.8396249
  36.3079381  39.2619920   7.0629513  37.0230627  38.2846761   7.9709363
  44.2857838  23.2815242  14.9580109  43.7210560  23.8224530  14.4060063
  45.1584387  23.3801985  14.5772612  79.5738316  22.5124025  82.3119068
  78.9036512  21.9994736  82.7635670  79.4965506  23.3899689  82.6862526
  74.2240524  48.1808233  19.8999012  74.1445637  48.9716339  20.4333186
  74.1182899  47.4608469  20.5217361  24.2730021 107.4319649  71.8974733
  23.8930631 108.3053589  71.8022728  25.1987696 107.5921535  72.0805788
  72.4207544   3.3362532  62.5315666  72.4203777   4.2023742  62.1240520
  72.1446323   2.7428162  61.8331242 100.1649493  43.0593705   0.4480899
  99.4746512  42.6856446   0.9958518 100.8776158  42.4219250   0.4927314
  87.3563194  49.0697384  11.4271271  87.2805500  50.0227308  11.3792551
  87.5274277  48.8892031  12.3514438  67.9883337   8.9434755  80.1392841
  68.6053228   8.2785213  80.4448891  67.8566408   9.5140451  80.8964825
  35.8631492  88.8322926  94.0611076  36.2837839  88.0354023  93.7382030
  35.7170510  88.6655426  94.9922752 108.8573170  56.7215824  30.3590751
 108.1521034  56.0755444  30.3199053 108.7482834  57.2436666  29.5642328
 112.0135212  54.1651917  15.5042338 111.0593224  54.2252970  15.5503142
 112.2648907  53.7207890  16.3138962 110.6015968 101.8692684  72.8095531
 111.0396671 101.8090248  73.6584902 111.0835648 101.2624073  72.2477245
   9.9772942  78.0971384  80.7716179  10.8697653  78.1700134  80.4333591
   9.7251916  77.1919298  80.5892086  46.9531059   9.1088164  76.3561630
  46.1826944   9.3363816  76.8766546  47.0037079   9.7949153  75.6906223
   6.9513267  76.4935541  57.6703978   7.1147883  77.0640993  58.4213924
   6.2928456  76.9591141  57.1547556 102.2458744  77.6239872  11.7198932
 101.7890739  78.1164932  12.4018037 102.6648903  76.9009161  12.1866143
  63.8072729  41.1261272   7.6672256  64.0846729  41.4371872   8.5289216
  64.4605303  40.4685879   7.4282289  95.0629997  88.6182594  88.4004307
  95.2811337  89.1893959  89.1369438  95.0104046  87.7427101  88.7836742
  17.0390809  83.1337643  87.6089001  16.1822391  83.2063389  87.1884441
  17.2324157  82.1963501  87.5983620  23.1786776  28.2146931  87.0234680
  23.5237193  27.8238773  86.2206936  23.6850858  27.8062344  87.7255630
  37.9414868  20.0739098  93.2741451  37.9736495  20.4824376  92.4090958
  38.8386059  19.7810102  93.4342003  19.3383467  27.8396797  79.1637564
  19.5696187  27.3476934  78.3759117  20.1417804  28.3024383  79.4016218
  56.9755220  27.6913929   7.5543904  57.9324865  27.6952052   7.5753427
  56.7473125  28.3643293   6.9130546 101.9201756  59.5898438  28.8846040
 101.6463375  59.1689777  29.6995378 102.8767109  59.5758438  28.9174724
  93.5316181  59.5254230   3.1387898  94.0731430  60.1449537   3.6278397
  93.6722755  59.7571087   2.2207636  60.2527905  96.3730240  84.5851612
  60.8320236  96.3250256  83.8246155  60.5061197  95.6255150  85.1267147
  59.5517826  56.9598722   4.1033503  60.2241182  57.4190092   3.5999694
  58.9898729  56.5573788   3.4411669  86.9474411  78.5255098   6.9402558
  87.6604271  78.6417866   7.5682420  86.1693001  78.8401699   7.4003816
  25.7351375  39.7600412  38.6373091  26.3772798  39.1717339  38.2400942
  26.2595439  40.3795910  39.1446424 101.7084122  46.9582272  16.9944727
 101.2743473  46.6073465  17.7720964 102.1333981  47.7601337  17.2987151
  25.9932733  87.9700756  92.7318096  25.7781267  88.1967163  93.6365604
  26.9300985  88.1512356  92.6558113  53.8061619   7.7008128  60.2557898
  54.0049505   8.5997009  59.9936533  54.1645622   7.6243776  61.1400652
  95.3732109 106.2934017  16.2080526  94.4292164 106.2852669  16.0498166
  95.7611561 106.3854218  15.3378403  37.2544217 103.4816360   7.0551580
  37.3990870 102.7898884   7.7007467  37.5037313 104.2874622   7.5076187
  40.8346844  83.9574528  63.8837957  41.4084959  84.6524906  64.2061424
  40.0302696  84.0554333  64.3932581 110.8462334  89.2641068  71.1138296
 111.1919212  89.9598503  70.5546713 110.4766560  89.7239876  71.8675804
  74.5615101  11.0244930  64.9567890  73.7880850  11.4618516  65.3128147
  74.3218851  10.0981522  64.9302387  15.3382683  83.8910294  61.4269733
  15.5328262  83.6317348  60.5263376  15.7338071  83.2048607  61.9645214
  11.9871509  59.4934368  55.9871006  11.8892562  60.4279757  55.8046722
  12.5462866  59.1688919  55.2812195  41.4891624   5.3752989  37.3759723
  41.5555096   5.6685346  36.4672136  41.9639969   6.0384893  37.8769159
  11.3205183  67.8790712  37.2060418  12.0920134  67.7613115  37.7602625
  10.5973244  67.5255680  37.7239799 111.5136242  19.8806119  14.1257620
 111.4619350  19.9724436  13.1743813 110.6460667  19.5692062  14.3838191
 112.1774673  63.1895733  61.4548063 111.8498707  62.3340702  61.1772537
 112.2103214  63.7061930  60.6496620   4.2306155  69.6227169  78.0586147
   3.4833881  69.4858789  77.4762440   4.2984602  68.8080978  78.5566378
  98.0458260  87.9427814  63.5032225  98.5423183  87.8779316  62.6874256
  98.5604477  87.4432564  64.1371536 112.8297997  78.1224537  80.6674862
 112.2590160  77.9147005  81.4072704 113.5926437  77.5568247  80.7873154
 108.4235287 103.2841396  38.2441521 109.3365192 103.1832123  37.9748964
 108.1344700 102.3948669  38.4487700  91.2331295  23.8209558   7.7199328
  91.1824036  22.8685284   7.6390398  90.6392765  24.0321088   8.4403396
   5.1306909 108.2893753  33.2837987   4.5322219 108.6268044  32.6173067
   5.2985579 107.3849392  33.0191565  11.5378165  90.0217247  44.7611809
  11.5546513  90.4765224  45.6032658  11.9045937  90.6520462  44.1411734
 116.1133102  77.9842710  43.1801510 115.2514467  78.2722282  42.8793144
 116.2804112  78.5073376  43.9641809  41.1891222   7.3449892  31.1212468
  40.5051041   6.8254465  31.5436554  41.9240284   7.3168164  31.7339039
  12.2470725  88.8336277  63.3742237  12.2362185  89.5855713  63.9664221
  11.3255930  88.5952091  63.2729435 103.9438248 101.8070984  61.0814190
 104.5930862 101.3169861  60.5769587 103.3229828 102.1264362  60.4265833
  57.3641872  16.8069756  87.4393082  57.0493078  16.7578661  86.5367126
  57.4119377  17.7446508  87.6256371 111.5544701  84.0668201  69.6958542
 112.2753429  84.1397190  70.3213596 111.8862820  84.4800854  68.8987684
  12.2761083  79.7122240  30.7561064  12.9567933  80.1126575  31.2969851
  12.3404586  80.1656437  29.9155712 114.9668788  64.1273975  85.9338760
 115.4665274  63.6227465  85.2920723 114.0820800  63.7652254  85.8870411
  62.8226904  31.3364434   0.1068462  63.2233100  31.2784028   0.9742416
  62.4384646  32.2126889   0.0786365  17.5412989  93.2864189  80.5847836
  18.0856347  93.4954643  81.3438797  17.9004180  92.4640179  80.2517223
  23.4733868  87.5451088  77.0957994  22.6157641  87.4769783  77.5154114
  23.3195019  87.2737408  76.1908627  18.5878360  94.4380665  48.1809044
  18.0703795  94.9178791  48.8276243  18.4264255  94.8971653  47.3566437
  24.2468596  65.8064365  81.3162804  23.8169169  65.0086784  81.0081196
  23.5298109  66.4228916  81.4647961  58.8258076  12.4785066  47.6873541
  58.7029648  13.3411026  48.0836773  57.9524231  12.2258806  47.3880053
   9.6326751  58.6251593  67.7695608   8.7110263  58.4274769  67.6030779
   9.6161222  59.2557716  68.4894800   7.2950548  92.8256893  53.4144402
   7.0409602  93.6535931  53.0067110   7.3562843  93.0274010  54.3481398
 114.1207218 109.0713120  67.2700024 114.3459034 109.9948883  67.3819304
 114.8891258 108.6868572  66.8481064 115.0271225 100.0571632  60.5884457
 114.5104027  99.6995354  61.3104820 115.5389595 100.7615280  60.9860897
   7.5275272  68.5982561  54.7134161   6.5715426  68.6199903  54.6703672
   7.7200466  68.1774330  55.5513144 106.0254002  72.6035118  48.8219452
 106.6058064  73.2950735  49.1399193 105.6254959  72.2436094  49.6136427
  18.5491168  99.9565887  43.2913160  17.7479601 100.1976109  42.8262520
  18.8283587 100.7645416  43.7219763   1.4070205  74.4445562  41.5170717
   0.4515735  74.4325542  41.4604282   1.6422275  73.5563326  41.7853355
  17.8473055  45.7888937  75.0714254  17.3778582  45.8883715  74.2432022
  18.7686038  45.9071922  74.8402405  82.7509212   0.8518714  68.0105639
  83.1400013   1.3410321  68.7355232  83.4978294   0.4607654  67.5573587
  90.6206512  80.1278305  70.4231119  90.0117111  80.4998684  71.0610867
  91.3468361  79.7954273  70.9507370 115.7829826 107.1121407  88.0718708
 115.5992326 107.0902634  87.1327305 115.9451197 108.0359936  88.2627487
  88.4827614  99.6620083  52.5945902  88.0379105 100.2754593  53.1794119
  89.3092918  99.4667339  53.0361223  19.6671736  58.0084896  65.0261974
  19.6823180  58.7591934  64.4325256  19.9891186  57.2784328  64.4974232
  23.2126880  98.5947227  29.0736485  23.0835629  99.3303585  28.4749818
  24.0204096  98.8058949  29.5418620  12.9498315  54.9672127  63.3021164
  12.6219499  55.8631611  63.3796310  12.2667885  54.5032501  62.8179455
  89.4660568  77.9947948  82.6437283  89.4632721  78.5497284  81.8638134
  89.2360020  77.1242189  82.3190594  25.4976463  87.7123928  48.4145069
  26.0444784  87.0426655  48.8252020  24.6031189  87.3878670  48.5181141
 110.8675766 101.8218231  66.1201668 111.0928154 102.7369785  65.9528351
 109.9132824 101.7935658  66.0511398  20.9361029  72.2413445  50.3947020
  21.5141010  71.5587282  50.7355642  20.5626678  72.6507378  51.1751986
  30.1521158  79.1073942  68.2166147  29.9659228  78.2207680  67.9076529
  29.7708249  79.1403055  69.0939808 111.6006660  87.4144077  64.7722960
 111.9600582  88.1275368  65.3000307 112.2400951  87.2896194  64.0710258
 104.8000813  70.7939863  62.7606297 104.4981956  71.6348934  63.1041002
 104.7803402  70.9026289  61.8098164   6.9695407  16.1059451  35.3987265
   6.0911363  16.2455130  35.0449491   7.4457973  16.9070005  35.1802731
 103.7091446  38.2637763  25.9809637 102.7714157  38.1341147  26.1226344
 104.0223885  37.4175429  25.6615829  20.2464175 107.3645973  47.4218702
  21.1478710 107.1799374  47.6855278  20.3138828 108.1400394  46.8647718
  20.8902383  46.9607353  63.7223482  20.1415801  46.9777203  64.3185520
  20.9213161  47.8427219  63.3517170 110.0095463  73.1448841  66.4940310
 109.9953175  72.4309731  67.1314955 109.2134666  73.0204916  65.9773064
  96.3538933  73.5828829  60.0602245  96.1789989  73.7911320  59.1424704
  96.1661625  74.3953705  60.5301714   5.1411831  51.3430929  42.0030785
   5.4722416  50.4786253  42.2466516   5.9038377  51.8006611  41.6492128
 102.6750088  50.8222151  63.2043695 103.0145264  50.3606510  62.4376106
 101.8321323  50.4045916  63.3815479  15.6504893  63.1562662  82.7326679
  14.8186076  63.1546926  82.2591686  15.6704342  64.0028000  83.1790066
  15.4751623 100.6524086  64.9121332  16.0910177 100.5759525  64.1833591
  15.9757614 100.3738785  65.6789780  15.0930882  58.9786100  58.4822416
  14.8279870  58.9209366  59.4001865  15.7739556  58.3125544  58.3872700
  10.7970560  64.5981121  57.5261021  10.1945496  64.1918850  56.9030476
  11.6669607  64.4221163  57.1675968  83.5464573 100.9290409  52.0315409
  84.0105438 101.5712166  52.5686216  82.8799248 100.5659580  52.6147556
 114.8798244 109.3871484  51.1188364 114.7227089 109.6862951  52.0144129
 114.7635643 110.1702811  50.5808592 105.7593441 106.7779827  58.4633446
 105.2614975 107.4724102  58.8948011 105.2364826 106.5507221  57.6944447
 113.0356598 105.8069229  70.3395319 112.9218578 106.5258980  70.9611082
 113.0852222 105.0229931  70.8865404  10.6591046  89.5189285  92.7702045
  11.3354719  89.4087887  93.4385109  10.0618839  88.7841606  92.9104900
  11.6997635  35.3292274  65.2434492  10.9506369  35.6402683  64.7352219
  12.3745811  35.1483011  64.5891428   4.3177849  77.3610878  22.7204823
   4.8494735  76.8860912  22.0817995   4.8813081  77.4395084  23.4902382
  24.5298171  77.7266312  77.2854042  24.8539519  78.2368612  78.0275869
  25.3193355  77.4642992  76.8120432   4.6713135  88.4025097  65.7150793
   4.4836038  87.5423050  66.0906267   5.3449821  88.2343769  65.0561953
  35.0661376 109.9661920  53.2838202  34.3893817 109.5746505  52.7316141
  35.8897260 109.6412290  52.9200506  32.2150946   6.4949685  64.7176313
  32.5862145   7.2073239  65.2382565  31.7250395   5.9674692  65.3483629
  34.1216922   9.5579320  71.1029196  34.2160726  10.0372958  70.2797937
  34.6754813   8.7847382  70.9946585  94.4139671  60.5214930  71.0915470
  95.1916790  60.9587622  71.4382267  94.4250679  60.7198143  70.1551819
 111.1392212  81.7192364  44.2973757 110.9815884  82.6392174  44.5095587
 111.8139362  81.4426422  44.9174356  17.7308536  95.1669312  56.8943644
  17.8369296  96.1073112  56.7506647  17.1609151  94.8784828  56.1814833
  17.2560358  79.5209742  60.7802725  17.9447556  80.0216007  60.3429270
  16.8631589  78.9949846  60.0836992  11.3681781  63.9776421  90.1622486
  11.1448097  64.6243906  89.4928837  10.9571671  64.3079996  90.9611034
 110.0788975  78.2305384  56.6210508 109.7743034  77.4453115  57.0758820
 109.9977875  78.9297199  57.2697401  28.7642980  91.7602921   5.1081342
  28.5496163  92.2389984   5.9087449  29.1472077  92.4200726   4.5299473
  21.5301538  92.6765156  52.9069996  22.1195674  92.9281139  53.6179972
  21.3239574  91.7580318  53.0804968   6.1804247  84.6437359  73.9697552
   5.3021097  84.3238926  74.1758871   6.7352271  83.8649273  74.0130568
  27.0303369  67.5200939  32.8147531  27.3200202  66.6126156  32.7209663
  26.6623259  67.7436066  31.9598603  39.4277787   1.5096332  77.3573399
  40.3565884   1.4931463  77.5881481  39.3459630   0.8724150  76.6477680
  24.6379447  95.2849865  91.5860367  25.0891757  95.9183979  92.1440697
  24.0571499  94.8118401  92.1818829  43.0131912  55.0024319  20.2577209
  43.5407972  54.5058346  20.8832240  42.8522825  54.3895102  19.5403171
  99.8452377  78.8482332  34.7577190 100.4070568  78.9834213  35.5208158
 100.1838207  79.4560480  34.1003299   1.1145442  88.9822006  32.7767920
   0.2537286  88.9605141  32.3587513   0.9836533  88.5436440  33.6174870
  14.4520378 109.5409489  65.4070377  14.6726215 109.9130630  64.5531654
  14.2833507 108.6157513  65.2287531  94.4044781  51.4976549  61.8292904
  94.5595932  52.1208668  62.5390673  93.4731674  51.5902710  61.6284990
 107.5251961  83.5269642  72.0026255 106.6824722  83.6639595  71.5698671
 107.3609161  82.8222656  72.6292324 115.1076317  81.0061264  54.2380762
 114.2351627  81.3268757  54.4664478 115.5476665  80.8888435  55.0800085
  12.8624690  73.7650919  69.3732882  13.4932613  74.3807983  69.7464371
  12.6681101  74.1180706  68.5050344  91.2564659  56.2590313  56.4843798
  90.7266808  57.0238447  56.7093706  91.4249516  56.3518190  55.5467081
  74.9049044  16.2074542   3.0929217  75.1127529  15.5708981   3.7769002
  74.5901251  15.6777537   2.3604171 109.9037075  96.7342472  49.2212105
 110.4874992  96.0277176  48.9450741 109.0681458  96.5330124  48.7998295
 104.4334030  85.8310509  58.5979652 103.6684418  85.9482193  59.1612959
 104.7949409  84.9838066  58.8581562   5.9101945  93.8253593  21.6205001
   6.4481467  94.1466904  22.3440933   5.1377189  94.3905735  21.6269588
  13.8081884  64.7841644  36.5511942  13.8749063  64.1255045  35.8598542
  13.0349457  64.5268726  37.0533180 110.9829426  59.0833044  57.4886322
 110.9879398  58.3639002  58.1200266 110.2131462  58.9186954  56.9440651
 113.1353855  68.8453388  69.2921114 112.3575974  68.5875463  69.7868967
 112.8494644  68.8440466  68.3786154 109.5858765  68.4665728  77.2762203
 110.4170609  68.8882923  77.0582533 109.8316002  67.5873137  77.5638866
  75.9778690  92.7001286  78.6025429  76.3323593  93.5891628  78.6165333
  75.7400370  92.5227642  79.5126057  93.7545872  80.6245708   7.6930946
  94.6337414  81.0020351   7.7221841  93.4287643  80.7070065   8.5893500
   0.7190953  73.5808039  53.7685585   0.4995213  73.3138895  54.6611834
   0.1265011  73.0731535  53.2141590   0.7764670  92.9432106  64.6048260
   1.4459461  93.5601234  64.3091106   0.5574387  93.2336807  65.4902029
  32.7218866  31.2279439  52.1785450  32.4819374  30.8293724  53.0150843
  32.3823690  32.1212649  52.2327280 104.1852856  78.4246397  40.3127098
 103.6109352  79.0612364  39.8871613 104.0336132  78.5535288  41.2489843
  29.7854352  15.4937756  81.6766453  29.4172525  14.6615088  81.9733047
  29.7672105  15.4367828  80.7213211   5.2748483  97.6635551  45.9785414
   5.4835236  98.5029221  45.5684805   4.3998614  97.7876091  46.3462925
  56.9524908  13.3370733  38.7282324  56.1986828  12.7497089  38.6733985
  56.5699863  14.2098343  38.8188338  84.6091938   2.3787367  33.5764933
  85.1970673   2.6442507  34.2837000  85.0363064   2.6926017  32.7794385
  18.1105351  86.0792255  53.0519915  17.2314274  86.4551353  53.0062008
  18.5977423  86.5242672  52.3585987  41.1317539   4.5032299  85.4209995
  41.2328625   4.9405318  84.5755577  41.8552065   4.8371598  85.9514141
  60.6992435  13.2719886  45.7582474  59.9939728  12.7697515  46.1663866
  60.3082991  13.6296463  44.9610806  41.3192701  81.3037109  75.8386278
  42.1573448  81.7654610  75.8130503  41.5279913  80.4128075  75.5576229
  56.0609007  16.6119730  62.9870319  55.7210779  17.5061083  62.9513407
  56.8132639  16.6650379  63.5764074  28.6787057  81.4633656  73.5798693
  27.9311252  81.3105965  74.1578102  28.3032894  81.4702415  72.6993895
  40.0820684   2.5058246  41.8623018  40.0155163   1.6995949  42.3739576
  39.2884302   2.9943380  42.0807505   3.2612315  90.6360531  64.5690393
   3.5600665  89.9001312  65.1032257   4.0594557  91.1229420  64.3640709
  11.3932347 102.5089550  70.2349710  12.1839476 102.4199009  69.7029257
  11.4546347 103.3874512  70.6100798  16.2350345  98.6324024  46.9836187
  15.3476775  98.4020233  46.7083788  16.3109088  99.5667267  46.7899179
  82.7349186  49.1376114   5.2034909  83.2023144  49.3241549   6.0177261
  82.0719910  49.8255920   5.1448405  13.4342754  98.7903309  59.8704386
  14.1320086  99.0865707  59.2859411  12.8923917  99.5670223  60.0094748
  22.6793289   0.5004931  70.2464962  21.7818761   0.8331012  70.2330351
  22.9576254   0.5989652  71.1570358 108.0217361 108.5239315  21.0627246
 107.2879124 108.0590630  21.4647508 108.1000996 109.3319798  21.5698361
 100.6742573 100.6008053  71.2018776 101.4056683 101.2008190  71.0560751
 100.4396820 100.7280350  72.1211243  92.2984600  24.1083574   1.0673980
  91.5411663  24.6887445   0.9906128  92.1200562  23.5838318   1.8479601
  47.1470356  88.6772823  51.5078640  47.4924994  89.5680046  51.5669918
  46.1980772  88.7913895  51.4559507  25.4299617  95.3730679  46.6082573
  25.2959657  95.7292175  45.7299471  26.1623764  95.8776188  46.9621372
   9.9633956  79.1741228  55.3951073   9.9933398  78.6224270  54.6134663
   9.4257671  79.9234867  55.1389074   4.3099579 102.4790478  68.6965132
   4.5599067 102.0086861  67.9012012   5.1048422 102.4872684  69.2297316
  12.7579641  70.3192472  53.4884548  13.5778856  70.8056116  53.4023809
  12.8516984  69.8350334  54.3088102  17.9877949  82.8336239  57.0250177
  17.9938591  83.7803173  57.1662664  17.3277473  82.6970863  56.3453674
  56.0085487  16.7040157  45.7162237  56.8920708  16.5549719  46.0529852
  55.5269241  15.9098065  45.9475231  14.2965579 105.7283401  44.3163633
  13.6159074 106.2324333  43.8704586  14.0203464 105.7111359  45.2326822
 112.2246647  64.8908806  14.7400212 112.3111057  64.3497467  13.9552069
 111.9786930  65.7548189  14.4093597  28.6209726  18.7916303  92.2923946
  28.4837484  18.4288907  93.1675053  28.3405995  18.0957103  91.6979885
  55.0051117  24.0312886  56.0750389  54.5563650  23.8465667  56.9001055
  54.9187946  23.2231998  55.5693007  53.2836294   0.5951729  62.6533365
  53.4874487   1.2581080  61.9936371  53.5938883  -0.2259419  62.2715759
  50.0381231 101.9541073  65.6077814  50.9141064 102.0705414  65.2399206
  50.1795340 101.4471531  66.4072990  51.6466093 108.0464649  89.9266052
  51.8483305 107.7118111  89.0527916  50.9715605 107.4551392  90.2595997
 114.2962742  96.2207127  37.9600000 113.4566784  95.9490871  37.5891328
 114.5398903  96.9980240  37.4573469  10.3055072 108.1731892  48.4498596
  10.8951128 108.7073612  48.9820766  10.6192255 107.2770119  48.5710239
  89.0388775 107.4354172  21.9597268  88.6610031 108.2202053  22.3566604
  89.8258781 107.7479553  21.5134358  16.0001230  87.1280766  78.7085676
  16.8188763  86.8528843  78.2960844  15.4232311  87.3433113  77.9756975
 104.8759174  67.9697227  65.9829044 103.9820766  67.9436970  66.3243628
 105.4283714  68.0301666  66.7622471  17.4382579  86.9837379  36.5261006
  17.2000301  86.8377781  37.4416184  17.3375070  86.1262798  36.1127663
  72.3654985  68.7042236  66.3712549  72.0194483  69.2326736  67.0904350
  72.5541496  69.3370152  65.6782770  24.1738701 103.5993958  44.5778656
  24.2977619 103.7128925  43.6355257  23.9203095 104.4671822  44.8923302
  60.1872969   5.8043569  80.2448177  59.9853611   6.4465797  79.5643711
  60.4736519   6.3293231  80.9922409  78.1933641  22.9527068  59.6655035
  77.5049925  23.1012464  60.3138208  78.8430691  23.6320543  59.8460722
  32.8158474  15.3647351  57.3461723  33.2783890  15.4395533  56.5114927
  32.2282743  14.6183419  57.2283316  37.7489924  80.0058174  92.8833675
  38.2008815  79.7825289  92.0696259  36.9330978  79.5064449  92.8490448
  65.3649092  16.8524408  73.1670904  65.2464294  16.4385855  72.3121500
  66.0148096  17.5381505  73.0132484  53.1277323  18.9855564  59.0923166
  53.3562183  18.7154233  59.9817276  52.1923399  18.7966824  59.0174866
  85.9747601 101.3696003  71.6469955  85.7337761 101.3501740  72.5731611
  86.1749840 100.4584885  71.4324474  11.0707271 105.4668331  71.3169193
  10.9102547 105.5439472  72.2574186  11.1680198 106.3701725  71.0156870
  18.5021079  81.4646053  51.5391731  18.9551222  81.6472054  50.7159662
  17.9945982  82.2570896  51.7141724  59.1497993  30.0286317  60.6601095
  59.9123573  29.5851755  61.0317039  59.1977215  29.8423076  59.7224426
  95.6680107  81.6203785  37.1715331  95.3241253  80.7740211  37.4572897
  96.3133240  81.4020348  36.4991283  38.8169742  24.2448306  37.2768545
  39.1666412  23.4554362  37.6901579  38.8541365  24.0603399  36.3383389
  65.7116795  10.0351202  35.3512836  64.9965382   9.6546775  35.8612514
  66.2147141  10.5441904  35.9869194  92.3151779 105.3619480  66.8973970
  92.7567577 105.6186771  66.0878706  92.3828030 104.4072914  66.9147253
   5.0973070 105.8405972  53.1110525   4.6668702 105.8084297  53.9654064
   4.3838251 105.9807110  52.4885225  68.2090616   1.8729405  83.3189392
  67.6663494   1.6210131  84.0660858  69.0262699   2.1820399  83.7099075
   4.0360832  74.5841026  79.3902302   3.6136085  73.9210892  78.8441896
   3.8326275  74.3204594  80.2876282  48.1081438  99.1437912  39.8367190
  47.7247143 100.0208092  39.8300958  47.3638201  98.5580063  39.9748540
  13.8641500 106.8189144  74.2862463  14.2451715 107.3846817  73.6147165
  14.5835876 106.6518974  74.8951387 101.0362434  81.4182854  59.7126961
 101.0194969  82.3743343  59.6688223 101.2756157  81.2242699  60.6189442
  91.1631393  76.6269588  62.0521355  92.0972824  76.7322254  61.8717670
  90.9817696  77.2556353  62.7507782  68.1538582   5.5052632  61.9691706
  67.6732492   5.8179855  61.2027168  67.6086855   5.7593209  62.7137995
  60.2995014  31.6036987  78.6270332  60.9405994  32.2980595  78.7789822
  60.4753590  30.9608102  79.3140554 110.0417233 108.2935524  53.7323093
 109.6442413 107.5453568  53.2868385 110.9835052 108.1703281  53.6135864
  23.6630321  94.2526054  78.0392790  24.3950558  94.0446663  77.4586487
  23.0953932  93.4832096  77.9940224  84.4637108  22.0182395  65.8003807
  84.4979000  22.9718924  65.8752680  83.5915184  21.7841864  66.1177492
  40.1760054   3.2858181  93.3957767  40.6458998   3.3500308  94.2272282
  40.7147264   2.7030790  92.8605938  74.3836832   1.8197760  92.8388786
  74.7763014   2.2204526  92.0632935  75.0703955   1.8627757  93.5043144
   5.0642699  83.0529881  61.1251783   5.4074425  83.0241776  60.2320766
   5.7563376  83.4751129  61.6341877  43.8226128  19.7925973  59.7758627
  44.3938112  20.4550934  59.3871975  43.0953550  20.2916956  60.1476526
 104.9409676  69.2111588  29.4340038 104.9409389  68.3114386  29.7607040
 104.3044758  69.6662140  29.9853921 106.6639233  28.1395650   7.6902163
 106.9638824  28.8017845   7.0675415 105.8762264  27.7726793   7.2887629
  46.9701529 106.4567089  58.9106655  47.0050669 105.6441498  59.4153976
  46.0712385 106.7673683  59.0187502  11.1367226   7.8188205  92.7849007
  11.6395986   8.4263217  93.3273888  10.6702828   7.2669518  93.4126854
  55.2248335  10.5798542  63.4531641  55.7237482  11.3645542  63.6802387
  55.2026606  10.0678456  64.2616129  96.7108631  87.0228004  59.4667006
  97.5187492  87.0201397  59.9800730  96.7860413  87.7947998  58.9058208
  79.0459633  21.6905046   7.2909516  79.6228266  21.7067194   8.0546248
  79.0269470  20.7712960   7.0246249  15.3831056 109.4028051  73.9351273
  14.7509959 109.9547995  74.3955326  15.0274089 109.3179727  73.0505276
  60.6758690   8.5855949  25.1320505  61.5110826   8.4696078  24.6790648
  60.8586931   9.2379946  25.8082032   9.3789977  97.5044250  67.0392323
   9.8408985  97.8263760  67.8133297   8.6235732  97.0327091  67.3900175
  10.8396852 100.9584522  44.7695208  11.7314661 100.9850311  44.4227457
  10.3057575 100.6570244  44.0344715  11.1874735  73.1976604  71.6848850
  11.7396724  73.5123920  70.9691668  11.0042191  72.2848797  71.4624310
  10.3276408  90.7481289  85.4848194   9.4565934  90.8236217  85.0951862
  10.1837564  90.8843517  86.4212894   5.4907000  62.0093918  73.7254429
   6.1297560  61.8603516  74.4223118   4.9561673  62.7374506  74.0423489
  16.7553747  98.1836128  40.6049967  17.4659848  98.6798954  40.1988316
  15.9572506  98.6168289  40.3024054 101.4995575   6.7740315   7.5233150
 101.3596153   7.6312345   7.9256207 101.7762470   6.2120616   8.2471013
  21.7801476 100.8758640  68.4754658  22.3277926 101.3160038  67.8253937
  21.9540834 101.3443470  69.2918587 115.8576298  29.6209216  15.4805934
 115.0766945  30.0022125  15.8818269 115.5236053  28.9068842  14.9376273
  28.0119467  86.4605713  40.3648663  27.1623755  86.4691830  40.8057594
  27.9837537  85.6841850  39.8057103  17.2961903  75.0392437  61.1263132
  17.0980680  75.4539537  60.2866745  16.8342340  74.2014980  61.0945892
 115.8749866  85.0193310  54.5493317 116.7470360  85.3197861  54.2934227
 115.8185959  85.2163315  55.4843426  43.2189178  99.5301437  80.4788494
  42.6533175  99.9991131  79.8653364  43.1458187 100.0226307  81.2963772
 110.1347351 100.7262897  36.9845176 111.0454178 100.9435558  37.1837044
 110.1758862  99.8502922  36.6008854  51.1441803 100.0813961  73.3758450
  50.7931137  99.4884205  74.0401936  51.9301653  99.6407986  73.0528355
  65.3316116   1.6938108  51.0837221  64.9550152   1.0160343  50.5224466
  66.0396147   1.2511371  51.5516996  61.6730976  96.2710190  70.4799128
  62.4836874  95.7930946  70.6553078  61.1773491  95.6959820  69.8969984
  -0.1337757 107.7437115  48.5493898   0.8218346 107.7648926  48.4985018
  -0.3452434 106.8224239  48.7001657  59.2623615   1.3923302  49.6725988
  60.2136517   1.2879479  49.6530151  59.0512180   1.4902091  50.6010771
  90.1919746  45.4124117  38.1052446  90.3019905  44.7166729  37.4571109
  91.0849476  45.6743479  38.3293605 111.6378689  61.2380791  82.3066616
 112.3427677  60.5977106  82.2103786 112.0836067  62.0850849  82.3177242
  10.1351166  64.8172665  32.5712204  10.4022276  65.2088976  33.4027910
   9.5575744  65.4691267  32.1740413   6.4309639  43.1049156  38.7220907
   6.0569829  43.8378906  39.2110896   7.3754269  43.2588863  38.7447810
 113.5575676  78.8189507  65.0508785 112.9228306  79.1668129  65.6772518
 113.4054375  79.3224049  64.2511177 100.4471779  47.7861357  49.3352556
 101.2046528  47.2045469  49.2702770 100.7869053  48.5757494  49.7563505
  97.6681709  82.8362846  32.0724320  97.6587391  82.4093342  31.2157798
  96.8299198  82.5976753  32.4682069   4.9995890  46.6699743  45.8556652
   4.9129155  45.8676147  45.3409386   5.3311116  47.3183966  45.2344751
 115.9974861  51.9618177  64.0870810 115.2206230  51.4211082  64.2296934
 116.3625050  52.0922232  64.9622917 108.3979893  93.5323715  28.1583953
 107.4954891  93.3062935  28.3833861 108.4466076  93.4089565  27.2104311
  10.5295587  39.7666883  43.1432915  10.3194666  38.9352489  42.7180862
  11.3140988  39.5804119  43.6590719  13.2667100  77.0421839  67.4756002
  13.8104486  76.6640615  66.7845106  12.3981059  76.6677332  67.3288107
 101.8927574  19.4965732  90.9060764 101.5465736  19.4417214  90.0153542
 102.3310661  18.6570060  91.0448074  91.5008736  62.6684570  51.1808348
  91.9426060  61.8495703  50.9560442  90.6591511  62.3944044  51.5450191
  42.4549150  68.2323456  59.5528698  42.4374533  67.3729467  59.1317272
  41.6919756  68.6885691  59.1978884 110.0982666  92.6544380  76.7344904
 110.8920765  93.0371952  77.1081209 109.9207687  93.1830311  75.9564734
  97.2870350  50.2898121  54.6474409  97.6222992  49.6404648  54.0292406
  98.0418396  50.8442020  54.8453188  23.2416868  56.5867329  41.2152290
  24.0236950  57.1140957  41.3782835  23.1014180  56.1075068  42.0318651
  12.7848506  35.1284480  34.0847492  13.2140565  34.7679973  34.8606944
  13.4539223  35.6755495  33.6733460  15.6967473  90.5533791  56.6208744
  15.1284158  91.3231182  56.5938425  16.4102209  90.7611370  56.0175323
  92.4326801  93.9631748  39.9791336  91.8187428  93.4062672  40.4578447
  92.1100140  94.8530102  40.1216030  25.2462912  89.0099049  29.3070197
  24.4138813  89.2780590  28.9178920  25.7536006  89.8192692  29.3687010
 107.7328110  44.2382669  70.1406050 108.0020809  44.7860336  69.4032621
 107.4130344  43.4319878  69.7357798  24.1302061  59.5292854  37.7461171
  24.8753428  58.9773035  37.9834199  24.5167089  60.2568865  37.2588348
   3.8551620  83.2162762  74.7518444   3.3408979  83.8109589  75.2978468
   3.2231307  82.8545856  74.1305971  16.3120699  37.4042273   1.9033852
  16.9053209  37.0906496   1.2207770  16.3434792  36.7260003   2.5781095
 115.3605747  81.2939548  36.9796205 114.4632626  81.1854362  37.2947049
 115.3019810  81.1491013  36.0352588  12.5381005  37.9816651  65.8245611
  11.7257535  38.3787775  65.5105114  12.4236429  37.0446825  65.6658363
  95.6629944  87.1852970  39.0596175  95.1190853  87.9218769  38.7806058
  95.7555485  86.6451168  38.2748389 110.3501987  70.7813501  83.8863468
 110.0632763  70.1053619  83.2723904 109.7829914  70.6685019  84.6490860
  10.3437746  46.3348579  57.4040985   9.6135008  45.8506060  57.7893686
  10.1159310  46.4149857  56.4778709  38.4135962  78.2817316  15.9735537
  38.6869431  77.4557590  16.3726544  39.0008998  78.3923769  15.2258480
  91.0179424  56.8829632  53.9226580  91.8628216  56.8537712  53.4737110
  90.7123852  57.7817297  53.7998533  96.8815708  90.2645588  26.5016389
  95.9560776  90.4814339  26.3892055  97.3469925  91.0608673  26.2456799
  14.9279141  93.0348015  44.7733402  14.9092412  93.7513924  44.1390038
  15.8532596  92.7997303  44.8419666 103.3518410  50.0840521  65.7931042
 103.1145954  50.3638983  64.9090052 102.8727913  50.6795073  66.3694525
   4.1479218  87.2603035  19.8785543   3.3339968  87.1977520  20.3783989
   4.1131356  86.5216255  19.2708015 116.4318216  82.9822159  38.9208031
 116.1704117  82.4342632  38.1807756 116.1671163  83.8669491  38.6690021
 114.6526718  66.6180611  49.3220615 114.3280029  65.7243538  49.2120361
 114.5509529  66.7964458  50.2569723  89.5885944  50.5457783  36.4919472
  88.7522316  50.4065895  36.0476995  90.1146126  51.0396576  35.8629656
  87.9978848  76.8020058  86.1728477  87.2528934  76.8176079  85.5720329
  88.3294106  77.6999378  86.1666584  75.5351353  34.4069719  18.7227559
  75.0663614  34.1629815  17.9246628  76.3018179  34.8887539  18.4124053
 103.5469151  88.6762047  14.0114665 103.2296753  87.7884960  14.1774559
 102.8762722  89.2448711  14.3897426   0.4154454  57.7748632  59.6920681
   0.4273759  57.0528746  59.0637207  -0.5066814  58.0243015  59.7528028
 107.5206375  33.4778857  63.3937454 107.3255157  33.2463765  64.3018007
 108.3500290  33.9534378  63.4407377  17.9976761  66.4346647  57.8000116
  17.7960885  66.2973785  58.7256145  18.6983502  65.8101225  57.6122904
  28.5894179  54.6519184  50.4588461  28.4563208  53.7195635  50.6298161
  29.2810845  54.6778297  49.7976637 113.2072926  50.0638437  38.3088350
 113.4752274  50.4882812  37.4937916 112.7994823  49.2442417  38.0292463
   7.2271734 104.4222641  54.0635633   6.6092288 105.0034809  53.6202049
   6.7785645 103.5774231  54.0983868  61.7494631  99.7387123  93.7594604
  62.1102715 100.6062031  93.5764027  61.8760872  99.2501450  92.9461384
   1.8417361  60.6252384  34.9333382   1.3099851  59.8459435  35.0951290
   1.2063958  61.3086748  34.7200608  87.2592449  86.5829945  77.7043533
  86.4578247  86.1477757  77.4135923  87.8516102  86.5194893  76.9551563
  18.2744861  31.5693355  35.5582571  18.4368944  31.0165334  36.3226295
  17.7250767  32.2799659  35.8889937  99.3310547   5.5831295  81.9675732
 100.2064610   5.2110273  81.8606091  99.3248653   6.3495100  81.3941097
 109.3653488 100.9865189  13.5281050 109.4831848 100.3027821  14.1875398
 108.5354614 100.7692623  13.1034756   3.4901902  72.5015068  21.1478424
   4.1997120  73.0963326  20.9049606   3.0581895  72.9325008  21.8853021
  33.1277108  47.1893501   2.1231939  32.9205251  47.7349758   2.8818741
  34.0409136  46.9340420   2.2540094  36.5721035  56.2974215  33.0739188
  36.4562583  55.5653715  32.4681807  37.5083256  56.2975359  33.2732105
  34.1072059  47.0185375  75.3270149  33.3190346  47.5047731  75.5690765
  34.1280007  46.2786150  75.9339046  96.3768959   1.8635161  82.3192596
  95.9971142   1.3107200  81.6363049  96.8273449   2.5596422  81.8409920
 113.6463737 108.9581013  18.6049771 113.0033684 108.6174297  17.9831064
 114.0681839 108.1778717  18.9649165   8.1674534  66.7729187  25.7853723
   7.5722194  67.3850536  25.3526807   8.6598790  67.3137045  26.4028692
 106.9616699  81.7213726  16.4147604 107.4785042  82.4846840  16.6725814
 106.1520004  82.0889282  16.0604084   2.3271656  71.8068981  68.4030724
   1.5212576  71.5052986  67.9838085   2.5675404  72.5971460  67.9193735
  58.6855745  81.7351437  90.0677681  58.3460045  81.2486076  89.3166351
  58.2397842  82.5811958  90.0265026 112.6632500  52.7218342  30.7443571
 112.0431709  53.2828140  30.2784872 112.1222782  52.0273924  31.1202979
  26.6485143  55.2786875  24.1880322  27.1190476  55.7914114  24.8452568
  26.1275458  55.9233522  23.7092543   8.4164679  43.4863377  45.5621433
   8.7760293  43.1345797  44.7477674   7.4677026  43.4243345  45.4515457
  13.6700535  35.6837058  89.9396706  14.3234372  35.3605318  89.3192863
  13.3726108  34.9010849  90.4036331  27.4770021  17.1738291  52.1529055
  27.6870370  16.6125190  52.8992605  26.8629146  17.8188813  52.5036669
  80.1441669  38.5229683  38.0521822  81.0121059  38.4446430  38.4481239
  79.5912504  37.9372239  38.5693145  86.8341637  54.4160032  43.1111240
  86.3450241  55.1431751  43.4960890  86.2709904  53.6530209  43.2412434
  37.0560861  58.1237459  88.4728336  37.6277018  58.8464355  88.7320805
  37.3665643  57.8730440  87.6027775  30.6229067  48.4786177  46.2833118
  31.2483215  48.0500317  46.8676138  29.9646235  48.8519669  46.8694019
  92.7007484  38.0992627  36.8461084  92.5367355  38.9126301  36.3688588
  91.8901730  37.9371190  37.3287106 108.9855099  72.4993706  61.2170744
 108.8017464  72.9319620  62.0509434 109.9392033  72.5245237  61.1392546
 112.5916958  35.5833554  25.1878572 112.1019745  35.9024811  24.4298601
 111.9810581  35.0008869  25.6396079   1.7785414  88.9808559  15.4179084
   0.9686946  88.4785366  15.3281415   1.7992230  89.5423985  14.6430063
  11.5373337  67.5753736  77.4431181  12.3364782  67.0491076  77.4685001
  11.0411084  67.2945642  78.2119751  24.7906399  60.1618624  28.9522934
  23.9442801  59.8865318  28.6000133  24.7186136  61.1129475  29.0327978
  24.8181629  69.7027731  13.6981809  24.4002342  68.8922882  13.9891803
  24.0889931  70.2854347  13.4859395 109.4654369  49.9612570  38.4037900
 109.1391945  50.8604097  38.4402180 110.0677013  49.9549484  37.6598334
  14.0035009  71.1879539  24.0996790  14.4617844  70.8374023  24.8634362
  13.5035944  70.4461575  23.7589979   7.5647628  58.3542871  13.4831393
   8.3600533  57.8220940  13.5059321   7.1219659  58.0888462  12.6770961
   0.8962538  48.1527233  59.4116831   1.1216607  47.2254992  59.4870424
   1.1097138  48.5215378  60.2687979   7.4686855  61.3581181  38.8578939
   8.0691183  60.6360340  39.0431285   6.6427547  61.0925770  39.2623186
   7.1079850  60.4240656  55.2998543   6.4535403  61.0791016  55.0572395
   7.7489716  60.9075212  55.8210468  16.0394561  33.5984492  34.6437883
  16.5094328  34.3047333  35.0870895  15.4593039  33.2387328  35.3148007
  15.1608646  48.4155416  68.5339975  14.4165206  47.8462982  68.7293100
  15.2548862  48.9628506  69.3136406  91.2935066  49.9181032  38.6565137
  90.7848072  50.1210070  37.8714776  90.7730675  50.2725840  39.3774223
   1.9532286  40.3834343  38.1995034   2.5313288  41.1394739  38.3016348
   1.5074262  40.3071117  39.0431070  -0.0858948  57.8691864  24.1116810
   0.7175608  57.9956913  24.6163464   0.2098925  57.7992582  23.2040191
  26.2567520  63.2039356  81.9085026  26.0572696  62.8554344  81.0396099
  25.6269193  62.7760696  82.4885654  89.9164486  52.0391369  62.8526020
  89.5384216  52.6214552  62.1936321  89.7418118  52.4756145  63.6863995
   7.4190861  99.4315910  43.8504124   8.0005014  98.8853741  44.3794107
   6.9835371  98.8163662  43.2604790 110.6979847  44.2077780  46.7957830
 111.1180115  43.5380602  47.3354864 111.3555622  44.8988533  46.7167807
 109.0634251  90.5694008  19.9877799 108.4423161  89.9003315  20.2755308
 109.8336220  90.0758457  19.7059321 112.1318817  95.3415585  22.7452254
 112.2572422  94.5972538  22.1565676 112.6582718  96.0424328  22.3605943
   6.9353670  24.6229720  62.5164890   7.2873807  24.0546417  61.8314171
   7.4518013  25.4261708  62.4501753   8.8574106  62.6285172  44.0668726
   8.1797475  63.1137466  43.5961771   9.6382350  63.1776047  43.9958286
  20.4560876  46.9948149  55.3701925  20.5096364  47.8546381  54.9529743
  20.2720356  47.1859121  56.2898874  60.2055264   7.3991358  85.8020401
  59.7704649   8.1490493  86.2077236  60.6928730   6.9894731  86.5168095
  83.4990501  86.1686611  56.9316959  84.3446350  85.7319832  57.0342922
  82.8862381  85.6227970  57.4243593 113.1256962  74.7840452  75.3356361
 113.0622387  75.0433922  76.2548447 113.2798100  75.6035519  74.8656464
  38.2412863  76.0457945  68.9115047  38.9129901  76.6056681  68.5221624
  37.6348233  76.6558599  69.3313313  96.4038944  71.4074326  51.4263868
  96.8263817  71.8923473  50.7174540  95.7686424  72.0229483  51.7922115
   3.0722174  91.8278122  38.4874463   2.9072672  91.4667416  39.3584538
   4.0163368  91.9843006  38.4679008  22.3820165 109.4147048  38.0924392
  21.4468911 109.3038334  37.9207277  22.4804690 109.2115013  39.0226245
  85.0633907  89.7508621  52.2867632  85.7304573  89.2114544  51.8621588
  84.2636299  89.2274475  52.2351980 102.5582886  67.7412367  42.7668285
 102.8122520  68.5986805  43.1081867 102.6995659  67.1406603  43.4986591
  98.3009052  56.4061356  31.2309742  98.8265800  56.9273424  31.8378019
  97.4902248  56.2285757  31.7079449  97.6198673  85.0443935  45.3101540
  97.3038483  85.8896351  44.9908972  97.1643066  84.3987751  44.7698927
 108.5781384  85.9952545  69.9990177 108.2202244  86.8830204  70.0001335
 107.8905773  85.4593182  70.3943014  82.4068642  86.7198086  40.7399464
  82.5879192  87.6128769  41.0330009  81.8711948  86.3426781  41.4378500
  12.8145421  62.4037886   4.8198739  13.2232499  61.5420866   4.7382635
  11.8772960  62.2194529   4.8816937  97.9484844  77.1039486  69.6935654
  97.9539967  77.7462816  70.4032183  97.2345257  76.5066862  69.9166584
   9.2783046  90.1948357  28.3969212   9.5909697  90.8587933  27.7824068
   8.6313039  89.6942234  27.8999162   7.1745163  67.6210070  79.0898132
   6.8425280  68.2319355  78.4319544   6.4643484  67.5462055  79.7272301
  95.4369259  84.0355206  15.2668107  95.3611374  84.4348526  16.1334264
  95.8413696  84.7133350  14.7253048  18.8292742  80.2021885  64.1216087
  19.6127963  80.2921963  64.6640348  18.4520531  79.3622541  64.3832159
   4.6581683  43.7995863  21.3010502   5.4538637  43.3989000  20.9509778
   4.8864275  44.7215986  21.4194465 113.6569786  37.9020500  52.1949530
 112.7675724  37.6189017  52.4071217 113.5830402  38.2909369  51.3234425
  24.0688562  66.8795443  29.1402721  23.3699775  66.4432144  28.6530209
  24.6763611  67.1844959  28.4663463  19.9662399 100.1693535  61.2155008
  20.0326633 101.0781479  61.5086126  19.4036126  99.7485352  61.8655729
 101.4725208  62.1849394  29.7440505 101.4446831  61.2505960  29.5379972
 102.3374462  62.3190928  30.1315260 101.7365932  94.6483803  46.9498968
 101.2136269  95.1041603  46.2903404 101.0928059  94.1986465  47.4971724
  95.1222897  30.8979177   8.2010514  95.8823299  31.4294815   7.9643738
  94.4748116  31.0904336   7.5228614   6.0458952  70.6001139  80.6725788
   6.2638873  69.7259951  80.9960365   5.1544482  70.5149698  80.3344917
 115.4738522  90.2687550  49.0505123 116.0195351  90.8588600  48.5306787
 114.8913956  90.8498192  49.5397377 103.4809971 106.7315292  42.2056341
 103.1364441 105.8392620  42.2427988 103.0992031 107.1027660  41.4102411
  13.1976616  85.4928780  61.0048532  13.9140570  85.0068378  61.4132404
  13.4699428  85.6001282  60.0934839  99.6987438  99.3388367  68.7133884
  99.7696781  98.3879662  68.7973404 100.1653862  99.6820354  69.4754171
  10.9305871  45.9413338  63.7766457  10.5422473  45.9279299  62.9018641
  11.3482428  45.0847483  63.8664389  24.2751884  30.8280611  67.8636980
  24.2895770  31.2389803  68.7280893  24.6947598  29.9778938  67.9956436
 104.3537617 109.2212963  50.1901770 103.6877251 109.3209267  49.5099497
 103.9007473 108.7745953  50.9053469 105.9660816  80.0586700  54.3455791
 106.3251209  79.7776318  55.1872015 105.9684849  79.2668676  53.8077402
  21.7910337  80.4311371  42.2239113  21.3765383  79.9461365  42.9374933
  22.5130105  80.9009743  42.6413345  10.7252836  78.3789062  49.0218925
  10.4083610  79.1964531  48.6379576  11.6496420  78.3414030  48.7761545
   8.4888506  80.9844398  84.6703434   7.7094203  80.7504082  84.1664028
   9.2041349  80.5217838  84.2338276 109.5933723  73.3115196  84.3161201
 110.1532078  74.0875816  84.2929459 110.0895786  72.6440001  83.8423824
  34.0255022  78.0045366  28.2903028  34.3567753  78.3750629  27.4722576
  33.6712718  77.1510887  28.0405450  54.2319918  18.5644293   8.4907103
  55.1819992  18.4669578   8.4257531  54.0990400  19.0990186   9.2735064
  17.8264403  59.3487167  60.6433105  17.4037564  58.6947775  61.2000227
  18.3104932  58.8356066  59.9962854  19.1890156  56.9035196  35.2422810
  18.7730551  56.1650324  34.7974849  20.0586987  56.5814114  35.4791999
 111.0590649  71.9350863  53.2063341 111.7274284  72.6181698  53.1523275
 110.8162689  71.7650700  52.2961807  28.8986421  88.4565163  69.3688488
  29.1633940  87.6260567  68.9732790  29.7032046  88.9741325  69.4002295
  24.6472073  36.3803363  37.4028277  25.4591560  36.7728782  37.7235794
  24.6761250  35.4775667  37.7196884  27.2694182  98.6764050  51.4468718
  27.5970197  98.0278587  50.8237410  27.9979467  98.8168240  52.0516586
  30.8536506  75.4353285   8.5986358  31.5639567  75.4313946   7.9570127
  31.2900734  75.5798721   9.4382042  91.1886215  77.6172352  64.8067188
  91.2228203  78.4460783  65.2842999  91.9424725  77.1235323  65.1295042
  17.7045441  66.1544132  17.0100558  18.2024229  65.4247284  16.6413939
  18.3161509  66.5836525  17.6083231  27.2006249  41.3998413  58.1791687
  27.2627616  42.1634340  58.7530136  26.4225125  41.5634203  57.6462364
 112.3063183  93.9103222  72.9925966 111.8778706  94.1794205  72.1800375
 113.2383919  93.8880253  72.7758932  70.3716040  67.7787018  47.7882051
  70.1521635  68.4862137  48.3944273  70.5330181  68.2194948  46.9540119
   8.3407855  71.7941380  29.3831778   8.4388924  72.3389292  28.6022758
   9.0455478  72.0797205  29.9645400 105.1084328  77.6236677  27.8288150
 105.3968430  77.7337313  28.7348723 104.6196651  78.4233332  27.6342225
  32.4431038  69.5858717  81.5553093  32.3600578  68.9214611  82.2393417
  33.2143235  69.3193436  81.0548973  95.1100254  73.4469557  37.6510739
  94.6560574  73.4152174  38.4931755  95.9745979  73.0776596  37.8309894
 107.0498085  71.3262320  94.5354271 106.9092369  71.5514231  95.4550743
 107.9061985  70.8988667  94.5216751  34.2071366   1.1844043  19.0921557
  33.8154292   0.8023719  19.8775530  34.9449110   0.6095327  18.8885784
  27.5686669  84.8497963  38.0572319  26.9637036  85.2056503  37.4063754
  27.2895408  83.9414501  38.1722879  14.8636746  64.2576218  27.3646283
  15.1835084  63.7138414  26.6447401  15.3493810  65.0780010  27.2791958
 100.4520988  62.5882912  46.0315084 101.2183380  62.5632048  46.6046429
 100.1416874  63.4921169  46.0860586  20.3499174  89.5826244  44.5665884
  20.3695011  89.8232746  43.6403418  19.8801208  88.7489033  44.5875549
  23.9305830  87.4736404  69.5329475  23.9079833  87.8288174  70.4215240
  24.1425753  86.5476322  69.6504641   3.6710006  75.7843828  40.3779650
   2.9437500  75.2320528  40.6647968   3.2611626  76.6166496  40.1421738
 112.9020882  61.3743353  46.7761803 112.7963638  62.2588539  46.4259195
 112.0121861  61.0238171  46.8141651  43.5304022  92.9363441  37.8054023
  43.6916685  91.9959831  37.8825998  44.3039656  93.2758617  37.3553348
  18.4783959  88.6360073  20.9881592  18.0175674  89.2187977  21.5916729
  19.1474867  88.2137680  21.5269184  28.0429888  62.2351122  74.6817636
  28.2536864  62.6101160  73.8266563  28.3049226  62.9084206  75.3096867
  16.0450816  85.9839153  43.1518936  16.2930357  86.0337925  42.2287130
  15.3700721  86.6546822  43.2551670   2.5177678  65.3057432  68.1840801
   1.8466026  65.3361320  68.8658762   2.2071910  65.9156418  67.5149012
   2.9204059  42.3062849  47.4977493   2.0546511  42.3512125  47.0919371
   3.1888798  43.2203054  47.5911283  15.5319726  91.5583992  19.1529071
  15.0134945  92.2836971  19.5012534  16.3682508  91.6183090  19.6147311
  91.7472363 101.9305706  46.3524294  92.1820736 101.2858677  46.9105577
  90.8257675 101.8855572  46.6075802 103.4147072  68.8839340  51.2439299
 102.6957607  69.4592428  50.9824657 102.9963970  68.2008266  51.7679548
  21.8253160  71.8149900  63.4981394  21.4970446  71.3039637  64.2379522
  21.2375784  72.5688457  63.4481812   9.9653023  58.6387396  60.4736757
   9.1232949  58.9697695  60.7861996  10.5740678  58.8181162  61.1902332
   2.4730623  89.7459507  56.8000460   2.4951881  88.8387775  56.4954567
   2.4664715  89.6779442  57.7548027  67.7822018  20.4701614  48.0183315
  67.6453876  21.2214446  47.4411964  67.2345734  19.7791028  47.6458120
  98.9162445  76.4809847  18.6718822  98.0650520  76.0463524  18.7248170
  99.1298008  76.7006826  19.5787215  12.2895586  57.5005150  45.6597757
  12.5325179  57.8710699  44.8113155  12.8557038  56.7349339  45.7577419
 100.1373768   2.2130871   2.3583360  99.9026585   1.4057763   1.9007453
  99.4359016   2.8259417   2.1379304   8.6015117  72.2786713  10.5543840
   8.9293557  72.1927786   9.6591890   9.3842173  72.4380112  11.0818446
  10.9972239  80.0217056  13.7807453  10.0742555  80.0186634  14.0344214
  11.0500789  79.3920565  13.0617332 104.4778252  88.6449623  31.4123845
 104.4012356  87.8553772  31.9480276 103.7222862  89.1773987  31.6612077
 112.8070927  89.3675423  60.4342699 113.1139946  89.3159676  59.5290756
 111.8984890  89.6600723  60.3628111  15.6006479  88.4509373  45.1822042
  15.9950936  89.1771030  44.6991539  14.8084521  88.2375431  44.6891308
  25.4769325  71.5134048  34.5436502  24.8502207  71.3020134  35.2355886
  26.0572267  72.1651316  34.9370193  23.9291334  34.0863585  46.0699701
  23.6286116  33.4551024  45.4161835  23.1733346  34.2160320  46.6428423
  13.1898582 109.2727757  13.8767374  13.1557584 109.4572735  12.9381049
  12.5766802 108.5483265  14.0008676 110.0043011  66.1521530  11.6679394
 109.8447037  65.3159904  12.1056545 109.3311119  66.1994696  10.9891105
  83.4746075  88.5451508  12.2631812  82.9373264  87.9593945  12.7965140
  83.7997723  87.9917526  11.5530777 100.5223656  88.6425495  51.3892126
 100.2502537  88.8167667  50.4881954 101.4216995  88.3243656  51.3105345
  52.9039049  87.7492714  53.6401796  52.0636129  87.4267864  53.3143759
  53.2883596  88.2111549  52.8951359  14.1473138   1.0193355   7.7315485
  13.3411682   0.7336427   7.3017341  14.8483419   0.6293611   7.2093302
  22.9289794  88.7755585  28.0923080  23.3418012  87.9311848  27.9110837
  22.3478198  88.6039066  28.8332701  17.6839375  68.8184071  19.4112611
  16.8725002  69.3176174  19.3185830  18.1458294  68.9564180  18.5843146
  63.6921883   8.3996445  61.1016417  64.0171003   9.0681970  61.7047215
  62.7842236   8.6508602  60.9321690  12.0441949  66.6848373  49.5573235
  11.9800627  67.0371103  50.4450321  12.9162908  66.2922525  49.5178604
  13.3968925 105.6988239  31.7713284  13.4891534 105.0123882  31.1106324
  12.7648759 106.3108444  31.3942075  95.1943684  73.3912230  54.4856739
  94.2788410  73.4825230  54.7496748  95.2158070  73.7071133  53.5823536
 109.6310139  85.6804562  62.8642130 109.9276638  86.5377331  63.1696653
 108.9152718  85.8761597  62.2595263  32.0548368  74.2212629  91.8436050
  31.8001533  73.7367535  91.0583496  32.9678941  74.4639111  91.6897106
  12.5550628 103.3938026  59.1212177  12.8323686 102.7272415  58.4926987
  12.3270667 104.1512012  58.5821533  38.9346266  94.9556160  41.8792200
  38.4324694  95.3655338  41.1749220  38.6273909  94.0492249  41.8962479
 106.5878296  95.2597141  20.3917122 107.0160198  94.5858288  19.8637283
 105.7537746  95.4167747  19.9490714   5.2791423  89.5236301  72.4269199
   5.7277697  90.0628376  73.0782461   5.4453939  88.6231899  72.7058458
 114.1672611  76.4009380  84.2939281 114.3561840  75.8258057  85.0353813
 114.6567917  76.0202980  83.5647392  16.0076833  47.2778416  60.2866077
  15.0984228  47.5000381  60.0863409  16.0470426  46.3257217  60.1962996
 112.6299667  51.9896126  49.9765873 112.4148750  51.0755205  50.1620770
 112.9119110  52.3451090  50.8194160  97.4312782  81.7116261  47.8054571
  97.7307892  81.7304325  46.8965197  96.8129158  80.9817314  47.8388214
  14.1805220  85.8088779  40.7068491  14.1828287  85.1737309  41.4229631
  13.4944129  85.5001545  40.1150942  12.9305780  60.5402517  65.1686621
  12.0189321  60.4937601  64.8806095  12.8833532  60.8935833  66.0570049
   8.4717649  91.5273571  30.6758881   8.7992066  90.8868980  30.0443673
   8.4271461  91.0472012  31.5027428  11.9555080  81.3862801  46.0701418
  12.7756321  81.4402962  45.5795193  12.1117139  80.7043552  46.7234516
  11.3910115  74.4822502  27.5119448  10.6686306  74.2584515  28.0987239
  11.7564440  73.6375475  27.2489429  11.6887474  59.0901613  62.3486900
  11.3645554  58.4813833  63.0124044  12.3893213  59.5724392  62.7878237
 110.6409836  50.7841349  45.6186581 110.3067017  51.6280699  45.3148985
 111.2205315  50.4892206  44.9162531  99.2403412  92.6148033  41.5749359
  99.0078640  92.3814011  42.4736595  99.3323326  91.7747116  41.1254644
  15.3304851  78.0302477  46.5121746  15.5918777  77.3435163  47.1256065
  15.9105492  77.9128695  45.7598591 102.9106617  81.4224625  36.7263460
 102.9671574  81.8029785  35.8498478 103.0329227  82.1648407  37.3180819
  22.8487778  12.6789987  16.7394269  22.2626996  12.3241568  17.4078810
  22.2699642  13.1461477  16.1369514   6.3492852  62.0525646   8.0131149
   5.6906873  61.4966249   8.4295440   5.9084392  62.4097443   7.2422010
 108.8918304  93.2273293  60.1151180 108.1328678  93.5843849  59.6539021
 109.2374134  92.5575733  59.5250130  25.5866456 100.8382893  42.8577662
  25.3062010 101.7513847  42.7957201  26.4778209 100.8371830  42.5084305
  88.2594776  58.8640165  65.3872728  89.0439510  58.9994907  64.8557901
  88.5910320  58.7417984  66.2768602  97.7104664  79.6229267  18.7093711
  96.7793846  79.8211336  18.8095605  97.9523277  79.1888571  19.5274889
  25.1105070  96.8293381  44.2618179  25.9726787  97.0538330  43.9118290
  24.5258951  97.4985504  43.9059877   2.1355091  87.4573326  22.9688001
   2.6265541  86.6924953  22.6685786   2.0626691  87.3385906  23.9158106
  87.6252937  60.5533838  72.5202227  87.7498531  61.3961315  72.0837688
  88.3230305  59.9980545  72.1723461  35.5735683 104.2934132  53.9947605
  36.1728525 103.8825989  53.3716106  35.5511355 103.6909676  54.7382593
  84.3544769  77.4684668  61.2717056  83.8986301  76.6272736  61.3003445
  84.6987915  77.5845718  62.1572590 107.2741604  62.1808529  42.5252056
 106.6126537  61.5328121  42.2829533 107.9633808  62.0762968  41.8692589
  29.5008683  56.6910791  63.2839298  30.0296569  57.4287271  63.5880518
  30.1250100  55.9713936  63.1904602  14.5118511  78.2516098  32.6225495
  15.1840627  77.7537584  33.0878520  14.9575341  79.0504599  32.3406982
  20.4263186  76.8348932  49.7529888  19.5052648  76.5885115  49.8377752
  20.5406117  77.5525427  50.3760004   7.8591031  69.3200111  30.6190324
   7.4651057  69.2085648  31.4842367   7.9675329  70.2664232  30.5253363
   1.1624485  69.1256762  50.4975319   1.9184035  69.6788502  50.6944180
   0.9466632  68.7091541  51.3319063   8.0837494  17.0690835  83.0825996
   7.4880081  16.6693676  82.4489212   8.3424103  16.3477683  83.6562157
  19.0031624  66.2306213  31.6460872  19.3029535  65.3433132  31.8436742
  18.3703089  66.4288807  32.3363209  93.1938076  69.4643116  68.9207602
  92.7944946  68.7132692  68.4817696  93.9740753  69.6583128  68.4013462
  99.1798782  72.7755308  49.6074104 100.1050472  72.8299618  49.8468828
  98.7310314  73.3097649  50.2626657   4.8198372  68.2699537  55.3140211
   4.9591148  67.3693085  55.0213289   4.0941072  68.2103729  55.9353065
  93.2752609  69.9539757  21.4500237  92.7812290  69.6741533  20.6793976
  92.6485538  69.8940611  22.1710491 108.6695862  66.7517090  15.6455243
 108.3211708  66.8276215  14.7572243 109.1789341  65.9413528  15.6345809
  21.0430694  67.7157021  33.0336833  21.2365460  68.3415747  32.3357725
  20.5321169  67.0291948  32.6048851  17.4820614  58.4961891  78.0255842
  17.7573133  57.8857231  77.3416233  18.1820810  58.4572315  78.6772633
  27.4634600  82.1088982  49.4917011  27.1561360  81.3434696  49.0060043
  28.1227875  82.5051594  48.9220572 110.3494930  73.7533331  35.5583620
 110.3805351  74.0464878  36.4690375 111.0087967  73.0613041  35.5069160
  10.6538761  93.2710457  62.8899813  10.4571116  92.4167347  62.5056982
   9.9307770  93.8320732  62.6096010  96.6961670  84.7861385  63.9744568
  97.5718975  84.4398499  64.1459560  96.1557007  84.4308472  64.6800804
  17.3331428  58.5145044  55.1581430  16.7510808  59.2253017  55.4268503
  16.8348229  57.7167702  55.3357124  24.6060061  85.4131794  23.7339163
  24.2905974  86.2132263  23.3135962  25.5568695  85.4464245  23.6291194
   6.0157323  65.8269930  46.4941072   6.1961555  66.7386866  46.7232180
   6.8585110  65.4831839  46.1978769  20.1932120  63.8408947  25.8535600
  20.7153440  63.3513021  25.2180195  19.3704569  64.0217495  25.3990316
  79.9109364  86.5633106  65.8580971  79.7651768  86.4313316  66.7948818
  80.7165527  86.0814953  65.6708384 109.0700245  88.6310482  30.0084043
 108.8228035  88.6284542  29.0836835 109.2466068  89.5507240  30.2065396
  49.2239428  74.4172096   4.7502553  48.9901209  75.1207972   5.3556705
  48.5931635  74.4973946   4.0347683   3.6943066 103.0579472  84.6760464
   4.1951963 102.5561619  85.3191280   2.9907411 103.4627151  85.1833820
 106.7166901  34.4035769  89.1688538 106.8282223  34.8985147  89.9805355
 105.7689857  34.3063140  89.0759373   6.7861736  76.8445730  71.0072041
   6.5506530  77.3482466  71.7863512   7.4224061  76.2018347  71.3207674
  22.6717806  80.8244228  69.8805380  22.5237036  79.9786329  70.3035593
  22.9141331  80.6033134  68.9813137 100.7967281  70.1481199  68.0505419
 100.2175331  70.8565950  67.7697754 100.3053856  69.6941614  68.7351847
  26.3094425  84.9852467  19.0582883  25.6345105  85.6628227  19.0982199
  26.6602349  84.9438858  19.9479318  17.7959001  71.6169834  64.4773531
  17.8294075  72.2695398  65.1768398  18.1240106  72.0770073  63.7047243
  43.8357973  78.3994007  57.5382757  43.5225105  78.1571674  56.6668367
  44.1180706  77.5727367  57.9296637  85.8429337  74.7901487  42.6429033
  85.1133823  74.1931152  42.4769688  86.0244751  74.6925211  43.5776472
  29.6445942  70.3937912  81.1585712  30.5643916  70.1427555  81.2433338
  29.5239019  71.0847473  81.8099213 105.1170826  83.5991859  35.9688783
 105.4492664  83.4265518  36.8498349 104.7182274  84.4672298  36.0291338
  92.7982521  89.2969608  69.0369606  92.9670906  89.0159512  68.1376505
  93.2166004  90.1554203  69.1021919  17.2906303  83.3370399  36.4450002
  17.4340808  82.4367142  36.1533427  16.3549221  83.3786583  36.6423559
  15.0622904  95.3136921  69.1422176  15.1797795  94.5954895  68.5204268
  15.7356060  95.9504604  68.9026451  32.1042585  85.4906845  86.9758415
  31.4244533  85.7444763  86.3515949  32.7065873  84.9483204  86.4666557
   2.6788870  62.5918102  30.8193254   3.0436134  61.7101145  30.8955741
   2.2137152  62.5870657  29.9827695   3.6753944  73.0915642  17.3345292
   2.8884083  72.9679871  17.8652012   3.3618918  73.0616474  16.4306188
  24.3279696 103.4312439  87.1663570  24.8710418 104.0513134  87.6529980
  24.9538708 102.8974152  86.6769695  18.0960488  70.1339006  59.2500973
  17.6691771  69.5412970  59.8688316  18.8822794  69.6640730  58.9720058
   6.5205199  50.3323746  51.0179186   5.8615172  49.9961281  50.4105616
   7.2909021  49.7861052  50.8619308  22.7848315  63.3364534  76.0751534
  23.6888146  63.2286358  75.7794809  22.2543383  63.0190325  75.3443623
  15.4684353  80.1971722  36.9655013  14.8455310  80.2679920  36.2421703
  15.0434542  79.6103191  37.5909781   2.5507471  58.9891624  55.3704786
   3.2830864  59.6040440  55.4132557   2.9540133  58.1282520  55.4820156
  16.1661196  79.6622229  40.9699392  16.8251836  79.0851212  40.5841637
  15.4172492  79.6006489  40.3769541  17.1071756 105.3799343  43.7643814
  17.1386003 105.6852055  42.8577089  16.1898088 105.4793453  44.0189171
  17.3251903  76.0566235  58.4309006  17.5097096  75.9193373  57.5017405
  16.9042826  76.9155502  58.4671450  13.7409139  85.5165863  64.7713900
  14.0235531  86.1685371  64.1300583  13.3423305  86.0293961  65.4745150
 107.9536629  80.4670525  27.1654677 107.6233101  80.0202942  26.3860416
 108.0710316  79.7691011  27.8099203  94.1227245  45.4799414  32.6816177
  94.7631359  45.3640985  33.3835387  93.2742500  45.3714418  33.1112075
  24.5673943  64.9305296  63.4467173  23.9231014  64.2349100  63.3154345
  24.3765640  65.2719784  64.3203449   6.5949756  95.4603100  30.2233410
   7.5391418  95.6061077  30.2827072   6.2883818  95.5045319  31.1290312
   9.4844848  77.2331095  67.2506857   9.5761198  78.1531906  67.4982309
   8.6367309  76.9716597  67.6101160  12.0296812  97.7029419  21.5307808
  11.1531925  97.9714584  21.2552905  12.4944139  98.5252476  21.6859102
  10.6797612  96.9620323  49.2836332  10.9945476  97.8646088  49.2335939
   9.8566264  96.9680214  48.7951231  44.3603992  39.2551064  27.5007939
  44.9750328  39.9545360  27.7227259  44.2424154  39.3314409  26.5539646
  24.3956041  59.3950605  61.3855743  24.4910026  60.3317928  61.5578175
  25.2742124  59.0373468  61.5133238  13.6324346  65.0583124  29.6486211
  13.4120727  64.3329906  30.2330709  14.0693188  64.6426678  28.9052463
  97.6434517  95.6220341  36.8554997  98.1421471  95.5282021  36.0438752
  96.7337132  95.7044411  36.5694666  14.4233513  76.5734100  85.6911373
  14.5601714  75.7739687  85.1827908  14.9272358  77.2417307  85.2267170
  45.4618835  48.1782770  61.6223764  45.2027845  48.6958265  62.3847723
  45.2216339  47.2800541  61.8497753   9.8677218  81.9023228  40.3972006
  10.3331292  81.1283875  40.7144499   9.7606003  82.4522591  41.1733007
  30.4966974  62.7569723  13.2937479  30.3420186  63.6696196  13.5374272
  29.6839404  62.4811745  12.8699625  67.8601027  10.4628587  82.6001549
  67.2838640   9.7098118  82.7309227  67.4862957  11.1492956  83.1526947
  15.7503283  74.5072412  21.9787788  14.8649967  74.1438341  21.9599199
  16.3176215  73.7673044  21.7622066 110.4567528  99.7945595  68.0946398
 110.7862854  98.9699078  67.7374554 110.7832432 100.4636288  67.4929953
  38.8070488  28.6945319  92.6607227  38.9789701  27.7786851  92.4418545
  39.6004558  29.1579199  92.3923779 109.9084091   9.8057652  19.4578850
 110.6905937   9.5174354  18.9874697 109.6145153   9.0284991  19.9329793
  84.1410065  75.7513380  64.0983391  83.2663918  75.9840155  64.4099951
  84.2282295  74.8202658  64.3026018   3.5990551 101.6747379  30.4700184
   2.7804142 101.7632008  29.9819279   3.3298153 101.6589069  31.3884377
  10.0949490  83.5283756  49.3517351   9.7305429  83.6735058  48.4785891
   9.3917781  83.0954170  49.8358107  96.0675049  84.2781353  47.6733541
  96.5038681  84.7661877  46.9750500  96.4761257  83.4127903  47.6522017
  40.0204945   4.0301865  30.1390004  40.2394915   3.9663154  29.2093801
  39.0653181   3.9734840  30.1644969  18.9304340  72.1458769  41.6481066
  19.2920661  71.9245338  40.7899332  19.4099712  72.9301071  41.9150543
  57.8484678   8.4416091  46.6685438  58.3616972   8.0833566  47.3927593
  57.0120287   7.9785991  46.7156982   9.4384491  64.4181061  23.5081601
   8.6829442  64.3786621  24.0945792   9.9138874  63.6042547  23.6749911
  14.3636906  80.1503563  75.8396673  13.5110712  79.7363806  75.7058859
  14.7511184  79.6698046  76.5712404  95.2662086  67.9501867  37.2854972
  95.2967167  67.0355797  37.5662136  94.5363712  67.9867458  36.6672397
  12.1397889  66.7673826  27.9661632  12.7603209  66.7948627  27.2378659
  12.6489687  66.4274263  28.7019634  77.5680161   2.8860977  27.8116012
  76.7507410   2.7035055  27.3479700  77.9008818   3.6858442  27.4043679
  33.1385422  72.4914932  67.3930311  33.1233072  72.1645975  68.2925558
  33.3952665  71.7339659  66.8672180  54.9001360   4.0483734  76.6144562
  55.4303932   4.1689336  75.8267260  55.4895306   4.2682728  77.3359013
  11.8851268  75.3218412  49.7881603  12.6223922  75.8759022  50.0444651
  11.6623831  74.8368692  50.5827808  95.2517605  89.6346283  19.1155374
  95.7091236  88.8849068  18.7347949  95.2955341  89.4873238  20.0603199
  14.6830630  69.6174812  37.1183801  15.0735629  70.1671696  37.7977800
  13.8350892  69.3577051  37.4785042 103.2969189  93.8185501  11.4246380
 103.6407375  94.4532490  10.7960105 102.5396156  94.2545319  11.8153346
 115.6141090  87.0683765  34.8105431 115.1627254  86.7055702  34.0483999
 114.9658585  87.6386452  35.2238202  11.0424149  84.1739368  59.9412775
  11.3193345  83.6899376  59.1632748  11.8279135  84.6420193  60.2243519
  20.4309750  86.5175533  37.7926850  20.1370239  86.3533115  38.6887026
  19.8045862  86.0447598  37.2446585   3.9553753 102.9844570  52.8620243
   3.3623618 103.1987858  53.5821867   3.3770403 102.8076744  52.1200609
  82.9659843  47.2396612  13.3401692  82.9809189  48.1918240  13.2432473
  83.6884785  46.9318438  12.7929151  32.1373892  94.8366642  44.6525240
  32.2797012  94.2094803  43.9435625  32.7758884  95.5309868  44.4898415
  59.3003035   6.7367578  39.5117879  59.2336369   6.1943585  40.2976561
  60.1447725   6.5000182  39.1283035  22.3237014  83.7316704  74.9586058
  22.5390363  82.9963493  74.3848753  21.4019227  83.6002827  75.1806259
  40.3509712  84.1684628  12.2651172  40.0885201  85.0258636  12.6000917
  39.5887136  83.6092186  12.4149275   2.5880060  85.9761524  50.4411030
   2.3188369  85.0745773  50.2651834   1.9186968  86.3141727  51.0360813
   7.0763290  67.8856325  39.3157125   7.1179008  68.8369989  39.2187333
   6.1792535  67.6588678  39.0706277 105.5375385  67.2058058  42.4399996
 104.6922874  67.3089123  42.0027924 105.4265404  67.6458931  43.2827520
  49.9353313  90.1286507  65.1714516  49.9545145  91.0758305  65.0346708
  50.8126259  89.8336029  64.9274588  97.7680588  58.5947371  41.4217806
  97.5987434  57.6727009  41.2283516  97.3469734  58.7430859  42.2684813
  15.0355268  54.6194029  50.8969879  14.6243370  53.9887047  51.4880705
  15.5681658  55.1718426  51.4691210  31.4704561 100.7747936  52.2111607
  30.7383394 100.2229214  51.9360733  31.0586905 101.5107632  52.6639652
 114.7594261  64.0695143  51.7163372 115.0862980  64.0966940  50.8170891
 113.8527966  64.3694305  51.6507959  17.7577150 106.0227203  41.0327101
  16.8523407 105.7120323  41.0329866  17.7629519 106.7448044  40.4043770
   2.8086931  82.7793694  54.6937037   3.3118528  83.1406403  53.9639473
   2.9617152  83.3893299  55.4153395  50.2702475   2.5409958  76.9514942
  51.1469507   2.8268698  77.2082090  50.0352478   3.1146580  76.2221670
  58.5678101   1.8438351  55.7602835  58.1220245   1.2513366  55.1549339
  59.4312716   1.4508766  55.8877563  90.7424545  97.6925945   5.8134377
  91.6356087  97.6441479   5.4725957  90.7900047  97.2696018   6.6707879
  38.9063120  85.6991959  58.7705135  39.0109348  85.3385448  59.6509743
  39.4381213  86.4950562  58.7729311  33.6230755  99.8635960  27.6280141
  34.3864870  99.9974823  28.1897163  33.6296558 100.6128216  27.0323277
  38.3775616 101.8191528  47.4814749  38.0681229 102.3237133  48.2337332
  39.3288565 101.9240570  47.4976540   8.2894325  89.4472313  46.7056751
   7.9793471  88.6427116  47.1214008   8.7034678  89.9390602  47.4148369
  43.5491180  98.0391121  48.9178610  44.1377735  98.3194351  48.2170486
  43.9568806  98.3679104  49.7190189  33.0884457  97.2439003  52.7528954
  32.6317763  97.4395180  53.5710764  32.3999357  96.9413757  52.1607256
  11.6368258  67.0968342  63.7466478  11.4112484  66.6387081  62.9370403
  10.7944262  67.3698330  64.1100597   8.0945450  63.3493185  34.3980193
   7.8011197  62.5892973  33.8955235   8.5171360  63.9150620  33.7518144
  25.1664376  98.0080700  31.6864300  25.7967734  98.3533859  31.0542369
  25.5451608  98.2164001  32.5404787  46.4422321   9.4544989  70.1663637
  45.9535074  10.1894522  69.7959280  45.7723045   8.8056016  70.3816843
  56.4056110  72.8394556   6.1845428  55.9227610  73.6376524   6.3989556
  55.7297039  72.2126007   5.9267849  75.6087971   2.0907433  65.3204679
  75.6122160   1.9401336  66.2657404  76.5263653   2.2513083  65.1002026
  94.3925285  72.7768850  66.5863037  93.7837601  73.5053730  66.7084646
  95.1701832  73.0284929  67.0844841  49.9829960   7.8412521  61.9178724
  49.3773317   7.1913391  62.2742653  50.5384684   8.0827898  62.6590443
   9.0099597 106.2419891  55.6286812   9.9117285 106.3948154  55.3463888
   8.6997163 105.5326843  55.0657701  52.2894382   1.3440017  69.9876022
  52.6780796   2.1364810  70.3579617  52.4226618   1.4305060  69.0436745
 100.2720642 104.0723419  40.0322247  99.9665737 104.9374485  39.7592688
 101.1347771 104.2326546  40.4146671  17.6986361  86.6619110  62.6990080
  18.1501031  85.8639908  62.9742050  17.2686207  86.9797421  63.4929228
  19.5049560  52.9989004  40.3860474  20.4198384  53.1517553  40.6223869
  19.1440690  53.8744545  40.2467489  21.2577939 100.1545429  74.8773241
  21.6995382  99.4614029  74.3867588  20.3535247  99.8513794  74.9587297
  54.0918303   5.8393520  38.2156372  53.3532286   5.2397460  38.1099391
  54.5363903   5.8234960  37.3680830  51.8841648  90.0072384  54.7338200
  52.6845074  90.4888344  54.5246506  52.0557404  89.1151047  54.4323397
  75.7992220   4.7684363  82.1723366  76.3443232   4.0725830  82.5395966
  75.3523588   4.3573117  81.4323902  21.9288588  91.8083382  78.3220291
  21.5102339  91.4225674  79.0915489  22.7739096  91.3629913  78.2605553
  38.1475091  98.0834484  91.8454456  37.7803540  98.5164165  92.6161385
  37.9709697  97.1532917  91.9864178  31.3627553  83.8449669  49.1116047
  31.5529370  82.9617882  49.4279242  30.6186366  83.7324619  48.5201120
   6.2980527  83.3028984  40.6974077   6.1369270  84.2388248  40.5777264
   5.5408764  82.9909611  41.1929941   9.9516875  88.0586243  38.4723830
  10.3187919  87.4775600  39.1385889  10.7153094  88.4590340  38.0567026
   2.3047391  69.9164248  21.5057302   2.8180918  70.6873035  21.2639785
   2.4246396  69.3099880  20.7749152  36.2375998  93.1017971  29.8307467
  35.9398055  93.7003994  30.5157471  36.5026021  93.6743641  29.1109109
  70.4611444  86.3182259  58.5725069  70.4895878  86.2794590  57.6165152
  71.3771582  86.2520218  58.8422585 100.6170273  81.0214233  43.8012934
 101.0297871  80.7096195  44.6066761  99.7093105  81.1964226  44.0495825
  98.1805229  31.2332463  10.7487285  97.6868057  30.4955316  10.3906095
  98.4372139  30.9467363  11.6252291   0.5485941  73.4868765  77.1842241
   1.2726969  73.2000303  77.7406645   0.0591770  74.1045666  77.7275133
   3.9279571 103.4774017   4.3923962   4.5969367 103.1660271   5.0021040
   3.5385907 104.2343616   4.8301697  29.5455790  89.4695377  32.9568553
  28.9539933  89.5353317  32.2072363  29.3728948  90.2599812  33.4683394
  20.0670147  73.0738640  29.7385907  20.2685881  72.1382380  29.7242212
  20.8680606  73.4962368  29.4285011   2.4397524  93.5260105  72.3299932
   3.0959377  94.0411282  71.8606186   2.6506144  92.6172161  72.1158552
  46.0300112   7.6001573  22.6318693  45.1594019   7.9503757  22.4431443
  46.2323332   7.0433426  21.8800330  96.4583492   4.3050867  60.1319885
  95.6645012   4.3790308  59.6023130  96.3322926   4.9349159  60.8416748
 114.4591522  85.1257896  59.9792051 115.0465298  85.2725887  60.7206011
 113.5805130  85.1858902  60.3541899  16.5681875  73.6784458  49.3158531
  15.9478080  74.1398001  48.7514782  16.8976223  72.9615211  48.7738895
  43.4459925  14.4348049  82.2608566  43.9094162  14.0375650  82.9981995
  42.5394392  14.5081329  82.5592136  38.2522511 104.2367363  63.9561510
  37.3441887 104.4090271  64.2050886  38.7499094 104.9491310  64.3574762
  32.3626876  86.2943745  48.6747217  31.5303349  86.6705322  48.3884954
  32.1841288  85.3582954  48.7647629  85.6945896  55.4640150  94.3713379
  84.9089050  54.9197435  94.3193817  86.3065529  55.0605965  93.7557220
  46.4849472  96.3905334  56.0483217  47.0108557  95.7693386  56.5520811
  46.2541914  95.9163952  55.2494621  57.6315355   4.0757936  38.6345577
  57.7628279   4.9195868  39.0669990  57.1325541   3.5579640  39.2663002
   0.5158839  83.5954475  25.6455779  -0.3118088  83.1146622  25.6431365
   0.3201487  84.4068813  26.1140728  28.2073307 102.9982185  45.1293755
  28.8073206 103.2066536  45.8454752  27.9562926 103.8498402  44.7716761
   2.8354174 105.5773544  44.5690823   3.0342802 106.2057018  43.8749170
   3.4355256 104.8484802  44.4114971  87.7025414  35.0885153  78.0750608
  86.8392849  34.6750236  78.0694866  87.9895782  35.0314307  78.9864254
   9.9687886  88.9909935  34.9498034  10.3811789  89.8495960  35.0445247
   9.8101139  88.7010860  35.8481383 100.0866890 101.7393875  41.6506004
 100.1011848 100.9119320  41.1696291 100.3827572 102.3910618  41.0150671
  41.3979912 108.3467674  28.4901333  41.6122198 107.5989151  29.0478659
  42.2280884 108.8111877  28.3829713  33.4336400   2.1571974  33.0636287
  33.5231590   1.2765869  33.4279680  32.9106688   2.0364666  32.2710633
  13.0155754 104.3693447  17.8250837  13.4424698 104.4762707  16.9750488
  12.2963035 105.0007915  17.8130031  50.3870583  87.7391720  52.3654318
  49.6178532  88.2972050  52.2507381  50.6947231  87.5694275  51.4750576
 104.5448971  82.4189472  14.7585380 105.0684547  81.6415596  14.5641613
 103.6984539  82.0730209  15.0415766  84.3208408   2.4765092  27.1863055
  84.6744633   2.2847986  28.0548835  83.4318352   2.7895457  27.3533869
 108.8206959  87.8134537  20.8117843 108.3607483  88.1485558  20.0421190
 108.7090397  86.8640423  20.7630253  49.5447016  95.4678440  48.9546156
  49.3145323  95.1718426  48.0739117  50.4926920  95.5966949  48.9238644
   0.5186729   8.4550148   7.9774547   0.9307824   9.1742784   8.4560537
   1.0851109   8.3168572   7.2183156   6.1523384 103.3118248  30.8757496
   5.6832856 102.4901676  31.0210037   6.4102393 103.2807541  29.9544716
   1.2304841 107.6737213  45.7257795   1.7520867 107.3119354  46.4422131
   0.6351624 106.9651318  45.4813910  27.3461533  83.3409309  59.1101503
  27.4077129  84.2644119  59.3543339  26.7926168  83.3360481  58.3292532
  17.2366285  76.5750694  50.5497503  16.4872324  76.1242485  50.9388494
  17.4611104  77.2569370  51.1829185  94.7635651  40.3557444  15.6695867
  94.9415016  39.6701860  16.3134646  94.4766808  39.8822951  14.8887074
  49.4054413  37.7053738  30.2395582  50.1198959  37.9109716  30.8424854
  48.8148499  37.1500421  30.7485151  25.7799053 101.7888260  49.6805859
  25.8743691 101.7930126  48.7280655  25.5567431 100.8830738  49.8951578
  29.4972658  99.5278454  62.5418806  28.8442326  98.8281155  62.5290918
  30.2624822  99.1336823  62.9605865   3.8269132  90.9198284  42.1581745
   4.3634632  91.4023685  42.7870655   4.4517705  90.5944824  41.5101528
  77.2475958   7.2476721  60.4891586  76.5481997   6.9772297  61.0840845
  77.4426413   8.1497145  60.7431412  96.7034626  94.5596313  19.7401214
  96.3346195  94.9918556  20.5104232  96.1177921  93.8203144  19.5768988
  19.9276972 104.8399639  39.9871111  19.6165311 104.1443253  39.4078970
  19.1563392 105.0917816  40.4948807  49.1622639  34.5535803  37.4232674
  48.5074806  34.5592332  36.7250872  48.9181519  35.2880120  37.9865217
  88.7302017  34.6807075  40.8327150  89.3815708  34.6138144  40.1345205
  87.8938389  34.7571301  40.3734827  31.5343404   2.9140237  31.1518002
  30.9635282   3.1311411  30.4147339  31.0161066   2.3131745  31.6871929
 115.7274151  58.3846903  89.4509983 116.5781307  58.6687565  89.1166019
 115.0916100  58.9107227  88.9659500   8.8992661  93.1345940  68.8368559
   9.6628910  93.3107376  69.3864775   8.5298115  92.3261833  69.1921186
  99.3066692  94.3227100  54.4570541  98.3878231  94.0610123  54.3982220
  99.5009708  94.3058872  55.3941774  61.6956806   4.1620854  41.1938715
  61.6430187   4.6443754  40.3687334  62.4512291   4.5396814  41.6442013
  37.4361444  84.0952110  30.6572580  37.0000696  84.2932987  29.8285031
  37.6853776  83.1740570  30.5825782  52.3398685  15.4117846  44.0413332
  51.4057446  15.3215539  44.2297506  52.5147438  14.7483826  43.3738422
  34.7301602  95.6531429  41.6896486  34.7704124  95.7024860  42.6447296
  35.1078534  94.7995090  41.4777851  26.1623764  55.5876160  60.7581615
  25.4063892  55.6230164  60.1721048  25.8020067  55.2994728  61.5968132
  47.2444725  96.4253330  63.6869478  48.0735111  96.0919285  64.0301228
  47.4981928  97.0027542  62.9669189  30.0489068  86.0551453  27.1188641
  29.7301841  86.7129040  27.7369356  30.0786972  85.2441216  27.6263905
  35.3643656  92.5779057  44.0930414  35.9260368  93.2781601  44.4253111
  35.4785824  91.8622017  44.7183084 116.2166868  45.4876423  47.3125553
 117.0056443  45.9773540  47.0802593 115.7479720  46.0618973  47.9181719
  31.2349701  98.4522533  91.4255238  31.1992359  98.6416054  92.3631287
  30.4890418  98.9255524  91.0569954  50.8064413  92.2504044  46.5310001
  50.5209255  91.3748550  46.2699842  50.9397650  92.1868420  47.4767351
   6.5098345  83.1142521  31.3790751   7.2025836  83.6902428  31.0557175
   6.3225275  82.5293350  30.6448936  29.7822387   1.8217267  68.8873768
  28.9224537   1.4122285  68.7909508  30.1511200   1.8150509  68.0041313
  29.4666004 101.2875175  76.0130310  29.4422913 101.5233517  75.0856590
  28.7205696 100.6993484  76.1302280  56.4805508  17.8292787  69.3641710
  56.0274696  18.3581114  70.0208950  55.8102036  17.2307694  69.0345478
   8.2933593  69.3401194  18.6551774   8.7822348  70.0003433  18.1639218
   8.0571127  68.6816692  18.0018306  13.2921457 102.3457050  43.8870955
  12.7085412 102.8431320  43.3142090  13.2955551 102.8357697  44.7093248
  19.1277957  73.6824083  33.7666869  18.7364030  74.1021013  34.5327806
  18.3807254  73.4292364  33.2244492  61.0399151   4.7815329  47.6178408
  61.5238619   5.5857450  47.4300385  61.5437555   4.3551531  48.3110809
  14.7036529  80.0662994  61.9105387  14.5618832  80.6752396  61.1857510
  15.5810905  79.7146988  61.7598248  89.4353580   3.2289645  30.1702118
  89.0579319   3.5953420  30.9699297  90.3802586   3.2444748  30.3223729
  10.5021417  94.0101719  18.9922476   9.6600413  93.8554478  19.4202209
  10.5650234  93.3208561  18.3310914  43.0038357  81.3896179  24.0238929
  42.5079679  81.0313034  24.7600722  42.6216936  80.9721947  23.2519078
  83.1743717  11.5179348  18.2940936  83.3831310  11.4422858  17.3630035
  83.6990261  10.8358943  18.7133694   3.9324000  92.1667767  56.6903448
   3.3090010  91.4409447  56.6625834   4.6821377  91.8202114  57.1740961
 102.5690746  74.2125893  36.1167979 102.8969383  74.2042494  35.2175379
 102.1631050  75.0737667  36.2157393  15.7639921  95.8706665  39.6952796
  16.2587440  95.6746483  38.8996506  16.1792028  96.6578388  40.0476837
  11.1626685  75.8114481  54.4280195  10.3346837  75.7722807  54.9067020
  11.7266130  76.3635063  54.9697113  41.6194201  85.2469254  75.5147600
  42.5744009  85.2603531  75.4510117  41.3349581  86.0089779  75.0101852
  38.2721710  86.9329548  35.8251929  38.1441522  86.2916756  35.1261902
  37.3926234  87.0933628  36.1671019  16.3419890  65.3380871  32.7775002
  16.3987494  65.7754612  33.6270380  15.8727121  64.5236397  32.9582977
 109.3284130  87.2176170  44.9009800 109.3838215  86.3643837  45.3312635
 108.6267662  87.1164036  44.2578030  83.4284401  83.6705399  54.6476078
  83.6006355  83.4213638  53.7395906  82.8146648  84.4021988  54.5829153
 106.9910145  62.7245808  32.9308939 106.1144161  63.0070353  33.1917119
 106.8694782  61.8303537  32.6118064  23.7414575  83.2148266  26.8097901
  22.8347492  83.5156631  26.7497087  24.2388940  83.8488579  26.2932682
 110.8622169  94.3325615  48.8870144 111.6757679  94.4068336  48.3881712
 110.1925182  94.1516590  48.2274580  17.5511837  91.5886116  51.3308764
  18.1320226  91.9058228  50.6393290  16.6964424  91.5081501  50.9075832
  16.3605452 106.1016655  53.9084196  15.9868872 105.4293251  53.3387089
  15.8265829 106.8788624  53.7438536  76.5729809   8.3634192  18.1112576
  75.9728146   9.1089332  18.0958188  76.2607622   7.7900517  17.4112582
  24.2158103  93.0494881  26.4103603  24.8371434  93.6905861  26.7555642
  24.7607207  92.4129105  25.9476757  46.1811495  93.1782627  36.8887115
  47.0525503  92.8036404  37.0173383  46.2720442  93.7365437  36.1165118
 102.5733185  73.8721228  84.9349403 102.4408150  73.5562754  85.8287621
 103.4797955  73.6417055  84.7313976  21.5581012 106.7613411  43.9107704
  21.4244223 107.6190567  43.5074329  22.3202610 106.8794250  44.4776917
  36.1914515  93.5432243  39.6930718  36.0372496  93.9460087  38.8385439
  37.1036363  93.2549286  39.6608639  11.7655885  93.4836388  51.9829321
  10.9413540  93.1219292  51.6573000  12.0848393  92.8299427  52.6050186
 115.1587281  70.2802277  57.7125502 114.4091459  70.8690643  57.6252031
 114.7744994  69.4036198  57.7250576  52.9287529 102.8872585  81.3058567
  52.8173685 103.8017654  81.5656471  52.3014116 102.7624512  80.5937481
  37.9398537  18.8155389  48.1647730  38.0174279  18.1102800  48.8072872
  37.0104837  19.0445685  48.1715584 115.4227257  50.3905678  75.2643108
 115.8824635  50.6998491  76.0448313 115.2497101  49.4654942  75.4390526
  18.6106277  71.0995150  36.5365481  18.2780707  70.2023172  36.5105557
  18.2959759  71.4952183  35.7237482   2.9689175  98.6312485  85.0436687
   3.6050880  98.3239937  85.6895161   3.4995890  98.8992977  84.2934895
  56.0997581 103.7234116  87.6629257  56.8201017 103.8028908  87.0376015
  56.3924837 103.0543518  88.2817173  47.4533463   6.0326058  39.8474693
  47.3975658   5.6942916  38.9537883  48.0801010   6.7539340  39.7918153
   9.1716939  72.5398684  33.4181476   9.7982955  73.1647635  33.7829852
   8.3300710  72.7971125  33.7946129  74.2666769  11.9487667  49.3792534
  74.3848228  11.0266006  49.1514730  74.2009592  12.3972070  48.5361528
  64.7670794  84.6290207   7.8564668  64.8500443  85.2773857   7.1572000
  64.0904093  84.0273190   7.5461417  45.4914522  81.0389519  78.1552410
  44.7988558  81.5043259  77.6862431  45.0781727  80.7518387  78.9694881
  16.7568934 101.5976429  31.4301443  17.0095706 102.0648384  30.6338310
  16.0712743 102.1406746  31.8190885  13.9650905  79.1185665  39.2882991
  13.8468719  78.1704950  39.2298770  13.1107128  79.4813299  39.0544701
  26.6771722  99.6144485  34.6924376  27.5832868  99.3301201  34.8122168
  26.6325450 100.4636669  35.1318383  37.1322298  78.6161184  28.1289172
  36.2246227  78.7524986  27.8571010  37.6221800  79.3070507  27.6830506
  79.0264273  12.2508359  13.1573975  78.0713844  12.1917748  13.1321824
  79.2225409  13.1153965  12.7964187  31.9345212  85.4993057  59.4302607
  31.0596418  85.6371498  59.0671968  32.3969460  84.9993706  58.7576103
  74.1193342  18.2695997  49.8972130  73.6250591  18.6589444  49.1758680
  75.0177336  18.5710263  49.7621298   8.1481320 104.2449379  40.8041525
   8.5377246 104.0807247  39.9453855   7.3350477 103.7398624  40.7988310
   3.8955522  83.2467270  68.8243723   3.5041362  83.1874466  69.6958685
   4.8169863  83.4471321  68.9887810  71.0252810   1.6971895  51.8091440
  71.3794899   0.8541299  52.0920134  71.6668510   2.0277040  51.1803532
 110.3189850  98.4842587  87.9138470 110.4922009  98.4037876  86.9758987
 109.3960381  98.2486343  88.0080509  28.1223392   4.0683100  61.0923290
  28.5590363   3.3249024  61.5081120  28.7676167   4.7745144  61.1258745
  66.4028740   3.1422055  22.0287466  66.4858532   4.0954757  22.0536900
  66.3894272   2.9272810  21.0960841 111.1706638 100.2789783  61.1491919
 110.2892113 100.2658176  61.5221548 111.1612797 101.0158443  60.5383158
   7.7060527 105.5358982  83.2763100   7.3024684 104.6946239  83.4898567
   8.6325490 105.4170132  83.4853554  58.7733507   9.1664279  51.6565132
  58.2018471   8.4426993  51.3999319  59.6550989   8.8640219  51.4390373
 115.2784920  61.3228464  47.8462362 114.3260002  61.2826729  47.7604151
 115.5825806  61.6380262  46.9951057 116.4493275  79.4373465  45.7341909
 116.7263126  80.1337814  46.3295794 115.4937267  79.4409657  45.7894611
  31.6213775  99.9600029  60.7931662  31.4939690  99.0468407  60.5360079
  30.9664178 100.1104927  61.4747906  22.0438671  83.6030388  71.8542242
  21.6012216  84.4480801  71.7755318  21.4308047  82.9750252  71.4721346
  63.5013676  11.0671592  29.4363499  63.4177303  10.2469540  28.9500380
  62.6141119  11.2559974  29.7418785  10.5736673  96.1445427  25.5336475
   9.7730970  96.6322899  25.3402114  10.4362488  95.7987022  26.4155459
  20.2305675  67.1850014  62.7165937  20.5141687  68.0014515  62.3052359
  20.9300113  66.9725990  63.3345699  39.0596652  11.9123161  62.8354836
  38.5301018  12.2248304  62.1019077  39.8454309  11.5498197  62.4263382
  43.4283209  24.9970365  69.6498680  42.6689768  25.0621367  70.2290010
  43.8613653  24.1849875  69.9130774  94.6931362   5.7104582  46.6920948
  95.6394863   5.7618815  46.8262863  94.5016479   4.7726083  46.6934347
  32.2283506 101.5642357  19.1865504  33.0925727 101.2299156  19.4265091
  31.6789985 100.7830811  19.1213262   7.8367746  97.0004749  40.5288315
   8.7158656  96.6797829  40.7303047   7.7609420  96.9106865  39.5788765
  32.1251273  76.0339260  77.8468180  31.6635489  75.1954365  77.8361273
  32.2426438  76.2308073  78.7761497  91.3661385  25.2103877  63.1602812
  92.1322536  25.7636356  63.0079269  91.0882187  24.9398470  62.2851801
  37.7891922 105.6037045  16.9388437  36.9936514 105.0780582  17.0228076
  37.5112534 106.3838387  16.4588833 105.5419922  92.9776573  29.5431352
 105.7217121  92.2564316  30.1462626 105.5492592  92.5722504  28.6760592
  46.4014053  95.3421307  35.0827432  46.0665894  96.2005615  35.3420329
  45.6731462  94.9319077  34.6162820 104.1262531  81.5395927  45.0243950
 103.4299374  81.8181515  45.6191826 103.7510395  80.8003616  44.5458794
 110.7766151  83.4051609  32.9999256 110.5463123  84.1384029  33.5704923
 109.9713707  83.2136917  32.5191474  37.0985484  86.9561100  67.8495121
  37.6408863  87.6112270  68.2887459  36.2852287  87.4171638  67.6441383
  20.7110023  49.6148396  76.0959911  21.5331793  49.4699287  75.6277466
  20.7899070  49.0838432  76.8884850 115.0785732  76.4013958   1.7272569
 115.5201626  75.7936621   2.3204577 114.8736286  77.1613693   2.2719312
  48.9663839  20.8003545  23.0739617  48.2966137  20.1183462  23.1239939
  49.2355633  20.9387803  23.9820457  99.6533680  16.2301409  94.0218258
  98.8138962  16.2600088  93.5628796  99.9308300  17.1447933  94.0733719
  25.8957791 109.3185711  55.6971979  25.3438139 110.0863361  55.5485439
  25.5279875 108.9069653  56.4792109  98.1057453  29.4818616  57.3862934
  97.8552532  30.1349759  56.7329025  98.1418800  28.6581874  56.8999958
  77.9502916  20.4395533  46.5686369  78.2746458  21.1732006  46.0463476
  78.7225628  19.8954713  46.7229319  32.0157433  92.8887844  14.5965207
  31.3162518  92.3350048  14.2497265  31.7324662  93.1041241  15.4851246
 112.3237133 106.2382221  41.2792635 112.8276157 105.7218170  41.9082642
 111.9897079 106.9766426  41.7885923  51.0528421 105.8330536  51.9152975
  51.1309910 106.2412739  51.0530424  51.1236238 106.5613461  52.5323915
   7.2387892  87.5356007  48.3533096   7.5235558  86.8861485  48.9962292
   6.3087022  87.3511505  48.2223558  55.3195477   2.4735272  39.5190907
  54.9830151   2.2365659  40.3832817  54.5417261   2.7193752  39.0183091
   5.5856061 100.5908298  52.8242588   5.1402748 101.3725471  52.4974155
   5.2956778  99.8888206  52.2417164  55.9285927 106.2353325  32.7248716
  56.6202545 106.4134598  32.0876074  55.2120686 106.8162918  32.4693370
   2.6761413 104.4888878  47.4457121   3.5388479 104.2253494  47.7658939
   2.8591672 105.0008011  46.6578817  21.3138485  89.0457439  58.0099058
  20.9012675  89.0934944  58.8723040  21.2094641  89.9246693  57.6454592
  66.5956497  27.0725965  83.6759567  67.4595118  26.8525863  84.0246296
  66.0498238  27.2009301  84.4517422  95.3080845  33.2542992  61.2759542
  94.7515392  32.8077650  60.6379128  96.0935497  33.4924626  60.7834530
  63.0943918   2.4891223  44.9436855  62.2520685   2.5188383  44.4899893
  63.5817957   1.7958385  44.4986868 100.5966377   1.2341254  76.6303778
 101.2744141   0.5602881  76.5775061  99.9093628   0.8408672  77.1681786
  61.8728256  89.7101498  52.0924282  61.8199873  88.9270020  52.6402569
  62.2879887  89.4094181  51.2840748  70.3117418  20.8350873  81.7129707
  70.5031729  20.9379625  82.6451778  69.8937654  21.6588116  81.4619637
  46.5848398  26.9046617  56.5310335  45.7826853  27.4190736  56.4407015
  46.3552189  26.0407996  56.1886215 110.4758167  87.8037930  55.2529478
 111.3542557  87.4811172  55.4540873 110.4975128  87.9879951  54.3138933
  14.5539105  60.8615828  62.8440809  14.3934858  61.4467239  62.1037388
  13.9443254  61.1578512  63.5199976  53.5552359  82.8106594  77.4289131
  53.2196236  82.0324612  76.9839334  54.1822100  83.1877804  76.8117285
 114.1379452  14.6352208  60.3632832 114.4088459  14.7714710  59.4553852
 113.8618565  13.7192845  60.3959608  96.8713570  19.7511685  30.8103895
  97.7890015  19.9992573  30.6981015  96.3923931  20.5787539  30.7664156
  99.6740246  57.9032326  94.9771118  98.9336967  57.3035002  94.8851299
 100.4292679  57.3998451  94.6730614  54.0715364 108.7420274  56.3684416
  54.1579202 109.5442726  56.8833923  53.1297353 108.5726298  56.3451338
  44.1065502  81.6875362  75.7408237  45.0607014  81.6742325  75.8160162
  43.8979006  82.5898933  75.4990864 107.6726913   7.8334302  55.7987165
 108.1604576   8.6264247  55.5762863 106.7589474   8.1163388  55.8342838
  42.2484684  14.1729927  36.3731313  41.3397408  14.3007576  36.6453886
  42.5022936  13.3394670  36.7694163 108.4657383   1.2733524  51.1112356
 107.8324604   1.3069600  51.8282175 107.9713249   1.5551354  50.3415728
  80.9906960  26.6219234  42.7644396  80.6298447  27.1634841  43.4663820
  81.8737316  26.9649196  42.6271534  67.8003120 103.1789207  71.7971516
  66.9176149 102.9669380  71.4935970  68.3582306 102.5131893  71.3949537
  49.2766094  92.5023079   5.8912569  49.3038845  91.5468788   5.9425986
  48.3434153  92.7149487   5.8786607   9.7439581 102.4149227  54.3616676
   9.1908383 103.0448914  53.8996840   9.2684841 101.5866280  54.2977190
 100.6295490   8.1000614  51.2298012 101.0164356   7.8626782  50.3870678
  99.8939037   7.4965906  51.3341093  26.6332364  98.9739513  71.5954542
  26.4794040  99.8249149  72.0058489  27.3376036  99.1346931  70.9675550
  86.5673256  14.9122226  33.9266515  86.1606789  14.6149969  33.1126904
  85.9720898  14.6142387  34.6144962  56.8816900  13.5332394  17.0482874
  57.8385592  13.5194337  17.0693088  56.6617680  14.4077349  16.7271566
  37.4833703  88.4859180  59.9874687  36.6001177  88.6843777  60.2984476
  37.7098536  89.2244434  59.4222069  90.8220673  12.8427732  60.9159040
  91.7314720  12.8823876  60.6198502  90.8557129  12.3331332  61.7254496
 115.6799507 104.5831108  38.6509418 115.2560329 105.4311275  38.7828445
 114.9554634 103.9613628  38.5818148  13.7566328 101.6691113  57.1020746
  14.3256056 102.3540688  56.7508745  12.9411530 101.7589760  56.6089725
  72.4245358   8.5742939  38.7524581  72.1648932   7.6536018  38.7186432
  71.5977240   9.0550524  38.7910509  20.9928870 107.2606468  59.2562389
  21.8432188 107.4486637  59.6535015  21.1746192 106.5731144  58.6155319
  62.2211599   2.7385008  56.2845278  62.5582886   2.7053830  55.3892708
  61.5658045   3.4359759  56.2680197  16.1781609 109.2675400  80.4494953
  16.2133694 109.3647957  79.4979000  16.9999135 109.6479702  80.7597065
 104.0221786  77.3787069  65.4706001 103.8757133  77.5983238  66.3906813
 104.8357201  77.8290176  65.2434444  27.2895527  95.7880497  50.1968908
  27.9958248  95.1470375  50.1161432  26.7822480  95.4915619  50.9525156
  79.7891855 104.9959087  34.5631909  80.6150246 104.6875858  34.1901612
  79.1350365 104.7982788  33.8929248  25.0829315  92.7238274  45.7353973
  24.9734592  93.5884380  46.1312437  24.2037916  92.4799442  45.4457951
  18.3846390  99.1859436  67.4952126  17.5512552  99.6537399  67.5487995
  18.1406128  98.2603931  67.5015450  58.7421608  97.0496559  57.4829245
  58.0361462  96.8985653  56.8544722  58.5682964  96.4305115  58.1919098
  87.5877857  22.7636337  47.2585201  87.4357700  23.7026620  47.1519804
  88.0342674  22.6874423  48.1017733  11.9739687 100.0093842  71.0138655
  12.3407519 100.2686977  71.8591213  11.5546012 100.8028984  70.6811666
   1.8329301  86.9344139  46.9881344   2.7261209  86.5937901  46.9389439
   1.8094984  87.4276161  47.8081560  81.5030575 104.5123196  27.9826117
  81.2343884 104.2560005  28.8648510  81.1695576 103.8146210  27.4184871
  50.7973671   0.7329555  55.4150915  50.2432585   0.0210129  55.0951958
  50.6658125   0.7313506  56.3632059  57.5013256  17.0356047  56.5373039
  56.7289877  17.3029292  57.0355654  57.6549482  16.1286259  56.8019199
  52.1819305  96.1516857  36.0122800  52.8607750  96.8265247  36.0127950
  51.3648272  96.6340256  35.8860731  75.7542706  24.3031406  45.5168915
  75.8951950  23.8809609  46.3643217  75.6203508  25.2269244  45.7288456
  78.6255980  16.0491085  42.7026987  79.1434097  16.5844357  42.1014261
  78.1168222  15.4726207  42.1325779   3.3017409  72.6012850  32.2790766
   2.8158838  73.0226231  31.5701008   4.2169979  72.8220081  32.1063995
   1.6103908  70.1330566  39.7944903   1.3514845  70.4270935  38.9211392
   2.5563619  70.0008678  39.7320580  80.8054829   2.3190452  49.8940372
  81.1810780   1.8503493  50.6393480  81.3303947   3.1163549  49.8233080
 101.4215374  25.4213977  40.3537655 101.4649773  25.1426768  41.2684584
 102.1219063  24.9330544  39.9210548  76.4092588   4.6242982  45.1033926
  76.9959021   4.0940869  44.5639896  75.5331278   4.4197986  44.7765779
  33.5678148  64.8482132  69.7550774  32.7025580  64.6763468  70.1265955
  33.7316942  64.1042614  69.1755009  16.1473870  99.7662258  50.0155783
  16.8776822 100.3596306  49.8401833  15.9307730  99.3938160  49.1608095
  47.2976780  91.2245464  41.7708635  47.6078653  91.2151623  40.8653688
  46.3937569  91.5337372  41.7112017  14.3479466  91.0383797  35.2717733
  14.6818447  91.1925030  36.1555099  13.7183750  91.7447186  35.1270318
 105.1322746  68.0643272  26.1399269 104.2810345  67.8253460  26.5066957
 104.9937153  68.9310217  25.7579899  83.6761570  18.6605132  34.7793603
  83.9910221  19.1895449  35.5123115  83.8216400  17.7560568  35.0568914
 110.7760429   2.3547213  52.0243597 109.9714756   2.3223470  51.5068150
 110.9381771   3.2887384  52.1568584  80.4928589  28.3766508  45.1288080
  80.4788113  29.0469146  45.8120203  80.6149578  27.5540423  45.6027746
  37.3555970  98.2446003  53.2957411  37.3986101  97.9766464  54.2136621
  36.6563320  97.7082157  52.9221678  74.7299671  95.0863647  45.1768589
  73.9982557  95.6967926  45.0863075  74.4565344  94.4859028  45.8703375
   5.6694317  92.1297836  39.1052341   5.8716494  92.4275112  39.9921894
   6.5233707  92.0400333  38.6821914 114.9795055  94.3306732  87.6468086
 115.0165176  95.0110245  86.9745159 115.6387329  93.6912537  87.3770332
  21.4901209 104.0963459  65.3199339  21.6498876 104.6349716  64.5449543
  20.6350231 103.6964130  65.1615238   1.7103472  97.5258827  82.1582317
   2.3158392  98.0462837  81.6302204   2.1489909  97.4330235  83.0039310
  29.7205377 104.2782593  41.0360146  29.2851353 104.7819138  40.3482723
  30.6408882 104.5338535  40.9738779  57.2455120 104.7570133   2.9442811
  57.8903389 105.2894974   3.4099981  57.1654367 105.1738167   2.0863208
  78.2140160 105.4930019  13.7831247  77.8858852 105.7819557  12.9316139
  78.5633659 106.2872696  14.1872656  65.8251143  18.8931358   1.2088806
  65.4540634  18.7310648   0.3415360  66.7027092  19.2330813   1.0342487
  62.3920774  27.7948523  58.0775070  62.3439789  26.9566607  58.5372353
  62.3235464  27.5641656  57.1510506  92.5390625  13.0859053  32.6733732
  91.5900421  13.1311738  32.5570059  92.6758289  13.2748866  33.6017132
  39.2244506 107.8061676  68.4092855  39.4652772 108.6424160  68.8079405
  38.3665037 107.6017570  68.7812710  14.4278276  74.8933935  37.8253245
  14.0219462  74.9489546  36.9602203  14.0176558  75.5971909  38.3279753
 109.0789127  89.6413708  22.9249215 108.8853168  89.0517330  22.1961689
 109.9875736  89.9068928  22.7832937  73.5824060  90.1182461   7.4202192
  72.9467583  89.4026947   7.4333060  74.4195700  89.6985912   7.6184088
  87.9585934   0.9892897  30.1106572  88.3395767   1.8654825  30.0526524
  88.5671616   0.4996378  30.6639290   4.7689345 105.4724312  14.5591891
   4.9641839 104.5705318  14.3048537   4.2316049 105.8121109  13.8435602
  38.6265826  88.8634682  48.6202145  38.5205340  89.6921253  49.0874672
  39.4161034  88.9851856  48.0928850 106.0610104  85.3597832  19.6241283
 105.3781796  84.7110939  19.7949481 106.6728306  85.2612972  20.3536534
  71.0548162  29.9268651  42.3822737  71.2572384  29.7490573  43.3007717
  71.5370083  29.2574954  41.8968201  39.8281980 103.7915230  61.6559601
  40.1019382 102.8748035  61.6255760  39.2010093 103.8303947  62.3780107
  26.6054988 107.1299362  17.5156951  26.0341120 107.5493908  16.8724167
  27.4631023 107.5296974  17.3710012  26.2933993  89.0035248  46.2073469
  25.7750797  88.4743404  45.6011009  26.0461545  88.6845684  47.0753145
  31.1859822  95.6353951  50.5293417  30.3514910  95.1701927  50.4707241
  31.8483806  94.9556255  50.4053926  18.1205547  52.6249743  81.4023590
  18.4841430  53.4520197  81.0860825  18.8684475  52.0280457  81.4260674
  63.7192249   5.2764410  67.8090143  62.9281521   5.0090170  67.3411274
  64.3646908   5.4310817  67.1193027  10.4168868  54.5553827  49.2788029
   9.8591095  55.3301525  49.3484259  11.2320423  54.8806620  48.8967705
  75.6825495   1.6701704  68.2557058  74.7307920   1.6714968  68.1537819
  75.8762836   0.8369203  68.6851168  65.8177233   9.7291720  65.7877874
  66.0780716  10.4113698  66.4067030  64.8904228   9.5796973  65.9721899
 112.7965641  56.4307547  92.1921253 113.3839703  56.3615704  92.9447174
 112.1150112  57.0402050  92.4754810  85.5642697   0.4584206  47.5988579
  84.7377727   0.2946080  48.0530596  86.1916015  -0.1256191  48.0249929
  13.6139572  48.4759521  73.8898897  14.2515838  48.5977840  74.5933247
  12.8295362  48.1503916  74.3313932   2.1603346  42.8227806   6.1733842
   2.2847234  43.6099863   6.7035449   2.0097333  42.1255064   6.8116271
 100.9808636  48.6477089  38.3457589 100.7957935  47.7100992  38.2923031
 101.7037678  48.7139606  38.9696646  69.4500732  90.8324909  88.1348133
  69.9470234  91.5167046  87.6863480  68.7660313  90.5861568  87.5122070
   7.1877033  47.5748682  40.1041937   8.0282414  47.2581291  40.4349566
   7.3953748  48.4080219  39.6811581  21.0433030  29.2360282  48.7090588
  20.1670170  29.3274713  48.3349037  21.6319442  29.2888832  47.9561043
   5.7720053  57.6113844  60.2341843   6.2697899  57.6096630  59.4166040
   5.8495069  56.7160273  60.5636692   6.7802542  28.6325526  20.5497360
   7.0770144  28.3347225  19.6898174   7.4359119  29.2754626  20.8199430
  98.2182503  60.5444288  18.3282006  97.9793739  60.8323002  19.2092800
  98.0867958  59.5964003  18.3421004 107.9849911  86.6907978  60.9739256
 107.0689964  86.9266129  61.1208582 108.0374432  86.5067101  60.0360632
 105.8251286  63.0321169  30.1590157 106.5217400  63.2899237  30.7627606
 105.9656906  63.5767698  29.3845320  57.9051924  78.3957720  93.6171246
  58.3074665  78.5064936  92.7556515  58.4030771  78.9783859  94.1906261
  40.5699825  49.9234200  26.6358852  41.0229111  49.5455217  25.8820415
  40.3578949  49.1718054  27.1893573  83.6349869  18.6085880  18.1275415
  84.3970776  18.9852190  17.6875520  83.4115505  17.8395200  17.6032853
  88.8012123  29.5285940  26.9546938  88.9326000  29.0155029  27.7520061
  89.1416740  30.3969383  27.1698475  11.0397971  22.7747083  37.3798680
  11.7573333  22.7895665  36.7465019  11.2172186  22.0080662  37.9248571
  92.6163864  56.5854979  40.6300974  92.9963017  57.2209501  41.2368059
  93.2676697  56.5001011  39.9338388  13.1337857  56.3264036  40.7016039
  13.1182444  56.8413544  41.5083361  13.5668564  56.8936300  40.0636911
  21.9727182  52.3860073  43.7420654  22.1613526  52.2944260  42.8081131
  22.0726800  51.5016603  44.0944433 112.1150589  38.6121178  44.2918301
 113.0036354  38.9672017  44.2677927 112.2117329  37.7522635  44.7011423
  20.5879307  23.9757276  30.0819921  21.5073323  23.8364601  29.8549747
  20.1140857  23.3131337  29.5793271  99.0104580  32.6532269  42.1260214
  98.5663986  31.8348551  41.9039583  98.3325577  33.1896949  42.5369787
  75.3223944  71.0294914  78.0262423  76.1746120  71.4414215  77.8838778
  75.3568792  70.2235317  77.5110054  13.5480332  58.4589434  53.5402632
  12.6681507  58.2201195  53.2487106  13.9781046  57.6217413  53.7144899
  36.4037776  37.3076940  31.7104721  36.3320541  38.2524490  31.8465662
  37.3443580  37.1474624  31.6338992  13.6537540   9.0883052  37.7577305
  13.2583749   9.7102046  38.3685875  14.1108239   8.4605271  38.3173847
  52.3069668 101.7562675  87.1314049  52.8829575 102.5201225  87.1628571
  51.4903831 102.0872688  86.7574310   8.9220619  41.0506153  27.9537177
   9.5357662  40.9927940  27.2214222   8.0611777  40.9221458  27.5554633
  35.5094695  32.6413989  17.8956699  35.2443027  32.3651481  17.0183980
  36.3523579  32.2106481  18.0378711 107.8326035  20.4240394  30.8139539
 107.9264641  20.0642252  29.9319363 108.3933353  21.1997962  30.8170891
 109.3449783  11.8443990  31.6722155 109.5687008  12.6267457  31.1681199
 108.3880520  11.8220210  31.6675830  25.8732772  34.5785022  22.7834320
  25.0920677  34.0882468  23.0395436  26.0972691  34.2369699  21.9177437
  94.2602539  49.5146847  40.2530289  94.9876213  50.0487804  40.5722666
  94.6476269  48.9650822  39.5717740 116.0543537  39.9565053  46.4026356
 115.3528023  39.9422240  45.7515955 116.7525578  40.4659081  45.9912300
  46.4428616  95.4434395  87.2321510  47.0468473  95.9402275  87.7840805
  45.7300234  95.1948261  87.8206062   1.1133899  18.8044655  53.2479429
   0.5159692  18.1238174  53.5578394   0.5962671  19.3094695  52.6204157
  94.9262905  81.5155315  12.4504805  95.4122066  81.5095520  11.6258085
  94.6014977  82.4123764  12.5306034 101.1955833  39.3490314  20.2483559
 101.4351463  38.6985183  20.9084105 101.0896969  40.1626682  20.7413244
   9.4274485  40.1556587  38.2868743   9.5687962  39.2426395  38.5371757
   9.9874628  40.6561375  38.8802838  18.6318469   9.5239091  29.6028018
  19.0778017  10.2707410  29.2033052  19.2691159   8.8112336  29.5557547
  19.7231472  26.9387698  31.8774104  19.7364974  25.9821701  31.9085526
  18.9558482  27.1845484  32.3942065  61.7722034 100.4907894  68.5576725
  62.6366806 100.4531097  68.1484079  61.1580706 100.4031754  67.8287029
  17.5028348  80.6232071  93.0486488  18.3406627  81.0842037  93.0067062
  16.9291544  81.2130165  93.5377789  35.1952672  46.5513563  29.7127509
  35.5160379  45.6552458  29.6111441  35.6094003  46.8642426  30.5170059
 104.0300941  33.6516476  69.0216351 104.7180271  33.3362007  69.6077061
 103.8573647  32.9142356  68.4362984   9.5231879  20.1617765  30.5316663
   9.7665071  20.1277328  29.6065354   9.3426985  21.0869789  30.6979632
   3.4526616  35.0493407  35.2721477   3.5408196  35.1423573  34.3235660
   4.2654479  35.4115319  35.6248903  12.5109828  40.1958656  56.5738630
  12.9892278  40.8924007  56.1240244  12.1970129  39.6278906  55.8702564
 106.3989735  40.5052996  27.7573442 105.5420589  40.4138422  28.1739616
 106.2867165  41.2226534  27.1336222   4.4397491  35.5352616  26.3540554
   4.0200156  34.7329783  26.0435796   5.3762245  35.3774047  26.2343597
  41.3447094  51.0555458  55.2705765  42.2494602  51.3658714  55.2337074
  41.1675024  50.7286215  54.3885612 107.4761581  88.5550308  18.7849486
 108.0685139  88.2741261  18.0874944 106.6673183  88.0697346  18.6221528
  26.8030310  14.4824946  22.0546341  26.0655046  13.9203703  21.8173456
  27.3664784  14.4777131  21.2808537  99.5569134  32.9494357  39.3568254
  98.6722660  33.0863237  39.0178561  99.5046329  33.2122493  40.2757502
  87.6672268  42.5066137  23.1207681  87.1195316  43.1165409  22.6265574
  87.0833492  41.7784357  23.3330703  17.0804679  74.1592073  13.9479578
  16.4783323  74.0447521  14.6831894  16.8203974  73.4866619  13.3184493
  85.8213520  45.7148933  18.8519776  86.3438606  46.2880564  19.4129682
  85.0829983  45.4507589  19.4008756 116.1641502  62.4152279  21.4231086
 116.1950397  62.3461962  22.3773170 115.2363491  62.3235846  21.2062526
  20.9800363  33.9739490   7.1927178  21.0750628  34.8891306   7.4566174
  20.5182934  34.0128994   6.3551581   5.0343537  37.2013259  38.1469131
   5.0886428  37.6251125  39.0034699   4.9484473  36.2690020  38.3459759
  92.9337311  25.3136635  37.8870153  92.5648403  25.3837013  38.7674952
  93.4697247  26.1005902  37.7886033 106.7573643  39.7661448  40.2589178
 106.8651295  40.7135248  40.1746941 106.0765362  39.5450997  39.6234322
 106.2482834  68.2409906  34.0014291 107.0835972  67.9883671  33.6081696
 105.7268429  67.4383354  33.9924431  13.1838942  67.7392054  39.0165281
  12.7283978  66.9670057  39.3518829  13.5117400  68.1825209  39.7989750
  95.8271408  59.6195650  39.6187210  96.1477280  58.9257145  40.1949453
  96.5673828  60.2202415  39.5323110  37.1678114  59.7587681  26.8957591
  36.4966679  60.4341125  26.9943094  36.8817067  59.0507460  27.4728894
 100.4723358  30.9643316   9.0473318  99.6884632  31.2878561   9.4912887
 101.1565113  30.9957790   9.7160268   8.3079046  54.1941071  26.4906049
   8.9629579  54.3981695  27.1580601   7.4813682  54.4986725  26.8651843
 115.4921627  61.9308615   9.1671944 115.2653885  62.8565264   9.2563713
 115.5886936  61.6201162  10.0673890  54.2729139 100.1365852  92.6646709
  53.8389778  99.3239403  92.9245663  53.5849047 100.6510925  92.2425938
  92.0351219  20.4915237  54.1245365  92.2289181  21.0521984  53.3733225
  91.6662121  19.6959841  53.7408018  11.9407368  60.3188086  33.8328362
  11.7045891  60.2960062  34.7601676  11.1339605  60.5759382  33.3864856
  33.8444281  14.9931872  54.6582079  33.0437565  14.5800269  54.3350077
  34.2281818  15.4085398  53.8859081   1.9542632  47.2490120  46.1087084
   2.1034394  47.6297522  45.2432489   2.0027457  47.9928493  46.7091990
  97.0447350 108.7817574  48.7828636  96.9016552 108.0059433  48.2407761
  97.9966259 108.8748264  48.8213444  32.1481919  41.2892675  29.1573000
  31.6445065  41.7664385  28.4978747  31.7288256  40.4300690  29.2035651
   6.2272519  55.2500391  17.1911895   7.0266455  54.8625612  16.8347323
   5.5265093  54.9050856  16.6378379  11.6634786  44.9974823  43.9522982
  11.8422878  45.6311369  43.2575035  11.0025597  45.4219675  44.4993114
 114.2429066  63.3033514  31.7710972 114.2104149  63.5349655  30.8429098
 114.2803001  64.1443682  32.2266483  93.6948395  21.2228489  24.9932909
  93.7282276  20.4666686  24.4073653  93.1478500  20.9354281  25.7243371
  64.8144579  27.4759555  18.2255554  64.3777800  28.3134365  18.0700910
  64.8272276  27.3857450  19.1784096  15.3288722  27.4897766  34.5273638
  15.5370486  27.6471376  33.6064219  14.8273098  26.6745138  34.5236254
 108.8998890  13.7213635  28.8169622 109.0903664  14.2266273  29.6073151
 108.2939529  14.2718899  28.3209801  10.1129568  53.6779499  34.7270322
  10.1104093  53.0570650  35.4555416   9.1918558  53.7616634  34.4804597
 107.2442150  15.0465536  24.2540097 107.7124310  15.8497584  24.4817472
 106.4384079  15.0847673  24.7692370  93.3388710  42.2316504  13.7592769
  93.7352085  41.9620609  14.5878124  92.4169159  41.9888687  13.8445961
  35.9439611  64.6137810  62.0829010  35.6567287  65.5047512  61.8831491
  35.9669805  64.5782757  63.0391645  15.2987766  59.4045877  25.0283098
  15.9804726  59.7684860  24.4634175  15.5988431  58.5170746  25.2245426
 115.3201199  47.5385094  44.1664791 115.5683899  47.8410959  43.2929564
 115.4656982  48.2963324  44.7328186 107.9944420  60.4447222  39.7885633
 108.1826401  60.3691006  38.8530993 108.7265301  60.9514713  40.1399565
 112.7206707  10.5129683  18.9264929 112.3577404  10.8534634  19.7441602
 112.6872826   9.5616901  19.0274227  18.9969945  54.2285681  60.1051235
  19.5993006  54.9714422  60.1450634  18.5569096  54.2310619  60.9551525
 110.1142597  32.0582008  10.1611483 109.7353745  31.7508936  10.9847009
 110.9126949  31.5406227  10.0569654  28.9526749  17.4030447  11.0258329
  28.7590694  16.6487873  10.4691958  28.1065583  17.6475000  11.4007473
  13.3035517  39.8619652  15.2046084  14.1836929  40.1122522  15.4855716
  12.7744842  40.6468964  15.3467512  96.1087132  68.1807566  23.2589793
  97.0427799  68.2645798  23.4505987  96.0085106  68.5591316  22.3854661
  71.7061853  93.6861324  91.0971546  71.4617014  94.5196152  90.6949425
  71.4021921  93.7584972  92.0019054  81.9537544   1.3773833  17.6474249
  81.6969013   2.2444540  17.9611921  81.7930794   0.7963291  18.3909249
 101.5080643  15.0198984   5.3509527 100.6392288  15.1079667   5.7428873
 101.6505623  14.0750682   5.2941966  10.2708375  30.9113765  17.8252733
  11.0730851  31.0872078  17.3336291  10.5212510  30.2402496  18.4601843
  25.4606509  10.4537141   3.6842117  24.6853256  10.8577800   3.2945585
  25.2326584   9.5276618   3.7659359 111.8575478  38.0401301  26.6653323
 112.3179722  38.1593823  27.4960041 112.4579144  37.5200248  26.1312246
 102.8307343  81.7925549  24.7342229 102.0060158  81.4322090  24.4082928
 102.5727844  82.5670624  25.2340484  18.8851535  34.7523928  49.6682358
  19.7287846  34.4420505  49.3392897  18.2362127  34.2666006  49.1592026
  21.9294024  40.3172874  44.7952843  22.8461003  40.5893373  44.8387003
  21.9656563  39.3896055  44.5621967  88.3253860   4.3103445  85.0498676
  88.8490486   5.0128305  85.4352570  88.9452457   3.8163114  84.5132637
 106.4727306  43.5868597  19.0007579 105.9096241  43.8409948  18.2696223
 106.6545296  44.4071102  19.4594216 112.0865345  79.3780231  53.1336689
 111.2605572  79.7612333  52.8384924 112.7606201  79.9499798  52.7666378
 110.7792944  34.4917988   0.6081069 110.2266711  35.0105023   1.1927283
 111.6142219  34.9595666   0.5901588   0.6489215  65.6490660  18.4124720
  -0.1694489  65.7233906  18.9033663   1.2115777  66.3305140  18.7802780
  21.4980292  52.5504112  30.4204988  21.0851383  51.6947222  30.5368805
  20.7710314  53.1432247  30.2300406  25.9669805  66.6968250  15.6254625
  25.0367379  66.8935108  15.7358849  26.4180255  67.4469614  16.0128677
  26.2988997  57.3515320  37.7012277  25.6310892  56.7723989  37.3339939
  26.7602086  57.6993895  36.9380617 113.0084991  81.3276005  15.1701462
 113.3868504  82.2056293  15.1238668 112.2386456  81.4277363  15.7300818
   0.3408568  62.6897955  32.9366422  -0.4015980  62.8514910  32.3545361
   1.0888290  62.5877285  32.3481250  32.3567247  56.3389111  34.7120333
  32.5387716  55.6736612  34.0483069  33.2157540  56.5591955  35.0722742
  24.5754838  40.5008459  48.2484722  24.4574952  39.6354342  47.8568411
  24.3889356  41.1132336  47.5368452  31.4572644  65.6053591  19.0329087
  31.0674357  65.1032019  19.7485244  30.9403229  66.4101028  18.9956343
  10.6206214  69.9802685  13.9807367  11.5754831  69.9808836  14.0476084
  10.4402375  69.5765495  13.1317925  13.6887932  24.5278859  38.2699442
  13.7475979  24.7231269  39.2051744  12.9042757  24.9917030  37.9773045
 114.2522049  51.4999628   0.7858385 114.7002888  50.8399630   0.2568290
 113.6816406  50.9953308   1.3655160  21.6596270  69.8177671  55.9057617
  20.8351779  69.4005156  56.1555910  21.6016483  70.7005739  56.2711668
  17.6510811  84.9071217  28.1554961  17.1938443  85.1165676  27.3410606
  18.4017920  84.3809223  27.8802133  24.0979338  22.9295278  52.4088621
  24.1095328  22.1461415  51.8589497  23.8565683  22.6086545  53.2777786
  10.6522357  51.5793753  36.3758230  11.2644970  50.9387255  36.0139799
   9.8357701  51.0928297  36.4893484  25.9491467  57.2820377  16.9671512
  25.8843231  57.0356417  17.8898191  25.9212756  58.2388210  16.9722223
  11.4129376  84.5303154   5.0561738  10.5065191  84.7278404   5.2920151
  11.6814423  83.8563061   5.6805468  21.9049501  52.7082109   1.1556928
  20.9627271  52.8327656   1.2694140  22.0006680  51.7779160   0.9516704
  82.6948261  46.3347435  16.4900756  82.8891754  47.2526121  16.3004041
  83.4393978  45.8528996  16.1299706  17.1365917  81.9816303  42.3282290
  16.8159318  81.2124825  41.8572521  16.3881087  82.5778580  42.3509073
   3.1288022  58.4906387  29.7662878   2.5657749  57.8282881  30.1669407
   3.2684007  59.1368294  30.4585171 105.6372356  54.4727135  23.4011054
 105.2566719  55.3025341  23.1133485 105.1119900  54.2186975  24.1599393
   7.4090701  43.9633036  53.8374472   7.1969277  43.0660009  54.0944862
   7.7390409  44.3702698  54.6385288  23.5636997  71.0904121  47.4173975
  24.2361927  70.5295515  47.0308495  22.7661991  70.8767414  46.9330740
  11.4934945  37.9860616  93.3179188  12.3811281  37.7747011  93.0286694
  11.4024365  37.5377154  94.1587067   0.1736005  34.8609161  39.2812276
   0.9329430  34.9404240  39.8585558   0.5428677  34.8631763  38.3981252
  32.9475737  61.7837143  12.2192204  32.0321131  61.9378090  12.4525011
  33.2891536  62.6515293  12.0036864  11.7353201  61.9331264  15.5490005
  11.7075419  61.7706347  16.4918983  11.0823107  62.6179361  15.4046321
  36.5764189  41.8929911  33.7251329  36.0426474  41.6770744  34.4897914
  37.4078178  42.1949673  34.0909386  78.0422544  66.3486242  35.4460907
  78.7639189  66.4882469  36.0592294  78.3926058  65.7361412  34.7992897
  18.5709620  29.1770005  44.6051836  19.4772005  29.1026974  44.3061161
  18.1290483  28.4199190  44.2207766 115.8409527  55.5128193  72.3229074
 114.9857715  55.1745319  72.5883484 115.9189607  55.2694988  71.4004421
   4.8397267  45.2115154   9.3273455   4.1099751  45.2235603   8.7080324
   4.8308364  46.0821867   9.7249395  40.9564209  42.8527927  60.6878567
  40.4456139  42.0671034  60.4929304  40.3007555  43.5351610  60.8317661
  45.6416368   0.5318715  20.6683707  45.2363920   0.9154024  21.4461303
  44.9834347   0.6329972  19.9807823  89.9429989  47.0694208  49.9800062
  90.4149532  46.7721081  49.2021322  90.6304741  47.2708321  50.6148624
 112.5158405  67.5291109  31.4135981 111.7725277  67.0003939  31.1234570
 113.1967640  66.8900633  31.6238379  24.6884084  57.4074697  84.0250874
  25.6343961  57.3342276  83.8986969  24.5914984  57.7578926  84.9105453
  20.1948667  57.6350641  31.1154246  19.6559989  58.4260273  31.1304259
  19.7839999  57.0778370  30.4544234  93.3630562  23.3329797  70.2403212
  92.4857330  23.6716700  70.0619316  93.6145115  22.8827047  69.4339371
 112.8011227  72.7142477  36.2971592 113.0462837  72.1772480  35.5436635
 113.5714245  72.6959658  36.8650818  23.6026120  47.4399948  31.3818955
  23.1494856  46.9206810  30.7176471  23.4426475  46.9724560  32.2016835
 109.8286343  48.1432962  43.6400127 110.1659966  47.5218010  42.9948997
 110.5516624  48.7534046  43.7857199   5.8897364  30.4698586  39.3541527
   6.7141289  30.9562135  39.3624306   5.4295385  30.7917190  38.5790038
   4.6261391  80.0240993  45.9048128   4.4674700  79.8459387  44.9778223
   3.9844415  79.4837904  46.3658094   5.8857769  57.8416061  28.6199570
   4.9764216  57.9814053  28.8840818   6.3597918  57.7284908  29.4438195
  25.4403853  95.2923298  24.3846917  25.5315995  96.1845970  24.0503883
  26.3295102  94.9382019  24.3678856   9.2180282  76.9939280  50.6010342
   8.4807557  76.7469406  50.0427723   9.7549319  77.5638866  50.0504780
 111.4406872  47.5293589  26.5246892 112.0792675  46.9862795  26.9867730
 110.8942699  47.8990936  27.2182012  92.9683208   3.3933464  88.3999443
  92.8724289   3.7285820  87.5085163  93.3899212   4.1062045  88.8798618
  37.7029324  50.5120277  40.0515652  36.9427586  51.0768938  39.9126625
  38.4293437  50.9834480  39.6437430  23.1007266  31.1290097  10.2476227
  23.2366705  31.4907527   9.3718988  22.9680586  31.8954778  10.8054364
   4.2290622  54.1692305  38.0665565   3.6516723  53.7854910  37.4065566
   4.0282205  53.6881447  38.8693333   5.5926269  84.5265293  13.2859313
   5.5883354  85.1299000  12.5428653   5.4245335  85.0824165  14.0468264
  17.8028464  67.6330662  14.8153293  18.6742711  67.6584005  14.4200957
  17.9140651  67.1064281  15.6068552  99.6392727  26.1389470  75.2929640
  99.5290756  25.2485156  74.9594641  99.5189381  26.0569763  76.2390232
   9.8694766  43.2024622  65.7502699   9.9984860  44.0771580  66.1170006
   9.9060112  43.3322859  64.8026228 108.8052559  55.4241705  35.2890730
 109.1993237  54.6027899  35.5827928 107.8826809  55.2107096  35.1493716
  94.1805267  38.4345865  24.9096894  95.0425529  38.7486148  24.6366835
  94.3673515  37.7521825  25.5544019  14.4018710  55.5971432  45.7494926
  14.8852336  54.7880888  45.9169006  15.0806260  56.2620068  45.6333876
  21.0467100  68.5532618  10.5229509  20.6377459  68.8021612   9.6940774
  21.9567561  68.8368702  10.4356945  21.8559980  46.5749788   7.4724543
  20.9827614  46.5774393   7.8644788  21.7314339  46.9660568   6.6077161
   4.7659555  66.2865829  18.2759535   4.7082365  66.2462139  17.3213494
   5.6301838  65.9286547  18.4789991 109.0403652 100.0128460   9.7015345
 108.9723492 100.8142853   9.1825908 108.3661270  99.4365406   9.3416679
  10.3435373  33.2925749  44.4186831  10.9040809  34.0409327  44.2137766
  10.7199502  32.9229712  45.2173948  22.9960775  42.4031591   7.6175952
  22.9632497  42.8150845   6.7541879  23.8023734  41.8874168   7.6064110
  24.1793132  61.1330605  22.4220681  23.9367938  61.9395971  22.8769469
  24.1800761  60.4633331  23.1059527  22.9033661  16.8936408  67.7168989
  22.4377656  17.5817013  67.2414780  23.5953331  17.3556662  68.1901312
 116.1229229  35.5178928  45.8814669 115.4149246  34.9876356  46.2472630
 116.9217682  35.1302457  46.2389517  30.8000016  27.3290706  23.7442398
  30.1416183  27.6931190  23.1524348  30.2953339  26.8275332  24.3845534
   1.3644956  46.9054031  30.4732156   2.0701931  47.4141693  30.0739908
   0.7681664  47.5629520  30.8313394  13.3670890  68.8283157  16.2594962
  12.8507602  68.2635403  15.6844592  13.0023599  68.6794615  17.1318758
  81.3118649  44.1403341  25.0161123  81.7552853  43.6099625  24.3540621
  80.6962967  44.6787977  24.5187473   7.3314857  52.3364878  34.9938154
   7.9565078  51.6533422  34.7511339   7.1992743  52.2170210  35.9342837
   1.4120276  79.9992561  14.5286751   0.8486636  80.5663300  14.0020990
   0.8828291  79.2178726  14.6887517   8.7154317  73.0158806  50.4677391
   8.5701609  72.3184156  51.1070108   9.4420564  73.5239124  50.8285093
 108.5521221  37.9559374  50.3653288 108.0307961  37.2917390  49.9144459
 108.3912754  37.7960730  51.2952757  19.4251549  47.0751619  45.7225704
  18.7972116  46.3566113  45.7974339  19.1003501  47.7411985  46.3284874
  19.6357942  54.4056511  29.1508794  20.3088546  54.0774822  28.5546207
  18.9928532  54.8248339  28.5789108  35.0595975  56.3190603  71.2748909
  35.8606052  56.0933161  70.8019638  34.6349597  56.9781780  70.7258177
  79.8383141  41.1391735  31.2764311  79.4198751  40.2890015  31.1409879
  80.2700615  41.3290310  30.4434991  95.8312798  42.5752163  31.4115262
  95.0814629  42.4003410  31.9802308  96.5510464  42.7610588  32.0145392
   9.8078907  60.8814096  31.7102909   8.9441651  60.8858252  32.1228313
   9.9155790  59.9859810  31.3896108  15.4884863  43.5689831  13.9035118
  15.1257062  42.9734755  14.5592499  15.6222427  44.3913555  14.3747246
  38.9703965 106.8466663  85.3988075  38.9215851 105.9711361  85.7825947
  39.8332191 106.8793106  84.9856472  11.5047252  31.8732572  86.0004997
  11.5093243  31.2913513  85.2404976  12.1976626  31.5333152  86.5666389
   1.3951680  35.0968361  58.2573891   1.2978427  34.1501045  58.1551313
   2.3022044  35.2727675  58.0072594  36.8441296  97.5324249  29.5132399
  36.1682487  98.0119228  29.9922991  36.6852188  97.7483463  28.5943508
  36.6153169  52.3449802  36.9261241  35.9800982  52.7433634  37.5211167
  36.6775632  51.4350224  37.2165346  10.4224014  88.4059715   8.7516063
  11.3554275  88.4406948   8.9625287  10.1261628  89.3131542   8.8257676
  93.7219048  73.1680012   6.6296595  93.6642075  73.9863300   6.1364657
  94.6319389  72.8897715   6.5263891  13.2136166  59.7356033   7.7922124
  14.0051162  60.2177477   7.5528431  12.9985309  59.2255068   7.0113319
 112.9756546  44.2770195  49.4780397 113.8881207  44.0307188  49.3264437
 112.6994705  43.7314034  50.2144194  43.2323408  80.6866169  13.7305975
  43.7972498  80.4018402  14.4489384  42.6259995  81.3075066  14.1344213
  17.6029480  73.6135101  28.6681390  18.3795667  73.5576677  29.2248940
  17.9364526  73.9082766  27.8207183 111.8437862  91.7885685  32.3131633
 111.0898399  92.3270607  32.0726943 112.5599861  92.4142075  32.4220753
  95.9855747  48.1677485  44.4579697  96.0680676  47.7593517  45.3197336
  95.1060200  48.5453892  44.4550943 106.1353207 104.0168381  22.8159404
 106.6863823 103.4256935  23.3288956 105.3190231 103.5333920  22.6888037
  80.1645660  75.2456760  46.3738871  79.6560907  74.4933128  46.0711670
  79.5292330  75.7950449  46.8329954 102.2486973  46.0867357  27.9868364
 102.2064209  46.8610096  28.5480380 101.3731956  45.7036018  28.0409646
  16.3681304  50.4621410  45.5872536  17.2458768  50.7579517  45.3458214
  16.4103246  50.3355265  46.5351057 101.2768173  74.9048758  39.8805046
 102.2112274  75.0452471  39.7275424 100.8642101  75.7258463  39.6121836
 115.6971916  75.5871677  50.2001047 116.4764223  75.6056690  49.6445084
 115.5764089  76.4964724  50.4736185  86.3781452  86.4335632  34.4449425
  86.4504433  85.5971718  34.9047804  85.4682827  86.7007160  34.5753455
  27.9997349  58.0906820   7.7395600  27.8292727  57.1853256   7.9993737
  27.7839017  58.6073351   8.5159069  20.4574275  61.5189314  45.1115322
  19.5638883  61.8569899  45.0520802  20.7524538  61.7742825  45.9855986
  25.2956295  42.5851679  13.6826754  25.2452445  41.9983673  12.9281163
  25.0027919  43.4324551  13.3471513   5.4427475  70.4424000  14.3480861
   5.6728566  69.6416378  13.8768554   5.7897121  71.1489344  13.8034189
   8.5741568  46.5940237  19.1768098   7.8584534  47.1835899  18.9393079
   8.4230489  45.8094072  18.6497617  35.6421900  85.4575443  64.3437767
  36.4285564  85.2980137  63.8218498  34.9259043  85.1168251  63.8079834
  30.5716968  40.9261370  50.2637959  31.4056802  41.2937927  50.5562639
  30.7415652  40.6281090  49.3701792  38.2284141   9.6655893  37.7075911
  38.2415223   8.8059700  37.2867417  37.9221272  10.2620566  37.0244765
  21.2695813  47.2940588  16.9431365  21.9421577  46.9435358  16.3591778
  21.6511559  47.2226381  17.8180838  85.2474403  28.9514995  92.1507072
  86.1921597  29.0780854  92.2385502  84.8787117  29.3425107  92.9427814
  31.1473894  51.3308954  38.1984401  30.6026959  52.1164751  38.2474279
  31.6787434  51.3578606  38.9941573   0.2765927  31.1780453  46.7064810
  -0.3518698  30.4963923  46.4685345   0.4450797  31.0339856  47.6376581
  23.6080837  35.2226186  50.4710531  22.8921747  34.6537542  50.1880360
  23.9107227  35.6447721  49.6670437  87.9169655  64.1360188  51.7880630
  87.4115276  63.3240509  51.8264580  88.0945015  64.3511534  52.7037191
   5.9922630  70.0280285  32.7048373   6.4498764  70.0997162  33.5425019
   5.2939713  69.3937159  32.8669071 112.2931767  35.3791738  49.7150040
 112.9698753  35.8398747  49.2189646 111.6206551  35.1710653  49.0664434
  98.6506557  55.0884342  69.8081160  98.8345909  54.9448299  68.8797998
  97.8421211  55.6007338  69.8156261   5.2759701  80.4080200  24.0011907
   6.1065489  80.5186462  23.5384464   5.2720386  79.4893360  24.2699504
 109.5993996  76.3280058  34.9832058 109.8224545  75.4713297  35.3473282
 109.6528530  76.9263029  35.7284641  45.3777552  44.4364691  59.3882418
  44.5433187  44.7741079  59.0627480  46.0195971  45.1001167  59.1355705
 115.0487614  61.5009356  25.8530116 114.8067570  61.1166954  25.0103807
 115.9974766  61.3851404  25.9054279  30.0729656  39.6116328   5.1352471
  29.3261290  40.1030397   5.4772824  30.6716514  40.2828884   4.8077995
  20.1097512  76.1282063  56.7324781  20.5122280  76.8625355  56.2687922
  19.6703339  75.6243038  56.0474777  88.0037689  75.3057003  25.4566264
  88.0746555  75.7417965  24.6074939  88.9098167  75.1406813  25.7175136
  26.2243366  63.6454916  38.6843133  25.2830577  63.6330605  38.8577127
  26.6043782  63.1187439  39.3874049   1.0824106  31.8423271  35.4031849
   0.9317547  31.9168329  34.4608569   1.0656434  30.9007692  35.5747128
  17.4868083  97.4440765  31.8669081  17.3912024  96.8093204  31.1568499
  16.7765582  97.2339725  32.4732375  24.5658135  71.6540956  52.5245619
  24.0603924  71.4932060  51.7277622  23.9412189  72.0582533  53.1268692
  19.0404785 103.1857300  89.8563290  18.8658381 102.3013687  90.1782417
  19.0533078 103.0955791  88.9034653   2.6608881  46.6901159  42.4098301
   2.6414227  47.5206900  42.8852177   3.3735168  46.1976719  42.8171253
  13.3637691  41.1607933  47.4801779  13.3411992  42.1177006  47.4872208
  13.7917995  40.9252453  48.3033037  97.3151875  64.8993778  17.9592454
  98.2103825  65.2274895  17.8743374  96.9377041  65.0045443  17.0859301
  31.8110609  46.7193890  26.5546203  31.7877364  45.7624817  26.5507388
  32.6848626  46.9363594  26.8796229   7.0227969  90.2056503  22.4460173
   6.7472225  89.3644810  22.0817041   7.9058635  90.3382111  22.1012664
  90.2692127  16.0905421  84.0753174  90.2521896  15.7342386  84.9635696
  89.4042110  15.8875680  83.7192154  28.8165879  44.4407272  26.1483049
  29.4154668  44.3209696  25.4112625  27.9540253  44.2255545  25.7934546
   7.6378238  58.4351110   6.5764540   7.9845899  59.2986631   6.8006313
   6.7303997  58.6004353   6.3205618  23.1566024  40.7736635   3.3240306
  24.0348554  40.5170679   3.0428541  22.7064037  39.9452496   3.4891993
  13.9575410  98.2746124  10.7483649  14.2118919  97.3821163  10.5138838
  14.5932984  98.8309193  10.2982879  14.7631216  14.4387090  20.0569868
  15.5118823  14.9977911  19.8495853  14.9806523  13.5923779  19.6663010
 115.3911304  38.5268068  65.6846619 114.9184418  37.7061462  65.8236361
 115.4918289  38.5872984  64.7346973  39.9013901  21.9032168  38.3161163
  39.8777103  21.3847470  37.5118423  40.1290703  21.2736893  39.0002871
  37.0366716  27.5171399  70.1487541  37.6966715  27.4465156  70.8384275
  36.7941904  28.4431005  70.1432085  36.9812083  64.5749855  28.5433269
  37.5958371  64.1462231  27.9478192  36.1774135  64.6677446  28.0319190
 106.1098003  64.6382952  23.2269573 105.2341366  64.9665594  23.0227852
 106.3066196  64.0247011  22.5191474  88.1396389   4.2922723  76.1553478
  87.7835751   3.4703347  76.4927864  87.4324512   4.9263144  76.2741041
 105.1386452  71.6455126  20.7719874 104.7178364  70.9282637  20.2979565
 106.0762024  71.4762545  20.6794310   4.8374197  76.7203903  45.2998734
   4.4656327  77.2452688  46.0087538   4.1470769  76.6891289  44.6375418
   9.8998821  55.2880430  28.5899186   9.3251687  55.7791996  28.0028081
   9.3140382  54.9381781  29.2611980  11.3917291  74.0399885  52.1267080
  11.1591733  74.6306849  52.8431082  11.1719668  73.1679010  52.4544239
  18.8616538  83.9122677  13.8089514  18.1546140  83.6562061  14.4011998
  18.7716186  83.3233547  13.0597448   2.7874482  58.3490038  37.8092527
   3.0588561  57.8240919  38.5622716   2.1508884  58.9684582  38.1660366
  95.3768921  63.6445951  58.6763763  96.1345673  63.2282305  58.2655096
  94.8408222  63.9442301  57.9421568 104.6010017  33.4060431  43.7022543
 104.8659897  32.8096175  43.0020475 104.0816212  32.8632689  44.2954493
  26.6998005  53.4204102  41.9613504  26.2420511  53.3909416  41.1212158
  26.0119128  53.2880497  42.6136732  42.1610260  30.1716828  24.1341281
  41.5490150  30.7889462  23.7333012  41.7854071  29.9868131  24.9949217
  19.1835427  50.3066492  15.8155942  18.5072064  50.6872702  16.3758898
  18.9331722  50.5651188  14.9286103  12.8791153  32.4282956  42.3357058
  13.1532729  31.8485308  43.0463028  12.0413041  32.0693064  42.0434189
  89.0581894  61.6036940   2.5916687  89.5291805  62.0296669   1.8754664
  88.8724709  60.7230234   2.2658463  30.5230689  57.2139549  20.3353119
  31.3130331  56.7701197  20.0267744  30.7846951  58.1297350  20.4308581
  26.2023687  62.1992302   0.9204715  26.7512465  61.6085958   1.4363377
  25.5968928  62.5802088   1.5564659  92.3843479  77.6467848  47.0654821
  92.8620911  78.0094624  47.8114367  92.2270775  76.7329931  47.3031521
 108.4132290  62.6499128  47.2732258 109.0343952  63.3691168  47.3878336
 107.7359390  63.0075932  46.6991425   2.0477852  48.2175303   6.4294541
   2.9982415  48.2578897   6.3234562   1.7277187  49.0265894   6.0304427
  25.6425190  42.4828291   4.3196982  24.9932575  43.0752659   3.9406061
  25.4087567  41.6202641   3.9768174  10.9804285  63.8770151   8.6898762
  10.8431482  64.4895458   7.9672503  10.9405673  63.0121613   8.2816184
  65.3067875  28.5194731  33.5296893  65.4119110  28.8938260  32.6550245
  65.6159830  27.6177406  33.4430289  99.1139793  47.2509336  60.8136368
  98.9765835  48.1320667  61.1614275  98.2783508  47.0207739  60.4074383
  90.4836082  74.7548723  26.2115741  91.1413479  74.7563934  26.9069934
  90.7348919  74.0247917  25.6458282  22.2070670  75.4544640  73.4027338
  23.0354357  75.7781601  73.0488110  21.5941477  75.5134296  72.6698732
 108.1062190   4.0860475  94.9159727 108.6992972   3.3505215  95.0692306
 108.5664670   4.6369184  94.2827685  12.3805499  59.2941570  48.0997038
  12.0858490  60.1849794  47.9104471  11.7978609  58.7348890  47.5859642
  29.8557830  62.3737574  22.1301389  29.0363574  61.8800497  22.1622586
  30.4658294  61.8600368  22.6594496  21.6803980  60.6251955  24.4814849
  21.6373181  59.8052406  23.9894962  20.9759903  61.1607838  24.1165376
  20.2003622  71.1785221  45.6417322  20.0495744  72.0153570  46.0812759
  20.2014661  70.5333567  46.3488293 101.2510109  30.6441951   0.9893627
 100.4609966  30.4439712   1.4913753 101.6127682  29.7880483   0.7605071
   7.9062128  22.6953697  25.0108933   8.8358325  22.4878073  24.9162555
   7.5987548  22.1080589  25.7013750  25.8320975  53.7034798  39.4591165
  26.5874791  54.1250992  39.0494061  25.0739670  54.1114426  39.0407419
  18.2492673  26.2228918  46.7557192  17.7546453  26.9091034  47.2037125
  17.9937518  25.4145122  47.2000933  72.1202564  24.2392969  90.7144833
  72.6192236  24.8464823  90.1680470  71.7884350  23.5830045  90.1017761
   8.4464717  64.9620962  51.1336994   7.5690925  64.5820713  51.1786127
   8.3135045  65.8933020  51.3109350  50.4272795   4.1638911   4.2253754
  50.1873922   3.9347398   3.3275032  49.6105862   4.4680125   4.6212968
  49.3966579  12.9096246  79.9397993  48.8674736  13.5253382  79.4327545
  48.8937378  12.0952749  79.9279451 102.2335720  56.3396978  70.6090069
 101.6794586  57.1201897  70.6132746 101.9354534  55.8384562  69.8499870
  30.8972287  64.2522669   9.0163708  30.5375147  64.2713547   8.1295371
  30.4936695  63.4849405   9.4220620  12.2295511  36.6176414  57.6000500
  12.5117648  36.2752581  56.7518997  13.0219579  36.6103697  58.1369591
  33.2380319 109.5367908  36.9628215  32.6700234 109.2287731  36.2566185
  33.4287238 110.4472160  36.7369914 111.3444424  65.9087324  24.7856402
 111.0753155  65.8810472  23.8674688 110.8384800  66.6289091  25.1619172
  22.3338914  51.5614986  14.0841377  21.6862869  52.0947599  13.6231911
  22.1283221  50.6619406  13.8296402 110.4456139   2.5334111  64.2441797
 111.0875797   2.1486749  64.8409224 110.6357765   3.4713960  64.2601728
 116.1798954  76.4025068  18.2778394 115.2283382  76.4040375  18.3816051
 116.5015602  76.9280577  19.0103471  36.8736148  38.2458162  60.0249910
  36.4757943  39.1052723  60.1639414  36.8623662  38.1274104  59.0752125
   6.2910450  63.2197905  31.3516140   6.6681749  63.8621950  30.7505107
   5.3816545  63.4981728  31.4599776  18.3128190  46.3840818  19.4550097
  18.2905364  45.5350351  19.8964393  19.2448807  46.5751314  19.3501639
   8.7242526  57.4453545  27.0951295   7.9692358  57.7943516  27.5688219
   9.4180679  58.0878448  27.2436571  72.8472805  38.2465053  42.9900360
  73.4013224  38.6231399  42.3063612  72.6914501  38.9696693  43.5974789
  15.8485746  57.1201324  42.3172665  15.8209884  56.2063313  42.0336390
  16.2826347  57.5807858  41.5991974 112.0532894  89.0874672  47.7319002
 112.2192669  88.8118649  48.6334085 112.7664185  88.6968231  47.2268677
 100.1615715  75.7185888  61.0307360 100.4436111  75.4335403  60.1615810
 100.8509254  75.4107428  61.6191673 112.5288391  99.2039204  23.9686298
 111.8443012  98.9035511  24.5664740 112.0998478  99.2435837  23.1138682
 111.4138031  15.1548517  11.3250232 111.4668369  14.2018151  11.2533307
 111.8577194  15.3581810  12.1483278 107.7371693  30.5528021  81.1035633
 107.8900719  31.3843369  80.6547832 106.9988251  30.1610875  80.6370544
  20.3549433  36.7785311  30.5100346  19.4767070  36.4796257  30.7458091
  20.8867216  36.5936971  31.2841654 101.7325497  83.9762878  18.3614933
 102.6636600  83.9632988  18.1399131 101.3290596  84.5007896  17.6698792
  42.2718906 105.5545521  29.0180945  41.4064455 105.1755619  28.8644576
  42.7716303 105.3373146  28.2311392  22.4960136  74.4191647  25.7948399
  23.3698750  74.0426254  25.6908488  22.1890759  74.5629263  24.8996568
 113.0230427  51.7009974  40.5122042 113.0912018  51.0761547  39.7902918
 112.3673916  52.3341465  40.2198601  30.6694508  85.3312969  35.7380009
  30.6704593  84.6187305  35.0988841  30.1969337  84.9768162  36.4911962
  42.5669813  43.7778664  33.5455418  43.5203409  43.6922741  33.5426426
  42.3806190  44.4042778  32.8461790  33.5596633 105.2208996  32.8016615
  33.9302874 105.9085560  33.3548307  34.1068649 105.2243423  32.0163012
 102.2909069  67.1476507  45.3398752 102.6513863  66.7378759  46.1262369
 101.4956379  67.5866413  45.6416512  29.4985509  56.9930601  30.7404041
  29.3787336  57.6326609  31.4423919  30.1955819  57.3611784  30.1973867
  25.3281426  88.3057976  17.7604079  26.2815714  88.2309818  17.7202940
  25.1655602  89.2435551  17.8624356   8.1932497  77.7145290  11.4082551
   8.2459384  78.6051273  11.0614324   7.7294946  77.8085661  12.2403121
  35.6162286  32.2147012  30.8416390  35.6976867  31.6526914  31.6121864
  36.3351226  32.8411722  30.9250402  55.1553822   3.7316322  27.2619629
  55.0152206   4.0657854  28.1479263  55.4022264   2.8154111  27.3878098
  59.1361475  13.3608544  25.7482433  59.7581768  13.4693921  25.0288463
  58.8510990  12.4494195  25.6829453  30.3617644  79.6583652  15.8709013
  30.8419514  80.1461697  15.2018011  30.8600307  78.8484812  15.9806859
  29.3766546  89.4410801  44.9055576  29.1671586  89.1312790  44.0244389
  28.5343289  89.4585419  45.3598833  56.1186790   5.2790177  71.4625502
  56.6577578   5.1446509  70.6830788  56.7492676   5.3743786  72.1763420
  12.9069269  35.8606625  30.4960752  13.5340142  35.9816122  31.2090707
  12.0563078  36.0549140  30.8897066 111.7891598   7.2011888   8.7460083
 112.1748734   7.3180616   7.8777927 112.4940300   6.8240178   9.2724407
  24.3888116  86.4694881  37.2726488  23.9942455  85.7313061  37.7370143
  23.9755297  86.4578915  36.4093447  91.3548183  96.7176533  13.0681503
  91.1938477  95.7835674  12.9347003  91.2103081  97.1109486  12.2075295
  20.3008556  46.4585543  26.7997575  20.9485817  47.0909262  26.4886498
  19.8187399  46.2029362  26.0133386   8.7114066  69.0442181  59.1422415
   9.3482345  69.5430803  58.6305571   8.0208153  68.8247442  58.5168219
  19.7842371  33.1289506  33.8182068  19.3518937  32.5384784  34.4351792
  20.4560542  32.5895405  33.4011555   9.8556691 103.3550835  38.6901236
   9.6740639 103.1846046  37.7658987  10.6369913 103.9079952  38.6826682
  19.3150425  75.0092411  17.5130498  20.1714826  74.6056986  17.6541066
  19.4533896  75.9372330  17.7025867  12.4028480  81.7255783  42.5466347
  11.5901697  82.2311878  42.5589657  12.1231949  80.8194637  42.6769447
  36.1347079 105.1227474  21.7166781  36.6903543 104.7797489  22.4165630
  35.6333208 105.8248615  22.1312523  30.4414773  53.7115335  36.7850494
  29.5203257  53.5386658  36.9795322  30.4201412  54.3274832  36.0526681
  51.3560152  11.9316101  92.6053619  50.7945251  11.6365767  91.8884850
  51.8651056  12.6503778  92.2306156  65.3900957   1.8194963  72.5568962
  65.2701378   1.2572944  73.3222485  65.6680679   2.6608539  72.9189444
  11.6336048  50.8913279  23.2718349  11.3706863  50.0731373  22.8503227
  11.9530988  50.6247663  24.1338682  17.9426610  47.9828405  38.5926485
  18.4331870  47.5892019  37.8710794  18.4511817  48.7571478  38.8336563
   4.3184459 100.8572483  23.6612535   3.7775236 101.0106277  22.8865862
   4.3567151 101.7076969  24.0988660  28.9651036  46.4364576   9.9637491
  29.4134259  47.1110201  10.4738486  28.2620168  46.1305714  10.5367517
   0.6079414  73.2270288  22.5112414   0.8309405  74.1557837  22.4486542
  -0.2950327  73.1758642  22.1977901   1.5827413  60.5105352  24.6580482
   2.4035561  60.3801918  24.1831732   1.3641006  59.6439552  25.0007772
  85.3296375  54.9605989  29.4755769  84.9702930  55.5534077  30.1356387
  85.1170444  54.0850735  29.7988296  94.7198677  86.0747910  67.9472971
  95.3377151  86.7824650  68.1308174  94.2405891  86.3700390  67.1731186
  11.4594233  92.2618198  13.6903703  11.6952765  92.9586124  14.3028152
  11.2939310  91.5002918  14.2461729   6.1693907  68.4442186  43.5339308
   6.3679540  67.5217009  43.3734035   5.3280050  68.4322405  43.9901781
  29.3975973  56.4483118  22.9439759  29.1288471  55.5310202  22.9947782
  29.7677350  56.5411854  22.0661354  18.2940185  62.4534082  50.0118208
  18.1827450  62.1622944  49.1067791  18.7658036  63.2831860  49.9402237
   8.2108730  60.7269478  14.6217644   8.6983681  60.4738474  15.4056776
   7.9547817  59.8965263  14.2204475  13.7146056  61.1999989  21.5214968
  13.9203894  61.2009048  22.4563122  12.7711463  61.0427856  21.4840865
  14.7021067  73.8116455  43.8636637  14.2417502  72.9743290  43.8070536
  15.3416562  73.7819338  43.1520987 110.3557205  73.8562059  31.9644451
 110.9229946  74.2150736  32.6468301 109.5970917  74.4397926  31.9522142
  21.9760394  37.9331541  20.4737735  21.7248964  37.7980137  19.5600462
  21.7208886  38.8364816  20.6612062  25.4884267  74.0356922  22.7728915
  26.3126087  73.8622332  22.3180628  25.1897740  74.8724365  22.4166584
 108.2575130  64.5820284  37.7133274 108.6741257  64.5702600  36.8516278
 108.9264488  64.2417812  38.3074498  43.2239962 100.7140255  93.3444405
  42.9657221 100.8781719  92.4374771  43.1511450 101.5671444  93.7723637
  15.8407629  65.1056242  23.1231833  15.0586021  64.6755934  22.7774525
  15.5797362  66.0190105  23.2407379  18.4550476  75.7155085  31.3986969
  19.2989933  75.5856323  30.9661222  18.0074000  76.3675594  30.8595562
  22.7814221  66.7074823  25.8122921  22.3192120  67.3604059  26.3379169
  22.0861673  66.1728477  25.4288602  29.0606046  76.3498354  12.1478045
  29.4192576  77.1113729  11.6921091  28.6023927  75.8571720  11.4669538
  51.4445400  55.3777218  17.0440805  51.6104937  56.3191080  17.0938814
  52.1600914  55.0364256  16.5076697 113.1135464  82.0301056  46.3743544
 113.7085342  82.1868038  45.6410980 113.6450291  81.5618896  47.0182037
  28.0628085  70.0818729  34.0827298  27.5729394  70.8960438  34.1984606
  27.4517035  69.4961119  33.6358929   6.2156224 107.4156570  18.5256350
   5.9825933 106.4976120  18.6639297   6.0263532 107.8395271  19.3627381
 112.4106216  69.7144604  60.0635386 113.1435013  69.1979837  59.7283220
 112.2922993  70.4101801  59.4168520  67.0587969  12.9194236   1.6263221
  67.8141975  13.4807789   1.8009153  66.8702745  12.5031197   2.4673824
 104.3248463  26.9704223  89.3843269 104.1104221  27.1456671  88.4680653
 104.5784283  26.0475349  89.3986893 111.6478729  51.1528778  86.2129116
 111.0768604  51.4210081  86.9328213 112.0686626  51.9634533  85.9263134
  12.0973659  82.9310322  24.5464611  12.5319493  82.8722572  25.3972936
  12.6007593  83.5877323  24.0652442  35.1214814  54.2745161  38.5892200
  34.8129082  54.5258379  39.4597673  34.5116067  54.7003365  37.9867601
  11.7307663  90.1413822  23.9066672  11.4043760  89.8377419  23.0596113
  12.6789522  90.2017307  23.7903309  29.9843121  93.5220337  59.4871283
  29.7089887  92.9580498  58.7643909  30.4447818  92.9351330  60.0869131
  33.8180542  55.8804703  26.6570616  33.8925552  55.3518200  25.8625722
  33.0241323  56.3989258  26.5261984  23.8176847  92.1347237   1.1363678
  24.5784879  91.6910839   1.5113232  23.3410239  92.4742508   1.8938282
  77.1553040  23.1700754  40.9865665  76.9572258  24.0130258  40.5786085
  78.1073046  23.1700277  41.0862064  36.7335677  79.7412252  24.3549132
  37.0676017  79.1351366  23.6936212  36.8789363  80.6095219  23.9792132
 106.7599487  78.5778427  40.7420874 105.8915424  78.2021904  40.5971909
 106.5917969  79.3975687  41.2068510  11.4163911  61.9929838  27.9330420
  11.2460494  62.3476028  28.8056612  11.3391423  62.7472019  27.3487329
 116.1552525  73.0217409  10.2251267 116.8292522  72.4669600  10.6177819
 115.9910679  73.6995506  10.8807552 115.0860958  35.6748939  32.2532964
 115.8787319  36.1076999  31.9360590 114.4056474  36.3451552  32.1902704
  17.5333965  86.3221836   9.1629642  17.0867693  86.4552784   8.3268785
  18.4096909  86.6823006   9.0263963  10.8682442  46.8547440   2.7830911
  10.5054593  46.7089415   3.6567959  10.1026547  46.9981480   2.2267282
  94.1230488   6.8103456  93.6285019  93.2679558   6.3844317  93.6888790
  94.2127228   7.0373815  92.7029514  33.4262300  84.0853214  31.7947125
  33.1378746  84.9626255  31.5428758  34.0458322  84.2327690  32.5092626
  85.5206013  38.8094425  36.4071679  84.8312855  39.3510771  36.0228491
  85.9054947  38.3475208  35.6623697  21.9249701  63.8577414  41.5986919
  22.8187537  64.1881180  41.5079546  21.4255071  64.6052694  41.9272804
  21.5966344  80.5152988  15.3876746  20.8429050  80.1566029  14.9192071
  21.2267256  81.1933613  15.9530306  20.6601834  68.1063604  35.8343601
  20.5371714  68.2358932  34.8939776  19.7741580  68.1220531  36.1962199
  16.7633200  52.2203016  28.5590458  16.3187528  53.0487871  28.7385058
  16.3260496  51.8777990  27.7794838  27.2221017  47.3780870  16.1482286
  27.2638083  46.4219570  16.1656225  26.7659783  47.6126719  16.9564068
  23.2832384  71.4693165  11.0284197  23.4464049  70.5447388  10.8419728
  23.7081242  71.9372272  10.3095543  87.3005676   9.3804729  26.8265009
  86.5906239   9.7997761  26.3402867  87.3000622   8.4745252  26.5174866
  66.7976904  38.0349231  95.3062916  66.7517614  37.7569795  94.3914890
  66.8260765  38.9908123  95.2650547  28.7920213  91.1961746  11.3723254
  29.0444660  91.2535191  12.2938550  29.3558812  91.8304443  10.9296107
  44.5025206  56.3055706  31.2658453  43.7067270  55.8035517  31.4416742
  44.8852539  56.4581442  32.1298289  96.2926483  92.5443649  49.8223305
  95.6176853  92.2489738  50.4334068  97.0479202  91.9878769  50.0123835
  20.6699634  52.2703171  11.8853283  20.6278586  52.5434971  10.9689045
  20.6877232  51.3139486  11.8495953   1.6355190  56.4950752  31.4647174
   0.7125517  56.7357445  31.5449739   1.7716683  55.8372259  32.1465755
  60.9122992  22.5105238  90.5259609  60.3460169  22.8172064  91.2341213
  61.1815691  21.6330457  90.7975483  18.4727407  78.1835127  20.2040362
  17.8300607  77.8626394  20.8366776  18.4743166  79.1330528  20.3248549
   4.3028751  17.5749969  46.4956284   4.5935684  18.3045435  45.9483719
   3.3513066  17.5626826  46.3926840  38.1039906  38.1287384  17.3690629
  38.7184405  37.6627541  17.9361081  37.5749826  38.6539006  17.9695523
  14.8617232  67.7367830  23.0944371  13.9693177  68.0451870  23.2517028
  15.3309512  67.9383421  23.9040256   6.4916074  46.8036890  57.4144411
   6.4896518  47.6453066  56.9584703   5.6271261  46.7500257  57.8219032
  40.9240341  50.9408474  52.4506283  40.3944397  51.7267752  52.5850773
  41.1669064  50.9711027  51.5252447  37.5763345  88.6256504  71.8263292
  38.5304594  88.6722946  71.8871737  37.3956537  87.7161121  71.5889835
  18.0474842  67.6975346  33.7843800  17.2065568  68.0723238  34.0463090
  18.3231950  68.2272530  33.0363083   4.1366476  90.1540470   7.9451585
   4.8262507  90.0730801   7.2862774   4.2803738  91.0151386   8.3377254
   5.3983349  87.7982235  43.6175632   6.3554734  87.8089237  43.6158419
   5.1517189  88.3084869  42.8461695   3.3951533  64.9929094  23.7338424
   3.0785024  65.7812881  23.2929063   2.6369393  64.4090223  23.7543130
   4.9419102  62.2837448  26.5755272   4.4701502  61.4870787  26.8184257
   5.8141279  62.1701431  26.9531012  13.9400005  76.6478205  51.1864233
  13.3851516  77.3475170  51.5310955  14.1156316  76.0871792  51.9421148
  83.6520195  35.5216599  91.7643547  84.6080589  35.4755449  91.7743397
  83.4530354  36.2371659  91.1604595  44.7431755  55.5068159  25.7669687
  45.4670334  55.8551025  26.2875032  44.0597725  56.1740208  25.8304572
  42.2634268  42.4227238  47.5497770  42.4844599  42.3825455  48.4802389
  41.7595530  43.2313776  47.4580002  16.1274338  63.9630604   4.4580296
  16.4076293  64.1098785   3.5546100  16.7937195  64.3990088   4.9892956
  35.4962063  58.3400965  24.6113825  35.5106664  58.4209204  25.5650544
  35.9863114  57.5377941  24.4315505   7.8535908  82.4164486  38.6351204
   8.6626643  82.1387291  39.0646553   7.2828138  82.6898193  39.3532515
  78.6178207 102.5181103  84.9445438  78.4245539 103.3865833  84.5915318
  77.7912140 102.2265053  85.3291512  59.6257067  11.2313759  21.7724323
  59.3475008  10.7339060  21.0034347  60.1792860  10.6239903  22.2632098
 114.9817085  76.8076801  13.5165846 115.3147793  75.9747553  13.1826210
 114.1091537  76.8884516  13.1314158  34.4210386 104.0552998   3.6845854
  35.0533319 104.6901131   3.3477655  33.5769916 104.3563366   3.3481380
   0.1883182  95.9836006   6.0492855   0.7767233  95.7593632   6.7702067
  -0.2911269  95.1745510   5.8709401  31.9391394  54.6344757  14.8808253
  32.6438475  55.1550341  15.2663589  31.2675881  55.2756071  14.6480048
  28.8004375  76.0334206   2.1943526  27.9279065  76.0979748   1.8060775
  28.6440301  75.7148075   3.0833152  22.5678730  38.3979774  57.4528885
  23.4652257  38.5334206  57.7572632  22.6324129  38.4231400  56.4981985
   6.8879998  62.5906420  16.0872161   7.2858560  62.4360847  16.9439864
   7.2981173  61.9442463  15.5125797   2.6957136  31.8626928  40.0996494
   3.4668139  31.8077517  39.5351887   3.0438715  32.1044421  40.9578896
 106.1336517  65.0649023   9.5571202 105.5687237  65.7402134   9.9326622
 105.6178570  64.6912861   8.8425618  11.8718731  13.2306933  75.5868435
  12.7664196  13.2888472  75.9224558  11.4336658  12.6183748  76.1778355
 109.8866844  23.5382414  72.6160240 109.5596981  24.3645358  72.2602844
 110.3345585  23.7862253  73.4248114  88.3451176   1.6878040  63.9983892
  88.9761829   1.2169163  63.4540939  88.8746262   2.0852306  64.6896935
  80.7425785   0.6504603  25.1615071  80.7542229   0.9324197  26.0761642
  81.6638947   0.5122358  24.9417353  40.0313091  56.1288643  17.9254103
  40.0242710  56.3849068  18.8477027  39.2618012  55.5682135  17.8266060
  48.2894611  94.5831299  23.0003119  48.0090714  94.0144062  23.7173676
  47.6768780  95.3182507  23.0240989 111.4676952  69.7513676  32.5558257
 110.7757759  69.7042894  31.8960786 112.0654106  69.0395164  32.3272634
  15.5216539  76.3299465   9.3971282  15.4990208  75.5142355   9.8974627
  14.7347379  76.8009710   9.6712357 111.5824699  86.4371490  30.5116057
 111.0192013  86.3463402  29.7430229 112.2771740  85.7925701  30.3769302
  26.1290598  60.0575590  31.6053820  25.5945969  59.9044800  30.8261847
  26.0023284  59.2740679  32.1404624  31.5171885  44.8066664  30.8127928
  30.8910704  44.2159319  30.3941727  32.2601032  44.2470694  31.0389686
  11.9969380  50.6403446  45.3037167  12.8002095  50.9402752  45.7291937
  11.9848680  51.0995674  44.4639540 106.8707275  55.2500153  29.6369576
 106.2965393  55.2942848  30.4015326 106.2954617  55.4342461  28.8944173
 107.8317261  62.3393106  59.8999262 107.0051575  62.4460459  60.3706980
 108.4825420  62.7629328  60.4595804  18.1996810  61.2907982  35.0044990
  17.9493976  61.0401297  34.1152525  17.3690391  61.4661503  35.4466724
  16.4726698  84.9352455  45.5496120  16.9505227  84.2216492  45.1269197
  16.1860394  85.4929638  44.8264027  47.5798512   1.4903268  42.1848059
  48.0774832   1.3593601  42.9919291  47.6250601   2.4331564  42.0258713
   5.8472377  74.2560863  39.8373580   5.2371955  74.9907255  39.9035621
   5.3084552  73.4819126  40.0004578  49.0543747  85.7284355  55.3439760
  49.7792292  85.2063465  55.6878424  49.0864611  85.5887699  54.3975639
  23.9474368  73.6948347  46.1658001  24.2513084  73.1375885  46.8823004
  23.5082579  73.0934668  45.5643797  28.9049864  96.6657829  33.3136106
  28.1571770  96.1047745  33.1079865  29.5259643  96.5072823  32.6026273
  98.7923908  95.7911396  49.0506554  97.9703712  96.2068367  49.3108845
  98.8326454  95.9130383  48.1021023 115.6038761  89.6797943  52.7472115
 115.5343819  89.9749184  51.8392992 115.5843449  90.4857635  53.2632113
  27.0648408  71.2655115  18.1844985  26.3925099  71.8436432  17.8239930
  27.8824329  71.5783119  17.7972877  64.6769905  97.9896069  67.6003838
  64.6733809  97.0970726  67.2545528  63.7778425  98.1363201  67.8940487
 102.7913284  24.2531610  79.4387197 102.6984119  23.3685422  79.0850973
 103.7305260  24.4320679  79.3927050 113.6463833  20.4271889  62.4077940
 113.2059479  20.3568172  63.2547283 113.0402374  20.9299183  61.8636608
  95.0008869  85.3975201  23.0102921  95.8034801  84.8996639  22.8547287
  95.2866077  86.3107300  23.0355453  15.8212054  30.0558567  23.2990980
  14.8699701  30.0141978  23.2008767  16.1615121  29.8292756  22.4336004
   9.8847556  95.3762341  40.2521944  10.1465619  94.9351597  41.0603619
  10.1764798  94.7899723  39.5540404  25.2897143  11.3249850  10.1047671
  24.7845531  12.0942509   9.8415709  26.0879850  11.6837907  10.4923940
 103.1659603   2.5604895  93.1176662 102.4394321   3.1667644  93.2619381
 103.9439392   3.1179687  93.1036663   9.3972534  57.6547861  42.4901152
   9.6801776  56.8740845  42.9662371   9.0598804  58.2398605  43.1684256
  16.1518812  86.7382240   6.8304831  15.9751201  86.2786579   6.0096383
  15.2891362  86.8623257   7.2260880  10.2131152  28.7718892  87.2645569
   9.5834714  28.3728456  86.6641045  11.0239971  28.8276696  86.7589951
  13.4650517  89.6720695  31.3510323  13.0549717  88.9298916  31.7951417
  13.0317450  89.7101688  30.4983759  41.3607216  90.9838295  50.7924128
  40.6382227  90.6658649  51.3338232  41.1632013  90.6583023  49.9142027
  58.0595732  99.3717861  58.8976192  58.0773449  99.3019104  59.8520994
  58.3842325  98.5257053  58.5894394 107.7643299  11.8810713  90.5334282
 108.0175972  12.7867544  90.7118320 106.8611145  11.9417810  90.2223873
  12.7416730  93.4119987  20.8789730  12.4063051  94.1007614  21.4528775
  12.4218726  93.6488056  20.0084114  12.4235606  70.9904242  30.8973193
  12.9678965  70.2784157  30.5612040  13.0419660  71.5842676  31.3229465
  53.8531923  92.4225140  43.6320543  54.0759325  92.8466702  42.8033733
  52.8985405  92.4744320  43.6786890  39.3227506  89.8677540  39.9865055
  39.1785097  89.2222500  39.2945886  39.1114616  89.4025230  40.7959175
  81.8505478  20.6941366   7.2232306  81.6165257  20.7334208   8.1505513
  81.9948578  21.6069174   6.9737518  29.0715432  65.7414579  23.3295965
  28.3511949  65.7141018  22.6998520  29.7856617  65.2732277  22.8971291
  35.6657696 100.5431461  29.4520640  35.7394791 101.4010525  29.8701572
  36.3801908 100.5248642  28.8152766  47.1826220  91.2352753  30.6392479
  47.7978420  90.8739185  31.2773347  46.4083147  91.4614010  31.1545658
  18.3835924  98.0350018  77.1248341  18.6964798  97.1314812  77.1694756
  18.1924570  98.1767368  76.1976862  43.5090494  83.4450626  25.8716202
  43.8087940  83.2293224  26.7547059  43.5731173  82.6209641  25.3889298
   7.0049083  89.9193859  26.4361000   7.0417982  90.7633591  25.9860182
   7.6195145  89.3646812  25.9556890  19.9878252  95.7191372  23.0479550
  19.1529453  96.1619949  23.1999063  20.2737546  96.0346413  22.1906710
  58.5889721  75.7101774  12.8247058  57.7154303  75.6644249  13.2133710
  58.7676001  76.6473150  12.7466273  47.8869295  97.3856354  29.1260123
  47.6862812  98.2823277  28.8578343  48.6242771  97.1292877  28.5720849
  54.1107798 106.6646194  76.7693520  53.2193279 106.3363647  76.6519403
  54.3705463 106.3481140  77.6345539  54.3320417  86.4368153   9.5856977
  53.7508869  87.1189690   9.9220824  55.2137184  86.7629337   9.7660488
  26.8754578 103.2861519  35.2034616  27.0666957 103.5147285  34.2938399
  25.9200788 103.3050346  35.2593899  39.8021841  91.9449329  33.4818506
  39.4003510  91.0870934  33.6192489  39.6222281  92.4258614  34.2896557
  22.9568148  83.9376259  37.8969169  22.4387717  83.4194183  38.5128045
  22.3526645  84.6101665  37.5823832  24.7198796  94.3642807   9.0306562
  25.0847816  94.4026089   9.9147433  24.5988178  93.4298992   8.8618058
  94.8917770  82.9629993  33.1130481  94.2633629  83.6815834  33.1835246
  94.6329689  82.3501301  33.8012648  15.9442902  82.9600620  26.6571808
  16.0000455  82.7358818  27.5860882  15.9647763  82.1163654  26.2055278
  45.2716827  88.8005257  14.0958405  45.0545454  89.7297478  14.1709006
  45.0579739  88.5770416  13.1899619  46.0262826 109.0590200  85.2836323
  45.7731107 109.9581279  85.4927731  46.9730142 109.0381346  85.4232597
 116.1872482  71.3806772  34.4394994 116.1250782  70.7548285  35.1610827
 116.2181473  72.2366333  34.8668337  33.3528233 102.8063202  23.7171698
  34.2845035 102.6075363  23.6239815  33.1368089 103.3139038  22.9349089
  60.9306812 102.3386288  39.1303253  60.9408331 102.4078846  40.0849628
  60.9788036 103.2441998  38.8239622  16.0404491  70.5161667  45.6072998
  15.3698409  71.1799908  45.7680988  16.6702664  70.9470320  45.0294447
   8.2907772  91.6412163  36.2404251   7.9650694  92.2275066  35.5574870
   7.9004806  90.7920933  36.0333085  92.4332333  10.6673360  91.5691090
  92.3572540  11.4855075  92.0600891  91.5611744  10.5276477  91.1999989
  39.7098279 105.7559967  66.5775299  40.2186918 106.1478710  65.8678007
  39.5193100 106.4857674  67.1669102 110.8899975  66.3085556  19.5247447
 111.0359573  67.2286224  19.3047106 111.1702251  65.8285570  18.7454474
  19.1845834  87.1170521  44.5647144  19.6363366  86.5399265  43.9490223
  18.2553089  86.9325542  44.4281769   3.8581604 106.2924576   5.3943795
   3.3426094 106.8204117   6.0040540   4.6160948 106.0083389   5.9053022
  27.1788621  79.4312906  39.2058229  26.6341686  79.1453362  38.4724927
  26.8120027  78.9808559  39.9665833  28.5521126  86.9646454  56.9489098
  28.7550974  87.5381088  57.6879406  28.4511161  87.5588799  56.2053251
  19.5103800 107.5316048  52.1168184  18.9014018 107.5845528  51.3802195
  19.9588275 106.6944599  51.9971323  90.5498314  13.6204982  42.7315140
  91.2743282  14.2376566  42.6292276  90.2816963  13.7152731  43.6454916
  43.9367819   0.7850779  18.3567619  43.8347197   0.4244024  17.4760067
  43.1430960   1.3012561  18.4976554  53.0463028  14.3085754  41.7506027
  52.5237989  14.5072174  40.9735823  53.7329435  14.9754632  41.7544127
  63.2407284   4.0502191  16.9215071  64.1721153   4.2051512  17.0788014
  62.8742313   4.9222803  16.7751431  39.0318918  74.6704006  30.6169939
  39.4275975  75.1206446  31.3632679  38.3117270  75.2405405  30.3476667
  13.1478798  83.7961197  27.0031571  14.0936422  83.9432049  27.0146227
  12.7684081  84.6710110  27.0855713  50.0004053  98.0775642  31.0028076
  50.1785707  98.9566898  30.6686831  49.1783714  97.8238773  30.5831265
  22.0852542  77.9269028  18.6141646  22.6959801  77.5060844  18.0090547
  22.3738027  78.8388681  18.6500478  19.5112395  77.7740192  17.8490651
  20.4408097  77.8947878  18.0428302  19.0809464  77.8176308  18.7029839
  56.5611124  25.0018549  42.3406410  55.6631374  24.7058892  42.4898815
  56.9508362  25.0345659  43.2142973  37.4759030  82.2846794  23.3112311
  38.0383205  82.0029736  22.5897336  37.2361827  83.1847572  23.0906940
 100.4950047   0.5998383  67.4451923 101.3095188   1.0909410  67.3373985
 100.3183556   0.6323565  68.3853912  47.3184681 101.7710114  45.7108116
  47.1662045 101.0392094  45.1128817  47.7797556 101.3814449  46.4535618
  19.5126104  92.2029018  23.0954218  19.2570329  92.1789169  24.0175581
  20.4528666  92.3814297  23.1120467  15.8225572  91.6358089   9.6014214
  16.4958215  91.5704060   8.9241689  15.0830829  91.1378765   9.2529011
  35.5369520  96.0967159  53.0576992  35.6714869  95.2067661  53.3834648
  34.5858169  96.2012959  53.0324411  20.3579950  78.9044094  43.7335205
  19.4828081  78.6539698  43.4376144  20.4438829  78.4997797  44.5967293
  86.3298798  25.2457380  18.5622680  86.4280891  25.1424074  19.5087934
  87.1393204  24.8884583  18.1970596  75.8181190   0.1547290  38.5415602
  75.3183651   0.8207312  39.0137029  76.7258167   0.3040139  38.8061905
  44.6743536  92.1076488  20.0798440  44.5931911  91.6095257  19.2665064
  44.7847939  93.0148220  19.7951078  25.7754874  81.3956451  45.8681679
  26.6818213  81.3707066  46.1750364  25.2533937  81.2057209  46.6476440
   4.0859032  51.2596750  92.7260971   3.8780457  50.4115009  93.1180477
   3.9151913  51.1400938  91.7918587  36.9339156  76.0427141  29.8381281
  37.0717454  76.6287661  29.0939665  36.3759899  76.5410280  30.4353142
  24.5657825  91.1723232  48.5359907  25.3733683  91.3199997  49.0281582
  24.8031449  91.3530636  47.6264668  45.5764532  91.0116577   8.1525278
  45.2222061  91.0674477   9.0400118  46.2752867  90.3604412   8.2140881
  44.8100471  94.2354584  23.0306125  45.4505205  94.5350361  23.6758113
  45.2538729  94.3351746  22.1884084 113.3691311 108.8505268  12.3744500
 113.4970665 109.7960663  12.2981703 112.4573612 108.7535954  12.6492679
  50.9087372 107.1673107  49.4163275  50.9688330 107.2507572  48.4646702
  51.6911173 107.6097965  49.7454405  23.9615893  95.5521870  49.1921663
  24.4363999  94.8850060  49.6877956  24.5167708  95.7262897  48.4320974
  15.3629661  97.6648617   2.2633614  16.2096930  97.2665119   2.0618597
  15.4129565  98.5405445   1.8800566  46.4072037  88.1353664  63.4612846
  45.8022785  88.8516808  63.6541080  45.9615326  87.6199055  62.7890396
   1.4271921  44.5456696  93.9506626   0.6166831  44.0374708  93.9183521
   1.8525353  44.3718147  93.1109619  21.3697910  78.0373096  27.9405427
  21.5189528  78.8082314  28.4879637  22.0555353  78.0804682  27.2741151
   9.5861852  81.8356705  65.5337954   9.2982912  81.0234737  65.1170444
   9.2722619  81.7665863  66.4354086  47.7018213   5.5691403  17.2139812
  48.6379576   5.7032895  17.0660377  47.6588297   4.8322400  17.8233743
  74.3293381  10.7507324  42.6674032  74.5925903  10.6787074  43.5848713
  74.3690062   9.8537141  42.3357201  31.6551471  89.8091507  46.4356232
  30.9382153  89.9209023  45.8113194  32.1145344  90.6488514  46.4256001
 112.2809315  76.7788696  12.3167872 111.6244125  76.9046974  13.0018985
 112.4771118  77.6633024  12.0077121  22.3654246  88.0009651  32.8052831
  22.5980210  88.7376976  33.3703971  23.1179404  87.8991890  32.2225356
  65.8510685 100.1457214  46.0729074  65.9384537 100.0354004  47.0197058
  65.7972956  99.2530060  45.7317162  52.1338749 100.4895782  40.5838633
  51.8022728  99.5927048  40.5402708  51.3477039 101.0335827  40.6309891
  16.4198434  52.6926184  24.4990540  17.0898342  52.0455694  24.2784357
  15.7549334  52.5906372  23.8180804 110.2704716  90.9634018  47.4656725
 110.9428787  90.2821636  47.4609327 110.4250813  91.4468861  48.2772017
  73.3889914  74.4446325  15.8319914  73.2215691  74.1288137  16.7199457
  73.9702082  75.1958704  15.9505773  38.9652133  99.3630314  42.6468897
  38.1503296  99.7000694  42.2745943  39.0075469  99.7507477  43.5210276
  42.1708632  89.2564201  24.3468833  43.0178213  88.8125038  24.3896723
  41.5553284  88.6361313  24.7375154   7.9670763  77.8567362  45.7131815
   8.0730104  77.5430441  44.8150730   7.1327907  77.4851990  45.9998178
  21.5860319  89.6492100  25.8815503  22.2220206  90.0728035  25.3050828
  22.1031308  89.3486404  26.6288805  82.8490734   5.1206636   6.6140515
  82.5197697   5.2342176   7.5056207  82.3223114   5.7205480   6.0859448
  55.5216122   6.3236320  35.8122039  56.3736439   6.4516109  36.2292099
  55.2861929   7.1890825  35.4778314  83.3150959   1.3882338  71.4724016
  83.8530159   0.7615449  71.9562674  82.4147892   1.1064688  71.6345501
  34.8073983  81.9065094  74.6081829  34.3599200  81.3986206  73.9313936
  34.4396615  82.7867413  74.5295143  21.1952281  74.2366362  15.3326356
  21.2759948  75.0121260  14.7773671  21.5519595  73.5241032  14.8022842
 105.3938866  45.5823183  92.5674534 105.5046177  45.7333469  91.6287518
 106.1733246  45.9695244  92.9659176   1.3366354  79.8867178  37.5042582
   1.8315980  80.4243088  36.8860006   0.4866899  80.3216076  37.5727773
  66.3831425 101.4223194  28.1498766  66.8061352 100.5856800  27.9566216
  66.2194347 101.3958168  29.0926003  13.7220311  51.1552525  47.8876638
  14.5154357  50.6215048  47.9307032  14.0033722  51.9693184  47.4700785
   4.9497983 105.9412766  40.0869274   4.9122295 105.6344509  40.9928370
   5.8448279 106.2633514  39.9800563  65.6423235   3.1440344  58.7383461
  64.8794365   2.8850004  59.2551994  65.9216881   2.3384349  58.3033800
  41.1365938  81.1909866  63.8391447  40.2210617  80.9754372  64.0168285
  41.1252880  82.1229935  63.6212635  22.6383090  96.8018436  26.8102074
  22.4410915  97.0882607  27.7020049  22.0149040  97.2785473  26.2621641
  31.3851190  87.9599094  34.6646309  31.0636830  87.0695496  34.8066616
  30.7861781  88.3302021  34.0162587  22.9588842  94.6540546   5.9139442
  22.6298881  94.3433666   6.7574275  22.8103042  93.9225483   5.3147399
  28.5098433  42.2211981  20.0025749  28.1506276  43.1072235  20.0490570
  27.7407646  41.6516685  19.9829936  35.1197553  96.2912560  38.8598537
  34.4812751  96.3007259  39.5729351  35.8614588  96.7945004  39.1957712
  39.9907899  88.7989902  27.3017097  39.0948749  88.5651493  27.5443721
  40.2320910  88.1595230  26.6315722  35.4363894  74.1273594  31.2187481
  35.6368947  74.8266649  30.5966544  35.4346752  74.5597124  32.0727396
  15.4749763  58.9302397  93.1753731  15.1017618  58.1234980  92.8202629
  15.3606093  59.5747519  92.4769783   4.9523053  74.7076750  55.7784891
   5.3214324  75.2241278  55.0620699   4.8777643  73.8224792  55.4219723
  68.5274315 108.8859749  33.5386705  68.4872580 108.4837151  34.4063163
  68.2158375 108.2038879  32.9437804  48.7689590  99.2902088  50.2382994
  49.4816113  98.9375210  50.7711840  48.2270002  98.5293865  50.0293207
  17.1786880  63.9594698  37.0937085  16.7198336  64.7993898  37.1084523
  16.4813161  63.3065987  37.0331979 102.4854851  39.8575258  86.5676403
 102.6929188  38.9594364  86.8257904 101.5462971  39.8429155  86.3834000
  21.3881779  76.4831352  30.2428889  21.5029788  77.1010160  29.5208955
  21.3031387  75.6301594  29.8169351  70.3397036  12.4646044  34.8752284
  70.0933981  11.9890893  34.0818501  70.2792788  11.8128085  35.5736136
  39.0408921  86.0727310   5.0489533  39.1321826  85.2340603   4.5967138
  38.8553357  86.7018318   4.3517876   3.4715629  61.6758347  39.1423488
   3.6118257  61.5994883  38.1985664   2.6748917  62.2000551  39.2244601
  17.4470878  87.0925236  33.0186462  18.3257091  87.4109173  32.8115606
  17.0616281  87.7851582  33.5552168  50.0217390  92.3154736  49.3576431
  50.8090258  92.6206303  49.8085213  49.3793488  93.0105972  49.5003986
  17.4289644  89.8866367  37.2787499  18.3691049  90.0567818  37.3371935
  17.3451924  89.2440796  36.5742397   4.0971744  91.8230724  17.9312634
   4.6609250  91.8342209  17.1577692   4.4468772  91.1151409  18.4723377
 106.4616871  80.5073166  43.0143452 107.2698212  80.6231594  43.5140896
 105.7903576  80.9417248  43.5404968 110.6661797  58.5181189  21.5356350
 111.0432434  59.1424417  20.9157348 109.8198318  58.2838821  21.1547613
   8.3488613  76.6556454  43.3385658   9.2895800  76.4825106  43.3024502
   7.9443949  75.7886505  43.3075190  12.7815270  95.5051327  50.5705547
  12.1768534  94.9309254  51.0405397  12.2480071  96.2580681  50.3162384
  16.0597193  69.3051291  13.3715248  16.6826522  69.0006542  14.0314364
  16.4161909  68.9884901  12.5415254  58.5275888  10.1191247  17.3776627
  58.5769653  10.0370920  18.3300614  59.3834543  10.4633224  17.1222174
  63.1881618  96.2252617  21.0111904  63.1243801  97.0502567  21.4923763
  64.1182852  96.1418247  20.8010817  58.1339312  89.7458267  12.4929070
  58.5199404  89.2957401  11.7414761  58.8681173  90.2062511  12.8993738
  33.4771514  83.3738232  70.5971146  33.0782604  82.6161480  70.1692820
  34.0198374  83.7742519  69.9178648  27.8487706  82.6797962  26.4744520
  27.8547668  81.9965172  25.8041286  27.2636890  82.3439789  27.1535301
  42.9217196   3.6440372   9.5756924  42.1589279   4.1147172   9.2397755
  42.9368639   2.8264296   9.0781784  27.8411603   0.7381521  19.9100637
  27.0149183   1.2080910  19.7973084  27.7237606  -0.0742513  19.4176710
  88.7271500  13.7615550   3.0824324  88.0268574  13.1338942   3.2609281
  89.5178986  13.2260847   3.0174521  25.6836200  91.2760735  25.0741625
  25.6748652  90.3375244  24.8863602  26.5936589  91.5392780  24.9371052
  39.8814726  83.0265045  27.1619153  39.4828367  83.8960934  27.1954823
  40.5185223  83.0273151  27.8763342  15.3133512  47.0582294   1.9628295
  15.5421329  47.6362705   1.2349854  14.6740687  46.4491987   1.5931901
 105.3001022  79.3195248  56.8785048 104.5922279  79.7477102  57.3599577
 105.4580212  78.5061884  57.3578548  39.1762471   8.6788791  23.7048101
  39.1393518   7.7463222  23.4921861  40.1110792   8.8709188  23.7785578
  48.2246971   6.6814482  33.6126399  47.7342224   7.4919373  33.4756160
  48.5156536   6.7286199  34.5233250  35.1440334  77.3689461  31.1127186
  34.8258972  78.0109119  30.4779744  34.3954515  76.7924452  31.2660336
  29.2243481  98.7189198  35.0591016  29.5510554  98.4389496  35.9141541
  29.3489361  97.9566097  34.4937754   4.4072545  53.2661247   2.2011386
   4.4250646  53.8893032   1.4748015   3.6483616  52.7109861   2.0218769
   3.2669920   0.6245432  28.3058715   3.6449468   1.2395887  27.6773000
   3.7003088  -0.2077486  28.1167722  43.7576580   7.2724414  33.2963204
  42.8875017   6.9797301  33.5672092  44.3598843   6.7880064  33.8610148
  16.4869630  80.1999760  25.5406475  16.5493977  79.6325254  24.7723126
  15.9249735  79.7192812  26.1483765  67.4647093  15.8412981  76.6774464
  66.9935894  16.5563333  77.1052313  67.0650625  15.0462830  77.0302439
  21.1642981  80.7563400   4.8963109  22.0770073  80.8244419   4.6160349
  20.8861589  79.8903465   4.5980948  20.4882002  77.8041935  36.1896133
  20.6076407  77.6613855  35.2506948  20.6947470  78.7298059  36.3192773
  10.7473183 108.7565613  53.4943199  11.3001955 108.7644863  52.7129793
   9.9175966 108.3833313  53.1968403   1.6336168  90.4169083  54.2674780
   0.9668801  91.0999584  54.1958284   1.6335654  90.1784611  55.1945019
 110.0515747  28.0164838  78.2480764 110.5615520  28.2748818  77.4803591
 110.6387711  28.1696987  78.9883232  43.6583185  86.0464668  29.9981427
  43.4099436  85.9672546  29.0771294  43.4562063  86.9545460  30.2234721
  11.2242436  96.4442253  18.4121954  11.1885476  97.0023918  19.1889906
  11.1615396  95.5526543  18.7548184  76.7896414   4.5840541  68.5400105
  76.8689823   3.6305279  68.5130930  75.8662605   4.7421110  68.7365150
  11.5006733   3.6952946  24.0173316  12.2972083   4.1668355  23.7735820
  11.8033814   2.9991943  24.6004629  41.7371321 106.3735867  44.6096468
  41.0223436 107.0102024  44.6148825  41.6939259 105.9720993  43.7417889
  79.6000147  14.6553564  25.3300428  78.8246298  15.0141168  25.7616615
  80.1121140  14.2686427  26.0402822  57.1950054 104.7045517  50.9338045
  56.2414312 104.6625137  50.8619595  57.4230194 103.9833736  51.5204430
   1.9647899  82.2966099  92.5112915   2.7875450  81.8411827  92.6898575
   1.3191091  81.8474483  93.0567932  65.8964252  49.6211863  32.4086404
  66.8513632  49.5810127  32.3565960  65.7018280  49.4986248  33.3378053
  20.6501532 101.1844826  46.5054369  20.8423567 101.2040043  45.5679369
  20.6898665 102.1014214  46.7772245  49.4644403  96.5826607  53.3344746
  49.3712139  95.8378601  53.9284563  48.5683012  96.7937469  53.0725431
  86.2459946   8.9091617   0.2936086  86.4339924   9.8440027   0.2101984
  86.5896988   8.6716390   1.1548170  34.6773553 101.1303043  21.4967036
  34.5945024 102.0466042  21.2325692  34.1104603 101.0499668  22.2637796
  43.8177538  95.0036240   2.5450805  42.9112959  95.0200272   2.2380047
  44.3420887  95.0115299   1.7443053  66.4705896  67.3460340   7.0865166
  67.0919180  67.0109129   7.7329493  66.3275433  68.2574034   7.3418200
  66.1500740  99.5194149  48.6173248  65.6161833  98.8798714  49.0886784
  65.9542465 100.3544998  49.0421867  28.1763983 101.3714600  30.9365845
  28.0905938 102.2557831  31.2927341  28.8254857 100.9487247  31.4989114
  74.8899984  92.4446487  76.1990929  74.5384979  91.6466713  76.5939474
  75.2676535  92.9289055  76.9333267  66.1065292 103.6131477  38.3546400
  66.2931156 102.7409554  38.7020469  65.2749157 103.5135365  37.8912544
  36.9053006 103.2494164  60.3330040  37.0289874 103.5848522  59.4450712
  37.7904224 103.1922054  60.6928825 106.5295410 106.6155052  23.8161516
 105.6187916 106.8881416  23.9277053 106.5030766 105.6607056  23.8783956
  49.0524244  91.5105057  10.3046930  48.1440353  91.3464355  10.5579495
  49.1345215  91.1142826   9.4372237  79.0923595  11.9433892  29.0179849
  79.9891663  11.7633832  28.7359118  79.1893005  12.3523629  29.8779702
  78.8384151  15.1578486  45.4531384  78.8497782  14.2146277  45.6157351
  78.7039518  15.2364826  44.5087004  50.7217932  89.9834156  44.8079586
  49.9735641  89.9532127  44.2117453  51.2475348  89.2193031  44.5714092
  24.5763612  98.1142902  39.8201108  23.7294245  98.3870411  39.4672084
  24.4239068  98.0164623  40.7600164   9.5921206  58.2259655  45.5265999
   8.9019591  57.5627327  45.5209255  10.4062009  57.7249289  45.4769325
  71.5009165   2.9457054  54.8178911  72.3447371   3.3732685  54.6716499
  71.2607622   2.5907189  53.9620018  35.0432754 105.7912827  59.5273352
  35.0718808 106.7131233  59.2711735  35.5975962 105.3470993  58.8857317
  46.6486406  82.5548553  24.5742917  45.9507895  82.4410915  25.2195024
  46.9415617  81.6647816  24.3788528  64.8430681  95.5589771  12.4271631
  64.5108509  95.4886532  11.5322220  64.1740274  95.1354504  12.9649758
  67.1580839  88.0625057   7.4645013  66.6368532  87.7663612   8.2107228
  68.0606842  88.0503941   7.7829278  71.9618702  11.3266850  28.8920069
  71.3100815  11.9347167  28.5431480  71.4635181  10.7444525  29.4654894
 116.0476398  33.1738019  88.2378101 116.4569092  33.4896898  87.4322414
 115.5345631  32.4136519  87.9636574  92.5967789  15.8913291  19.8119402
  92.3571396  15.0103951  20.0996232  92.3877239  16.4523435  20.5587912
  23.7677169  97.6667023  67.3025656  23.6422491  97.6231098  68.2505083
  22.9188347  97.4178505  66.9369125   0.8030430  14.3279469  45.1511145
   1.4789537  13.6535215  45.2183914   0.1761912  14.1084063  45.8403826
  19.3171930  80.3723240  31.5601301  18.7380278  79.7353172  31.9784760
  19.8624957  79.8500729  30.9718037  73.5350084  95.6779099  38.3053422
  74.3476105  96.0835552  38.0030704  73.5280943  94.8161507  37.8887439
  23.9404130  87.1666241  25.9437180  24.0903854  86.4718056  25.3026462
  24.3361735  86.8374252  26.7507124  99.8789692   2.1743469  55.7607698
  99.4966793   2.5116819  56.5708876 100.5563354   2.8109217  55.5323505
  37.5547791 102.2303963  11.9156003  38.1602597 101.4901924  11.9570136
  36.8027496 101.9542885  12.4394751  61.6532755 107.6324940   7.4489373
  62.0740700 108.2167721   8.0796427  60.9874582 108.1753540   7.0267689
  70.7754803  18.6104012  36.1146379  70.6449556  18.8906729  35.2087450
  71.6678190  18.2644761  36.1321163  79.2256546   0.8970819  58.9673471
  80.0616074   0.5401790  58.6672926  79.4569874   1.4604014  59.7058535
  76.4089012  27.7399063  40.9895277  75.6985235  27.1528101  40.7308578
  77.0930624  27.5900507  40.3370667 116.0887909 105.7470608  32.7994657
 117.0120049 105.5064011  32.7221632 116.0852909 106.4939594  33.3981061
   5.8719260  84.2010307  47.5417709   5.1668155  83.6067486  47.2851038
   5.5648875  85.0670147  47.2733879  70.4335213   6.2304729  11.4051652
  69.5921707   6.6864657  11.3844097  71.0608912   6.8699116  11.0678923
  32.0158339  97.4396324  32.1209431  32.7702355  97.7159786  31.6006088
  32.3943114  96.9435501  32.8468108  46.2085724 106.3951778  27.1800327
  46.3525105 106.1258602  26.2728500  47.0742702 106.3441753  27.5852466
 108.3048344  18.6482263  38.3913732 108.0171394  18.1388605  39.1490102
 108.9310646  18.0791211  37.9439521 108.2479858  15.7265818  84.5735741
 107.4222279  15.6403458  85.0499439 108.1358910  15.1763475  83.7983894
  78.7418413  12.7927256  33.1714702  78.2171154  13.2211328  33.8477564
  78.1029463  12.5032592  32.5201225  97.7850819   3.5454449   5.7435685
  98.7187481   3.7042990   5.8823746  97.3767185   3.7723422   6.5790278
 114.8682022  66.4394712  35.7643890 114.5094681  67.3255777  35.8128619
 115.1603317  66.2502337  36.6560650  36.5148425  92.0441628  35.8321881
  36.3662672  92.5498199  35.0331473  35.7111669  92.1567440  36.3397908
 110.3047562  84.8011684  38.0127025 109.8951149  84.7930431  37.1476221
 109.5709610  84.8585987  38.6246514  34.7169542  95.9939003  44.2517853
  34.9091482  96.8275452  44.6811199  35.4820061  95.4484272  44.4344854
  80.3796196 108.7529373  37.8963470  80.5271435 108.6996365  36.9520855
  80.9254265 108.0576515  38.2636523  74.8095989  90.6460381  19.3881655
  75.0998020  91.0732555  20.1940823  75.5360985  90.7686329  18.7771010
  99.2047501  22.3251033  40.5537987  98.8502121  22.1743584  41.4300489
  98.4732914  22.1408677  39.9645138  25.3328323 108.9573765  15.7996500
  24.4732666 109.2209435  16.1281478  25.1529121 108.2074547  15.2326500
  62.4224234  13.7165582  43.7224579  62.8985357  14.3453693  44.2648125
  61.9710255  13.1523013  44.3502188  11.0371172  81.0680294  33.1768131
  10.9426415  81.1733150  32.2301245  11.5659547  80.2766418  33.2781887
  50.5184698   4.2583454  28.2789016  50.9172297   4.9005207  27.6916766
  49.9566603   3.7309384  27.7110577   3.7412253  95.4006672  21.5400505
   3.6599573  96.1555672  20.9571671   2.9574281  94.8791218  21.3671875
  43.3891773 105.0265598  38.0433321  43.3075047 105.0067711  38.9968348
  44.3328381 105.0461769  37.8841281   8.0334461  80.2080345  43.5142565
   8.5203600  80.7565498  44.1292953   8.7075782  79.8057127  42.9666090
  58.3331251   9.5957065  20.1966619  57.3798513   9.6510684  20.1300049
  58.5245991   8.6608857  20.1213026  20.2754998  83.4903908  45.6059170
  20.5783129  84.1333485  46.2471151  19.3247342  83.5996914  45.5877733
  98.8153458   3.1196573  47.9438162  99.1323090   2.9161978  47.0638323
  98.8373184   4.0754274  47.9912806  93.9726448  31.2160230  47.6469135
  93.1031895  31.2438416  47.2475433  94.4479942  31.9383693  47.2364283
  60.4317093  92.8093338  15.6255209  59.8256922  92.3083210  16.1713803
  60.2598000  93.7230110  15.8532822  28.9403272 100.0622463  54.8411751
  28.0000091 100.0564861  54.6622849  29.2706490 100.8221912  54.3620014
  96.0273361   6.3605195  35.1039219  95.5977345   6.0465270  34.3082547
  96.9084167   6.6042536  34.8201561  37.4870491  88.5260868  41.4018536
  36.7439318  87.9227543  41.4009714  37.0891023  89.3961811  41.4301348
  13.4458113  46.9631338  92.8468513  13.3840215  47.8654528  93.1602764
  14.2997432  46.6602898  93.1555843  38.3969402  90.0340652  45.5327272
  39.1201711  89.8134518  44.9457836  38.7046576  89.7728634  46.4006662
  96.4336109   8.2406157   9.3275040  95.7626724   8.8089007   8.9491856
  95.9777832   7.4181712   9.5064867  46.4517307  96.9106007  23.2141256
  46.2270832  97.5840759  22.5720930  46.4738178  97.3751354  24.0507579
  47.6567650  93.6839581  50.4234028  46.9769001  94.0612316  50.9816885
  48.2469416  94.4143677  50.2378702  54.0253019  84.1980553  68.2628918
  53.1793118  83.8558865  67.9740143  54.5273685  84.3084526  67.4554396
  45.3833294 103.5004616  20.8914328  44.5023775 103.1992245  21.1137390
  45.9406137 103.1412697  21.5818262  89.1005802  46.3278103  93.2235527
  88.8878536  46.8767405  93.9783096  89.9955177  46.0307455  93.3880901
 108.9752483   0.3844522  10.3707778 109.5833015  -0.1093918   9.8206717
 108.5906219   1.0325168   9.7806048  36.4814687  74.1062260  63.3271551
  36.2370992  73.2308578  63.0267382  35.6545544  74.5871115  63.3617163
  34.6743083  95.3138542  20.2518535  34.9542046  96.2117386  20.4298949
  34.4010663  95.3255844  19.3345571  25.4269552  99.3806744  46.9630051
  25.7786274  98.4987545  46.8414545  24.9669528  99.5699120  46.1451912
   9.6331954  93.5934353  90.0354671   8.9803410  94.2719555  90.2075863
   9.3807143  93.2276821  89.1876984  96.0362244   4.4868681  52.6077604
  96.0229301   5.3512913  53.0186462  96.4436245   3.9176023  53.2605934
  64.4891167 106.7858887   5.9518772  64.1600657 107.5811672   5.5329591
  63.7032700 106.2757874   6.1480194  53.6314917  93.2671356  30.7630515
  53.2592058  92.5687408  30.2246356  52.8800440  93.8070297  31.0081291
  83.4012222  17.7828014  44.4813776  82.4488926  17.7457333  44.3924093
  83.6116123  17.0818198  45.0983000  95.3366280  18.2956684  32.9026699
  95.3852940  18.8312495  32.1108246  95.0320721  17.4416554  32.5958467
  98.4468460  29.2675138   7.0614809  97.9440308  28.5322881   7.4119878
  98.6760044  29.7892666   7.8305656  51.2377024  83.3048344  16.1783361
  50.4347038  83.2295895  15.6628084  51.9083643  83.5532570  15.5421531
  61.7707634  85.7797813  15.9017253  62.2602034  86.3771725  16.4672375
  62.4421406  85.2359104  15.4897797  26.7741728  89.0698624  75.3696918
  25.8711958  89.1984940  75.0793171  27.3075652  89.4052792  74.6491241
   0.4319858  70.9861946  92.7999020   1.1931031  70.5196857  93.1453037
   0.8032137  71.6762829  92.2501755  50.3760624   5.4343647  23.5604072
  49.8219919   5.9330362  24.1608787  51.1285162   5.1720709  24.0907359
  34.5134592 100.8373833  40.1718950  33.9851379 100.4516411  40.8706903
  33.8816261 101.0564423  39.4870400  90.8088303   7.1611226  23.4095550
  91.7189217   7.3741001  23.2031560  90.8609104   6.6361052  24.2082286
  47.7649736 103.2149220   3.8676822  48.0709028 104.0126896   4.2991930
  48.5536766 102.8338718   3.4816939  17.0536411 100.0572205  37.3578429
  17.7461195  99.9191475  38.0040932  17.4968743 100.4691505  36.6161609
  64.8249435  19.0489137  18.7681067  65.5033255  18.7148607  18.1812179
  64.0445900  18.5411286  18.5457671  51.3134098  84.8330975  49.6238899
  51.7334747  85.5587482  50.0856352  51.0460567  85.2063751  48.7839937
  62.3666906  97.2959042  30.3139162  62.6102114  97.2314548  31.2373734
  61.4331770  97.5071430  30.3265667  53.6517477  98.6878586  32.0315003
  53.3186960  97.9508495  31.5195060  54.4449091  98.3510017  32.4482179
  68.2104540  39.1120529  43.4954357  68.7456799  39.1960025  44.2845583
  68.5567904  39.7761130  42.8993607  64.9603319   5.8623612  70.3348732
  64.7617102   6.7893004  70.4674006  64.5005512   5.6319290  69.5275736
  45.1397657  83.2039165  64.8534012  44.6397686  83.2068729  64.0371752
  45.9294796  82.7032280  64.6487141  39.2720079  85.4568481  28.6511946
  39.5134592  85.9957600  29.4045281  38.3483934  85.2485752  28.7918806
  94.0228367   2.0552492  93.1473541  94.9664211   2.2062489  93.2027531
  93.8710785   1.8211938  92.2316933  79.7519398  62.4448538  36.8737721
  79.2874718  61.7442131  36.4159465  80.6783104  62.2331238  36.7587304
  27.0552421 106.5212154  35.2580404  26.5260339 106.2035656  35.9896588
  26.5098047 106.3725948  34.4856143 111.5308189   4.4146001  36.9887137
 112.3102093   4.5163253  36.4424276 111.7878819   3.7791532  37.6568127
  33.9721513  99.9931908  53.1279659  33.1394601 100.4302788  52.9496241
  33.7577701  99.0603065  53.1280661  41.6963100   5.9932965  34.6153879
  41.4451551   5.1537299  34.2303133  40.8660221   6.4045507  34.8556423
  49.2792940  94.3597412  55.1280546  49.4746590  93.4300900  55.0104570
  48.8215685  94.4039631  55.9675550  76.5651751  33.3152199  45.3827143
  76.9934702  34.0093827  44.8817825  76.9405031  33.3867145  46.2603569
  60.9825850  84.5545197   4.3586966  60.3653765  85.2793121   4.2588508
  60.7051992  83.9120293   3.7056375  86.9282627   7.5054491  53.5689020
  87.5722790   7.5310630  54.2765856  86.2185287   8.0726111  53.8703012
   3.2852638  92.6630116  49.1361380   2.9951751  91.8160439  48.7974310
   3.9206621  92.4435711  49.8175669  57.5859022 104.9364662  24.4667959
  58.0790615 104.3368721  25.0267243  57.8677845 105.8085442  24.7429299
  51.8527365  83.5356808  45.9163570  51.3265705  83.2078457  46.6456747
  51.9771862  84.4649029  46.1094761  96.4985466  98.4495926  64.0454006
  95.5640793  98.3692741  64.2366028  96.7989349  97.5474167  63.9355135
  93.2683563   8.4048307  22.7821350  93.1422997   9.1154361  22.1533418
  94.1878796   8.4728259  23.0392337  66.3976526  18.1717348  27.0862126
  67.3091221  18.4604025  27.0401239  66.0251236  18.6699522  27.8136969
 111.9951630   6.4742613  34.0832257 111.4412308   5.7403654  34.3492937
 112.0652771   7.0181537  34.8677611  31.9161224  93.2826424  38.0526900
  31.6408873  92.4555683  38.4482050  31.3377833  93.9384937  38.4420586
  45.1080990  88.4535122  19.4409490  45.4985952  87.8888702  18.7739193
  44.5940971  89.0904331  18.9445949  80.5115032  17.5202942  44.3734598
  79.9076033  18.2214451  44.6182442  80.0003338  16.9553447  43.7940025
  44.4735813  83.5828876  31.0652947  44.4446373  83.7099838  32.0135784
  44.1964197  84.4241142  30.7023263  63.5139275  90.1105022  45.5881214
  62.6263237  90.3137875  45.2930546  64.0365934  90.1009464  44.7862720
  37.4138975  82.0542908  62.2423172  37.4115443  81.4352226  61.5122604
  37.8160572  81.5715218  62.9644203  27.4050832 104.4588757  42.4385548
  28.2675171 104.5586777  42.0354700  27.2535563 103.5138035  42.4491167
  37.0866919  99.3318748  47.2786045  37.3935199  98.7642384  47.9856300
  37.5545549 100.1560593  47.4129963  42.2066879  94.1748905  22.8131604
  41.9645500  93.8281727  21.9544482  43.1616306  94.1131878  22.8357840
  35.6394148 108.1733894  36.7115116  36.0814571 108.5954094  37.4482155
  34.7244382 108.4416676  36.7956424  10.6267810  93.9387321  55.6048012
  11.2046456  94.6612930  55.3594398  10.5575860  93.4074306  54.8116016
  37.8861499 102.6788425  53.1830215  38.4806323 102.4594116  52.4656105
  38.3988571 102.5209045  53.9757490  80.2118778  85.9879017  42.5393438
  80.2412319  86.4801884  43.3597231  79.9771118  85.0979710  42.8023052
  35.8315396  23.2811666  42.6360703  36.4736438  23.5869050  41.9953966
  36.1969805  23.5379076  43.4826899  48.9982843  93.0962181  60.6478643
  48.0943012  93.4102726  60.6683683  49.1787958  92.9463959  59.7198534
 109.3023872   1.9980392  12.4214435 109.2973518   1.4355192  11.6469908
 108.6663437   1.5963882  13.0133510  64.9724674  89.1316795  27.4634552
  65.6847525  89.6770096  27.1295404  64.7643328  88.5402584  26.7401743
   9.9678731  53.4992409  87.6649475  10.7820177  53.4749317  87.1621418
   9.3755549  52.9163027  87.1899986  96.7752743   2.0236464  49.7219229
  97.7266312   2.0283863  49.6164322  96.6237926   2.4801235  50.5495167
  40.9877062  96.7910004  48.3692789  41.7446995  97.3632050  48.4948874
  40.2336740  97.3415375  48.5804129  94.5140457  11.3036346  43.5281515
  95.4698658  11.3167942  43.4784269  94.2310143  11.9327617  42.8645802
  29.0031528 109.9129486  43.9495897  29.4899321 109.1899204  43.5539770
  28.0846667 109.6558762  43.8687754  30.1017404 104.6004105  17.2602963
  30.6966376 104.9668694  16.6060519  29.7329116 103.8234520  16.8401468
   9.0353775 109.1495514  40.1252079   8.4348661 108.4932709  39.7717690
   8.4718192 109.7553730  40.6064653  21.9837809  80.6728363  49.9507713
  22.7249527  80.9168816  49.3963909  21.8471670  81.4329433  50.5162811
 114.9060440  49.2442942   6.4546549 114.6211529  49.2697573   5.5411887
 115.3352356  50.0882387   6.5953046  54.0633345 104.2689037  33.1081223
  54.5894051 104.9049282  32.6233983  54.1601849 104.5269394  34.0247846
 104.1078854   1.0176717  59.9378872 104.7013950   0.3560019  60.2930880
 104.1098309   1.7168497  60.5916309  45.9059095   6.4482152  20.1702404
  45.4283571   7.2380579  19.9166179  46.8265629   6.6696513  20.0302672
  39.8784137  28.4988403  46.0563087  40.3861332  28.2599449  46.8317938
  40.1887465  29.3749213  45.8273792  65.0643349   0.2789144  74.9292469
  64.9912024   0.0357855  75.8521605  64.1774464   0.1773266  74.5837975
  76.1490631   8.0354762  71.6518021  76.0004330   8.9057738  72.0215654
  75.9604263   8.1362355  70.7187986  21.8932605  66.5215731  78.9432764
  21.6071606  65.6223965  78.7824678  22.6877785  66.6176510  78.4181690
  74.9396086  15.8287656  66.5272570  74.8763609  15.2190185  67.2624016
  74.5672274  16.6451657  66.8605042  82.9043865  14.7154009  55.0058651
  83.4676361  14.5837426  55.7685232  83.3791637  15.3450513  54.4633150
  28.4664631 103.5138035  50.5086613  27.5193000 103.6330032  50.4386187
  28.6162877 102.6127815  50.2223969  51.7390299  13.5698736   2.4352099
  51.5439463  13.4010863   3.3569938  51.9949293  14.4918728   2.4094804
  83.3211422   3.4142742  46.5507412  84.1257477   3.2646176  47.0471668
  83.5679150   4.0524054  45.8813238  84.9164294 109.6193537  29.4163513
  85.0467037 108.8375827  29.9530959  84.2823462 110.1431587  29.9060440
  37.9644656  96.9424725  55.7235575  38.1260252  96.1415863  55.2248478
  38.2639694  96.7375946  56.6093063  42.7542448  97.7341080  17.5912988
  41.8630505  98.0724049  17.6782715  42.7538776  97.2707844  16.7536998
  74.9878311 100.4859066  26.8814874  75.5022240 101.0070705  27.4979496
  75.6383276  99.9800491  26.3944578 116.2026024  23.0435205  21.7557573
 115.2931213  22.7917004  21.9159555 116.4774990  23.4755611  22.5644636
  43.7378168  89.6175003  39.7780561  44.1051340  89.0262890  40.4351568
  43.7489653  89.1101551  38.9664507  34.9463725  97.1522331  57.1121168
  35.1268244  96.5557003  56.3856077  34.7803354  97.9966640  56.6930723
  23.8101792  82.7971554  20.4575562  24.0387797  82.8393364  21.3861012
  23.9057112  83.6972618  20.1462436   1.2232462  75.6912899  21.5882707
   1.8714449  75.9154415  20.9205699   0.8044535  76.5243530  21.8047333
 111.7118645  18.2834733  87.5563240 112.2017479  17.9301012  88.2988739
 112.3586273  18.3533561  86.8541431  87.2021866  81.9571972  43.9791727
  87.4763775  82.8711510  43.9033508  86.3472843  81.9272041  43.5496569
  95.7780743   1.5830976  41.7512512  94.8879433   1.4698982  41.4179754
  96.3352394   1.5080157  40.9765482  55.9319305  22.2116685  11.8001676
  56.0844135  21.9339108  12.7034009  56.1576986  23.1418419  11.7942703
  36.8403864  10.0958180  40.1224089  37.4093604   9.8054475  39.4095373
  36.0647750  10.4444468  39.6829581  56.1559343  94.7012711  35.9133363
  56.0244989  95.3524303  36.6024971  55.4970074  94.9152374  35.2528334
  25.2713585  82.1959305   8.6636883  24.5644999  81.5519714   8.6200637
  25.0787091  82.7103138   9.4476092  33.8871884  96.9687176  27.0395350
  33.5825086  97.8647041  27.1830845  34.6833873  97.0672321  26.5174317
  49.2896652 103.1894875  16.5137076  49.0978813 103.3813858  17.4316525
  48.4380722 102.9809093  16.1296332  17.9131722 107.0053005  34.0846443
  18.7970054 106.8127251  33.7716174  17.4123418 107.1890640  33.2898903
  42.8221703 105.6691551  50.4971743  42.2622919 105.7639217  51.2677526
  43.7132168 105.7520866  50.8368635  63.7858105   9.0029770  32.9693198
  64.0717602   9.0038103  32.0558286  64.5753384   9.2140800  33.4676290
  60.4392815 100.2397346  22.4106145  60.6815434 101.1650181  22.4480534
  59.6208477 100.1862812  22.9041123  52.5674725  90.6739998  24.1178489
  51.9893885  91.4297962  24.0137839  52.3771906  90.1208019  23.3602214
  97.6073360  13.7550724  63.3893490  97.2339535  12.8786170  63.2963896
  98.5121727  13.6628175  63.0910301  31.2268758  92.1368217  51.1692190
  30.8513880  92.0871830  50.2901411  30.4690170  92.2059822  51.7498207
 105.8697224  11.2497854  57.3831654 105.8927631  10.3384185  57.0914268
 105.4098034  11.2211502  58.2221460  17.9930544  99.5088100   4.5374241
  17.4242508 100.2568245   4.7195205  18.4374726  99.3381023   5.3678370
   4.9550748  46.1010790  94.4351673   5.7669055  46.5893269  94.5721722
   4.7024488  45.8060694  95.3100300  45.8191156  98.1790066  35.2926159
  45.7213068  99.1311932  35.2939105  46.2771606  97.9841709  36.1102128
  44.3898010 104.6090794  17.7444899  43.4684467 104.5072842  17.9831886
  44.8014069 103.7913799  18.0240870  54.3746996 103.5520267  19.2129576
  53.7594223 103.8160038  18.5288680  53.9936781 103.8927460  20.0222611
  84.4750595  14.1530800  21.1201954  84.9603748  14.9317396  20.8474422
  83.6667252  14.1831911  20.6084180  55.6487179 100.1960087  39.1695309
  55.6963158  99.4232368  39.7323704  54.8041964 100.1175117  38.7258482
  83.5157871  98.1706429  50.4979658  83.1320000  98.9991188  50.2106237
  84.0876293  98.4115982  51.2267780   7.1627480  30.6115627  92.1711922
   8.0050236  30.4847789  91.7344666   6.5476620  30.7867932  91.4590168
  34.4498086 104.0652847  14.7201967  34.3658328 104.9986362  14.9152279
  33.8330507 103.6397076  15.3157878  38.0849934  90.5292130  20.3834891
  37.1284175  90.5062389  20.4093122  38.2943201  90.7815456  19.4841862
  98.0832291   5.3677857  77.4099255  98.4947681   6.1978883  77.1695185
  98.5976028   4.7036797  76.9509983  46.9161224  94.1658688  44.8302507
  46.3990116  94.8224163  45.2969170  46.5253925  94.1294956  43.9571857
  53.0249023  94.7248077  44.9935007  53.3440304  94.5779514  44.1030931
  53.0229855  93.8552856  45.3937006   2.9701898  13.0906463  40.9797382
   3.0116788  12.7608430  41.8773699   3.7889782  12.7985048  40.5791521
 107.3959637  19.7271812  24.3950248 107.0531750  19.3247128  25.1929903
 108.1026268  19.1443217  24.1173077 100.6617832  34.1809011  29.1097808
 100.2314281  34.8072338  29.6917844 101.5651417  34.4916129  29.0494657
   2.0566598   3.7624532  30.8839226   1.6655742   3.5297942  31.7260337
   2.4226691   4.6359137  31.0229754  36.4206314  84.4047451  28.1726599
  36.4667344  84.2390251  27.2310424  35.5215454  84.1795540  28.4117484
 106.5471840  -0.0686297  21.3292193 105.9563732   0.1752391  22.0417547
 106.0057735  -0.0186129  20.5414319  84.5577240   7.0800483  21.3469005
  84.8556805   7.2573745  22.2390914  84.6226311   6.1292714  21.2572265
 108.3244133  73.7774467  87.7631855 108.3175278  74.2872286  86.9530582
 107.4112034  73.5216522  87.8929901 105.2234173  59.6518993  72.2836828
 105.3314018  60.1277781  71.4602089 105.7646561  58.8691568  72.1807241
  13.1057668  24.6494699  56.6303253  14.0386140  24.7287083  56.4309502
  12.8192067  23.8824224  56.1345911  58.6266518  88.5846329   9.9237013
  58.6068439  88.1077766   9.0939760  59.4959450  88.4055805  10.2821660
 107.8882167   0.3898610  38.9866590 108.1962869   0.7809628  39.8041940
 108.5277650  -0.2955257  38.7931156 104.7439671   9.3609798  12.5590026
 104.9374866   8.8991898  11.7432010 105.4627895   9.1236949  13.1448591
   3.7100285  27.6469898  34.0498972   3.2987979  28.2946205  33.4774494
   4.6127713  27.9505920  34.1453600 103.7327671  75.3250456  55.2958488
 103.6895370  74.9364662  56.1695623 103.0874538  76.0317326  55.3158236
 112.7208328  51.3497496  93.7044239 112.8777409  50.8686161  92.8919411
 111.7674637  51.4046621  93.7699699  62.6075983 101.3584518  36.5697217
  62.6649666 101.5920067  37.4962163  63.2972002 100.7066441  36.4438868
 102.8149891  17.5675440  55.0872326 103.6695766  17.5435185  55.5177402
 102.9934978  17.3007739  54.1854572  36.8906474 102.4689198  20.0229383
  36.1969471 101.8664265  20.2912879  37.6378965 102.2341442  20.5731440
  61.6499853  84.1274738  30.2016091  60.8875704  83.8483047  30.7085776
  62.3343754  83.4994698  30.4327989  36.5088916 104.0126991  45.2198124
  37.3008776 104.4062424  45.5860281  35.8411789 104.1482353  45.8921337
  93.1267738  78.4713650  10.7305229  94.0565968  78.6810875  10.6429398
  92.9944229  78.3580589  11.6717327  22.5851870 109.0935326   6.8969780
  22.6024008 108.2291889   6.4860737  22.1808982 108.9443970   7.7516961
  65.6277943  95.6235981  31.2006807  65.4699135  96.3055706  30.5478263
  66.4340973  95.1967716  30.9109879  85.3136349  24.1472602  58.2791233
  85.8799076  24.6222067  58.8874006  85.2996159  23.2510495  58.6150408
 112.8553867   9.5069778  15.1939547 112.5817585   8.5902762  15.2258790
 112.0392323  10.0029290  15.2584326  45.0993490  97.4117661   6.7313391
  45.0539207  96.8631744   5.9482574  45.0326824  96.7948341   7.4601650
  99.6248913  24.6123004  72.2187996  99.3312931  25.5209398  72.1523905
  99.2968464  24.3160439  73.0678272  21.3136697 108.3581829   9.2117959
  21.7396092 108.0777550  10.0218379  21.0363746 107.5435734   8.7925714
 116.2228870  43.7289762  87.3970318 116.8805313  44.1652727  86.8553925
 115.7350731  43.1784248  86.7845249  56.0127926  68.4952497  11.7851090
  56.8449593  68.7777901  11.4057600  55.8033895  69.1690350  12.4319422
  36.4508775 109.7960602  18.1623173  35.9365800 109.2291822  18.7371051
  35.8508256 110.0253169  17.4526596  77.9003096  29.3203330  12.6582110
  78.3178663  28.7677789  11.9974804  78.4817648  29.2676067  13.4167397
   4.5131421   1.2705909   4.2642251   5.1904041   0.9271769   3.6814597
   4.8304671   2.1380843   4.5152065 103.8038635   4.3002757  20.4334140
 104.0596104   4.7753263  21.2240815 103.9170647   4.9347028  19.7256589
  86.6364765   6.6524112   9.2341876  86.4255333   6.1922020   8.4218192
  86.6407871   5.9677738   9.9031305  70.5643892  89.2952061  36.2044930
  69.9673510  89.9207783  35.7940888  71.3611507  89.7986984  36.3714957
  74.9544621  39.5374513  22.7443886  74.7122478  39.9625349  21.9216681
  75.5057001  40.1791191  23.1923008  16.9585156  61.0284805  86.8246365
  17.3974180  60.3332043  86.3345528  16.8541694  61.7386866  86.1914349
  78.7896490  22.2346807  13.8447094  79.1883516  23.0332136  14.1905570
  77.8505373  22.3557734  13.9848614 115.4880238  13.2005203  63.9644289
 115.1027679  14.0217376  64.2700672 115.9248638  12.8392255  64.7357082
   2.7304485  38.5201073  51.0675383   1.9931279  38.7875652  50.5188513
   2.3503244  38.4003973  51.9378281  56.0073042  89.9838352   3.8515067
  56.1805868  89.9842644   2.9101220  55.1249456  90.3458595   3.9327884
   5.9529257  21.3474822  32.4473500   5.9515083  21.0111976  33.3435321
   5.1115304  21.0690665  32.0857263  82.1914291  13.7195790  19.7153318
  82.4137974  12.9418230  19.2035902  81.2533665  13.6341429  19.8855627
  73.4660289   0.4455651  65.8713293  74.1859433   0.5121602  65.2440214
  72.6894328   0.6990899  65.3724766   8.5726231  40.9444857  85.9350109
   8.2344663  40.7262039  85.0665379   9.5234483  40.9575176  85.8254910
 109.0146446  32.0217752   7.3725408 109.1106033  31.1612582   6.9644523
 109.2192936  31.8732071   8.2957304 110.3238869  14.6966338  61.3020658
 110.5146217  13.7867284  61.0741949 110.8992004  14.8833990  62.0439339
  95.1331902  20.9581304   6.9047564  95.7370377  21.5429950   7.3625118
  94.8888206  21.4378691   6.1133242  15.6322229   5.8361280  52.9128981
  14.8762012   6.2580389  52.5046635  15.3315699   4.9503064  53.1157780
 109.4984531   6.3592070  71.9446754 108.7590790   5.7667124  71.8086433
 110.2651978   5.8493710  71.6831446 100.9092712  11.2173998  39.5001411
 100.4892063  11.7680311  38.8393974 100.8442307  11.7233443  40.3100920
  81.9100380  10.0693786  48.6995983  81.3348293   9.3688273  48.3920240
  81.3257790  10.8142817  48.8409853  50.6629944  16.1607397  69.0843534
  50.1300430  15.3656554  69.0903807  51.4694452  15.9051228  68.6365509
  16.4384174  12.7525258  28.1476593  15.4958916  12.8557622  28.2788777
  16.5303540  12.5561857  27.2153354 102.9992199  38.9054203  31.2050200
 103.3994102  38.9637947  32.0725870 102.3603725  38.1968927  31.2831235
  80.0670528 101.3360023  46.1896086  80.8454800 100.8195210  46.3982201
  80.3309059 102.2421265  46.3494539  21.6213775 104.3242645  73.4449959
  21.0809088 103.9987183  72.7251768  21.0356975 104.3268013  74.2020988
  72.7730322  83.1556702  66.3353872  71.9010496  82.8425884  66.5759373
  72.6321936  83.6689472  65.5398083 109.2234421   6.0833186  30.4455566
 109.8441982   6.7231959  30.7940578 108.5091019   6.0710776  31.0825801
  61.6593504  88.8427639  59.3665886  61.6845131  89.2297363  60.2417135
  62.5548744  88.9303970  59.0401125   7.8442824  66.3592529  86.6103458
   7.7961254  66.3549805  85.6543636   6.9418752  66.2173128  86.8962574
  45.2304077  94.6139812  79.3537712  44.7822094  95.4251766  79.5931721
  46.0021687  94.5908070  79.9195242  54.1924381  89.9202824  44.5679235
  54.2227173  90.8157730  44.2311525  55.0311565  89.8037624  45.0142527
  54.9373674 109.7782516  68.2359982  55.5043602 109.4678783  67.5300121
  54.0648890 109.8147488  67.8439760  65.0699615  28.0063224   3.7056670
  65.8900309  28.0377102   3.2129878  65.3202724  28.2305646   4.6019325
  70.7409763 102.0110989  28.7574434  70.8072519 102.2611237  29.6790361
  71.5477085 101.5266895  28.5820770  96.0305882   6.3749593  61.9337988
  96.4227867   6.0120022  62.7279472  95.4696274   7.0847148  62.2465324
  85.4511356  16.5496671  36.5506864  85.5229282  16.6875458  37.4951792
  86.3017750  16.8188167  36.2039971  76.2279987  95.4617596  49.4524574
  76.9568825  94.9905491  49.0488291  76.1853409  96.2906837  48.9756918
 104.6155930  99.0138912  41.1885166 104.2038727  98.4920883  40.4997301
 105.0950146  99.6958923  40.7181215  53.7466288  94.5903301  41.9605350
  54.6655655  94.8449421  42.0439291  53.7647581  93.8023853  41.4173460
  76.7127275  95.1148224  39.3961000  76.1220360  95.8341599  39.6194053
  76.3372326  94.7342396  38.6021256  50.3275537  47.1689939  91.4822674
  51.1347771  47.6519299  91.6594696  49.9424982  47.0209503  92.3460007
 110.8270073  17.8259647  61.5843534 110.0212193  18.2821918  61.3418818
 110.6040382  17.3570192  62.3884773  50.0595999  85.8019733  12.7743220
  50.8556175  86.0377312  13.2507813  49.3482447  86.1649799  13.3019900
  21.2436700  68.3968687  89.4812393  20.9590173  68.2276058  88.5831547
  21.7983937  69.1740561  89.4142246  38.0171728 105.9808731  19.7669351
  37.5454283 105.4045296  20.3682041  37.6553607 105.7754707  18.9048827
  81.2144661  89.4745636  18.7352622  81.9068909  88.9521885  18.3304214
  81.6508770  89.9378300  19.4502234  75.2119827  26.9474173  46.3666058
  75.0175047  27.5461888  45.6455755  74.8685169  27.3885632  47.1435547
 107.2166634  30.2371168  66.8541479 107.4157333  31.1527777  66.6587734
 107.6953793  30.0552130  67.6628351   0.6036440  50.4876328  16.5344477
  -0.2629269  50.3761530  16.1434746   0.4302384  50.6270361  17.4654305
  80.9488678   7.0789307  37.0096064  81.3303375   6.9433624  37.8769803
  81.2190437   7.9639804  36.7648029  70.8612537 109.3342113  32.1370173
  69.9891758 109.1803932  32.5004125  70.8960485 108.7820244  31.3559175
   8.2738030   9.5892823  42.5300694   8.2367343   8.6891299  42.2066784
   9.1191244   9.6492738  42.9751158  34.7312188  72.1594906  79.8522139
  35.0684094  73.0048370  79.5557070  34.8132110  72.1899223  80.8054161
  38.6560822  90.4231262  16.8604946  38.3793354  91.3383579  16.8157995
  38.2997394  90.0260735  16.0657632  44.6419096   8.0036443  30.6012201
  44.3380070   7.6051062  31.4167213  44.3779087   8.9211369  30.6700897
 107.4323559  30.9905648  45.4472017 107.7388382  30.0889492  45.5440855
 108.1474113  31.4394474  44.9961710  15.2783072  88.2544708  92.9217815
  15.7459581  87.5000286  93.2800388  15.9604454  88.7868309  92.5124931
  25.2242398 109.6006584  43.8235712  25.0325751 109.9167919  42.9406452
  25.7732105 108.8284206  43.6875677   3.0346256  85.1175785  79.4714594
   2.6845446  85.1275063  80.3622913   3.9402264  85.4126167  79.5666981
  83.1741142  47.5417089  37.8908896  84.1023254  47.7261925  37.7472854
  83.1545639  47.0237350  38.6955929  84.3209553  19.3154478  27.4206209
  83.4099865  19.5914268  27.5216770  84.5813370  19.6573794  26.5653324
   7.3758453  14.4607151  16.3408959   7.4900639  13.5198498  16.4749062
   8.2311940  14.7650182  16.0375655  68.5925341  59.7262192   9.3546891
  67.6695347  59.6292973   9.5890218  69.0674353  59.3143415  10.0765336
  90.0901318  22.3675013  39.2490363  90.3457451  21.9671965  40.0800848
  89.1827393  22.6407909  39.3839049  68.7042141 101.0917282  34.4734311
  69.1152716 100.4568195  35.0600815  69.3768644 101.2849236  33.8204002
  17.5188375  94.1709137  37.3131490  17.9091477  94.3414021  36.4559317
  18.0400085  93.4543991  37.6753902  90.8508205   8.3781815  27.2836876
  90.5964184   7.6869476  27.8950024  91.0806179   7.9135907  26.4789629
  65.1264572  96.5794468  49.2810392  65.6378746  96.7213535  50.0776243
  64.3485785  96.1065674  49.5768929 100.5637550  99.4993687  19.1640115
  99.7311687  99.9714851  19.1759717 100.7920551  99.3929863  20.0874782
 103.6937523  18.2503068  40.3525257 103.0612373  17.5377095  40.2610731
 104.4678593  17.8359938  40.7337475  66.8021727 108.6698341  29.0921426
  66.8924475 109.6056461  28.9122963  65.9038353 108.5721874  29.4078803
  97.4836349 105.8472443  69.4066143  97.2283459 105.8014679  68.4852219
  97.1766758 106.7058468  69.6978283  10.4660106  24.0525770  28.3765078
  11.0173070  23.4915638  27.8310132  10.7465649  24.9428892  28.1646872
  30.5257940  16.5643537  22.0182705  31.1637831  15.8664227  22.1668983
  30.6466818  17.1607018  22.7571797  13.2443845  69.6871758  13.2549572
  14.1046143  69.3866158  13.5480487  13.3902240  69.9950743  12.3604405
  26.6323233  67.3348618  56.0284042  26.5876627  67.2201204  55.0791550
  26.5516162  66.4485788  56.3808489 112.0516014  26.3429499  41.4867210
 112.5774479  25.5755663  41.2612391 111.2039566  25.9838223  41.7489290
  29.7520709  15.2908969  30.4653311  30.5374718  15.5008221  29.9600482
  29.0331388  15.6680608  29.9582624  21.2089539  18.0218637  54.0895128
  22.0261002  18.0228555  54.5880127  20.6313848  17.4349427  54.5775366
  36.4813113  28.3033252  13.5163307  35.6225705  28.6577487  13.7469423
  36.5065265  28.3397150  12.5601554  30.8853173  11.4775074  18.1183481
  30.3006673  11.5628552  18.8714302  31.7286134  11.8046117  18.4315348
  36.8138957  97.2816563  82.6584911  36.8563890  96.4881611  82.1248245
  37.4166822  97.1154404  83.3832264  11.2838125  27.1227741  29.7938299
  11.3876224  26.9292331  28.8621664  10.3780437  26.8824410  29.9889088
  25.9577894  36.0764146  16.0653090  26.1734867  36.5883708  16.8448019
  26.8017411  35.9156418  15.6432545  63.1094837  78.3645010  64.0259552
  63.9051867  78.2670975  63.5028887  63.2084322  79.2135763  64.4566727
  81.7774582 109.6269894  23.5164285  81.6372204 108.7619305  23.1314063
  82.5692940 109.9537563  23.0892968 112.5057125   6.2915611  49.5026064
 111.5507984   6.2634254  49.4427776 112.7493000   5.4336119  49.8501968
  10.3684485  44.5177269   8.1534648   9.4572622  44.7669220   8.3079720
  10.3275061  43.5887098   7.9265708  14.0205657  22.6529503  43.0174208
  14.0781450  22.0984960  42.2392845  14.1706312  22.0547104  43.7494183
 109.5165443  62.2090387  35.5887985 109.9871159  61.9323254  34.8025322
 109.4205761  63.1562376  35.4895973  11.8752241  69.6214342  27.7481818
  11.5244067  69.0673780  27.0509148  12.2416413  69.0051413  28.3823371
   7.4812144  51.3586569  26.1153030   8.0736536  52.1068048  26.0409689
   7.1383166  51.4123869  27.0073605  17.0452833  24.3817711  40.6469774
  16.2398732  24.4583917  40.1354361  16.8967330  24.9372315  41.4122438
  35.3565764  19.5422649  49.3549252  35.6578183  20.4371452  49.5120192
  34.9331713  19.2848396  50.1738834  23.4167767  48.5060740  57.4070120
  23.6279798  48.2782125  58.3123875  22.4693823  48.6427259  57.4091911
   7.2099799  30.6536627  25.6655288   7.7031672  30.6252766  26.4854026
   6.7918485  29.7945619  25.6076813  39.5379519  86.5981293  73.8040018
  38.6603045  86.6079617  74.1859341  39.6098447  87.4363136  73.3473730
  25.5337119  12.9819369  17.2372305  25.4898047  13.2134759  18.1649661
  24.6191359  12.9329991  16.9590425  20.1933146  20.2777505  48.5821199
  20.3997779  20.9331846  47.9157829  19.2748976  20.4378939  48.7991381
  83.5988808  97.2507668  69.8575687  83.2810974  96.9421673  69.0090322
  83.2576656  98.1420326  69.9314022   7.8319746  33.8089228  59.4123125
   8.7326127  34.0246296  59.1703320   7.7680451  32.8632379  59.2787933
  63.9338303  75.0164223  75.7880068  64.0850210  74.2347479  75.2566338
  64.7939777  75.4311609  75.8540964  36.9441247  31.7853332  49.0558338
  36.1787105  31.8890214  49.6211815  37.0724988  30.8385611  48.9977551
  17.6545632  70.0491619  27.9855680  16.9993567  70.5712461  28.4485650
  17.9546618  69.4118881  28.6336875  11.6756988  45.5787849  21.2788033
  10.8128905  45.4788017  21.6810417  11.5736258  46.3121510  20.6721854
   9.2148703  54.6170998  17.1265769   9.3446535  54.5599604  18.0732143
   9.8670483  54.0206385  16.7589760  26.9032788  46.5700722  30.0962615
  27.4533153  46.5731668  29.3128848  26.8861699  47.4839306  30.3805208
 111.0180092  55.5773020  30.9944367 110.1794052  56.0277748  30.8941889
 111.1204052  55.0786066  30.1838517  19.4016659  51.2221098  28.7037802
  19.1460621  50.3411722  28.9773560  18.5880792  51.7258358  28.7276602
  48.0206776  69.7813368  82.6387596  48.8862658  69.6735430  83.0329227
  48.1982517  69.9515152  81.7136955  17.6488078  55.8159494   9.1211796
  18.0133283  55.5986071   9.9791545  18.3032322  55.5030060   8.4966564
 105.3578281  55.6005955  20.3754663 105.7199192  56.4116335  20.0186324
 106.0879803  54.9820471  20.3529978  26.1184072  52.3994017  18.5525870
  25.7246137  52.9478121  17.8740549  26.4343953  53.0203533  19.2089462
   8.9629650  26.6645002  57.9383802   8.6723721  26.0773182  57.2405243
   9.7127640  26.2173438  58.3309221   4.0686071  49.3302536  25.9906697
   4.4480583  48.8389587  26.7192817   3.6935523  48.6600161  25.4194021
  12.3082781   9.1462654  27.5009608  11.7204595   8.3982712  27.3950958
  12.6374197   9.0673864  28.3963227   6.7525744  25.5190349  27.6879144
   6.9557601  24.6507716  28.0358624   6.9376212  25.4510164  26.7512369
  14.3279731  96.9613934  42.4849319  14.6266556  96.8755341  41.5795851
  14.8432541  96.3163471  42.9693270 104.8463058  23.9219832  14.6267784
 105.0075340  22.9873967  14.4972336 105.5770493  24.2181349  15.1694822
  10.7790887  77.5795650   1.4910401   9.9795598  77.1311665   1.2154946
  10.6988788  78.4597397   1.1234917  12.0671737  39.6229625  25.7541919
  12.6177073  39.6263790  26.5372205  11.5432012  40.4207611  25.8263230
   9.4732481  49.4417429  38.5876369   9.4066632  49.7553253  39.4895577
  10.3241134  49.0050554  38.5480905  78.3974314 105.0434589  82.9668140
  79.2709160 105.2871895  83.2731628  77.8025818 105.5922127  83.4779453
  21.8209004  60.1776886  66.0165977  21.0879946  60.6396198  65.6095362
  22.5137496  60.8352327  66.0785151  23.3537984  37.4856806  22.7329040
  22.9079938  37.7496219  21.9280291  22.6612210  37.1148014  23.2797265
  20.4835176  59.9873066  14.2059302  19.8293924  60.2175665  13.5461330
  20.1364636  60.3460646  15.0226772  28.6740184  35.3493333  16.2159371
  29.2502403  35.3601718  15.4516840  29.1175604  35.9034181  16.8581915
  86.6201782  13.8708138  31.3717961  86.2962818  13.0094326  31.6351295
  86.5080738  13.8885593  30.4213500  29.2641473  83.5743046  86.3970470
  29.4134831  83.7062836  87.3332691  29.7012377  84.3156147  85.9779549
  46.2866354  55.5393648   4.2724159  45.4005003  55.8907270   4.3592680
  46.8125820  56.0641432   4.8759231   6.2062562  33.3991027  30.9244776
   6.9449770  32.8433013  31.1726832   6.5705043  34.0093780  30.2832937
  25.9490371  32.2536516  25.9685183  25.1595473  31.7385006  25.8025217
  26.2435484  31.9686055  26.8335295  99.2348480   4.6949607  73.3244038
  99.1792679   5.6006420  73.0196333  99.3936062   4.7682536  74.2654943
  87.9103088   1.6294171  94.1211319  87.0228958   1.8127140  93.8126850
  88.4708405   1.8319824  93.3721256 113.0047894  21.9011617  49.1187572
 112.3462391  21.5592599  49.7234488 113.6313725  21.1847401  49.0169334
  12.6995504  12.7220726  34.0235162  13.0996311  12.4689853  34.8554516
  11.8735385  12.2390640  33.9982367  14.7880268  23.4909844  46.5730143
  14.5558965  24.4072223  46.4218378  15.6107807  23.5296726  47.0606709
  14.1353989  68.6286831  30.2259350  14.0398836  68.3787441  31.1449766
  14.5465887  67.8694534  29.8127389  33.4610343  38.6895013  26.7826009
  32.7119589  38.0944586  26.8148780  34.1039324  38.2359004  26.2374735
   1.0461729  46.7901802  34.7137618   0.3958681  47.4326229  34.9976754
   0.5966035  46.2739038  34.0447497  16.4331937  40.2145100  85.0614452
  16.5939939  40.9714174  85.6248856  15.5323279  39.9571037  85.2574348
   4.8233745  24.5388985  90.9313869   4.4231617  24.0062594  91.6186714
   4.0992999  25.0537348  90.5751705   9.1985250   3.9413327  93.2696819
   9.4674760   4.6388480  93.8674927   8.2997131   3.7376037  93.5282612
   9.1791290  49.4809198  71.1620808   8.4990513  49.3415260  71.8210936
   9.2106611  48.6588001  70.6728411 109.2668819  51.3522577  48.2090759
 109.4953728  52.2521639  48.4418678 109.7675800  51.1764383  47.4124479
   5.1248175  68.0564117  22.2273803   4.2296201  68.3948898  22.2442532
   5.5193424  68.4610224  21.4548063  21.1314297  55.2761507  17.3272967
  20.6459522  55.9883356  16.9109595  20.9077263  54.5007992  16.8124962
  39.7636199  52.0435667  70.0696945  38.9631867  51.5838051  69.8163986
  39.5910335  52.9604816  69.8558950 115.5336579  51.6278028  28.0027628
 116.3648561  51.4684677  27.5556016 114.8995705  51.0900736  27.5284100
   7.0056605  53.6164713  41.3800907   7.2691554  53.3172846  40.5098677
   7.1059698  54.5678186  41.3468361   6.7727971  51.5859175  28.6997962
   6.5112078  50.8191586  29.2095852   6.2013960  52.2874928  29.0120912
  40.5532598  41.5743065  38.0797815  41.0837317  41.5802050  37.2830415
  40.2749205  42.4836159  38.1889439   9.2213959  10.7478476   9.6314317
   9.7740555  10.2822125  10.2591133   9.6968132  10.6875217   8.8028359
  20.1579642  44.7632551  52.4484158  19.5139122  45.4603291  52.5729799
  19.8729241  44.3131065  51.6532135  19.2686801  53.0393147   0.5663169
  19.0985875  53.3387685  -0.3267800  18.8409094  52.1845746   0.6179012
  93.4123039  21.3372421  48.0864048  92.5878239  21.3462448  48.5726023
  93.7802029  22.2103667  48.2225704  89.9428368 100.4017830  31.1196947
  90.0712967 100.0533962  30.2374482  89.9054432 101.3506603  30.9994197
  64.6933937  80.2941799  92.0141506  65.5363607  79.8441601  92.0700455
  64.0703583  79.6071577  91.7773819 112.1964741  53.8843203   3.4684244
 111.7960072  54.6035147   3.9569139 112.5164318  54.2907524   2.6630220
  69.1061735  32.4643803  23.1428576  68.7103939  33.2612848  23.4957480
  69.6275949  32.7652121  22.3986435  74.5626163  81.7638588  93.0437851
  75.2921963  82.3038387  92.7398682  74.0613270  81.5707111  92.2515488
  37.5245738  33.9205241  57.5390387  37.7033806  34.4479060  58.3175802
  37.1726990  33.0990100  57.8818655  11.5360773  34.0696073  15.3790128
  10.6408083  33.8040400  15.1687741  12.0413101  33.2573581  15.3440404
  15.8253706  50.1157618  21.3942885  15.5077386  50.1442528  20.4917741
  16.0175014  49.1913128  21.5515089  23.5483718  54.3412495  13.2353282
  23.6121583  55.1691914  13.7114346  23.3983469  53.6847353  13.9155602
   9.6487498  13.5893404  71.0557318  10.0716984  14.4294655  71.2333155
  10.3687131  12.9590046  71.0320330 110.4977226  10.6312454   2.8225997
 109.6433353  10.2046669   2.8880492 110.3273201  11.4345169   2.3307148
 107.1058178 100.4245377  46.2081861 106.3913727 100.8739567  45.7567215
 107.2137642 100.9084988  47.0269394  18.7889004  31.0153842  40.8135986
  19.6483707  30.7682776  41.1548901  18.3639610  30.1824617  40.6089115
   5.2349561  43.7659931  60.5319166   4.3057257  43.6157322  60.7056522
   5.3334075  44.7176456  60.5619574 114.8775959  40.1892090  28.4522390
 115.6260872  40.2997303  27.8659129 114.1249943  40.4803085  27.9373741
  67.6534414  89.9336433  74.6872377  66.9712162  90.5654812  74.9143648
  68.4452438  90.2768993  75.1013136  37.3593640  13.6180902  15.9610629
  36.9798350  14.4364953  15.6410575  36.8100548  12.9337382  15.5787599
  22.0077395  32.2160745  38.6962461  21.9048476  31.6460681  37.9341841
  21.1917615  32.7150559  38.7340307   3.8678330  25.0436878  10.2094436
   3.6746550  25.9809828  10.1896214   4.2794448  24.8660350   9.3637210
  17.9074538  48.0377722  33.9236307  18.6875999  47.5192499  33.7268114
  17.4973810  48.1863546  33.0715775   5.9793103  60.5276346   3.6475334
   6.2989777  59.6286058   3.5714275   5.0551772  60.4344654   3.8788983
  14.1296232  15.3303659  16.6030097  13.8599193  16.2172461  16.3643956
  15.0475395  15.2792895  16.3364542  14.1945791  48.0505133  18.3128321
  14.1671753  47.4538469  19.0608108  14.1848314  48.9244699  18.7031269
  99.1998100 100.7824802  93.3832550  98.8438606 100.1493454  94.0067005
  99.5825291 101.4682674  93.9304829  99.4250107   0.7845329  71.1832047
  99.8703861   1.1200248  71.9612265  99.8922825  -0.0230056  70.9692669
  14.0141451  53.3015060  29.9881744  14.8070145  53.1649113  30.5067635
  13.3006823  53.2547283  30.6245804  29.2021346  27.6286292  29.9445009
  29.1566205  28.4294009  29.4220805  29.9533463  27.7621222  30.5225110
  31.2934828  41.8481874   4.6183237  30.7540131  42.1532440   5.3478062
  30.8846307  42.2304583   3.8418302  13.1060624  28.9383531  35.0365734
  13.9329553  28.4790277  34.8899484  13.0506182  29.0341592  35.9873509
  32.3850775  34.3562078   8.4041721  32.9536271  35.1049328   8.2241833
  32.4702954  34.2118454   9.3465781  23.9118767  47.4347115  11.3126469
  24.4211364  46.7502022  11.7466247  24.1344690  48.2358646  11.7868161
   6.2336749  45.8267212   3.9701980   5.5561441  45.2059984   4.2383206
   7.0576203  45.3898382   4.1857868 111.6884995  49.8411179  31.4285445
 111.3290501  49.1943359  30.8213353 112.6073551  49.9243116  31.1735606
  34.0184975  34.6201730  25.7523823  33.3564568  34.2947149  25.1424527
  33.6124682  34.5340943  26.6149139   2.0415896  64.1514492  46.4653587
   1.1226194  64.2923689  46.6931057   2.5230220  64.3782806  47.2609758
  85.6365585   6.9270104  65.6949902  84.7929478   7.0322412  66.1348629
  85.4374599   7.0382822  64.7653580  24.7466445  49.4237947   4.6850291
  24.8453546  48.6298561   5.2105296  25.3765965  50.0391626   5.0601459
  58.6887503  74.6352386  89.3307877  58.5020685  75.1618528  90.1079941
  59.3210125  73.9819670  89.6303177  11.2631869  55.4511642  31.0838819
  12.0702326  55.9567451  31.1802959  10.6288242  56.0769796  30.7343483
  17.3827791  38.7701654  59.5354652  16.8625057  39.3060565  58.9368248
  17.8051925  38.1223631  58.9714146  24.4419050  48.8041019  23.8383412
  24.9901056  48.7327337  23.0569243  25.0324082  48.6030245  24.5643616
  35.5840135  44.0433741  24.3436193  35.4534173  43.4199333  23.6291265
  36.4831257  43.8899994  24.6339774  29.4954467  60.9444666   1.5245380
  29.6687031  60.4587889   0.7181068  30.1412964  61.6509390   1.5221092
  66.4530230 104.5429420  91.2977123  66.6548347 103.6929989  90.9064198
  66.2924862 105.1187420  90.5501080   4.5431569  70.5057049  18.1577551
   3.7996224  69.9706745  17.8800261   4.3616676  71.3736105  17.7971554
  19.4619834  91.4619541  32.4575901  19.6343803  90.5268192  32.3478484
  20.3290796  91.8673706  32.4542069  48.1667376  36.6641951  39.0458989
  47.4159622  37.0080662  38.5618281  48.7676430  37.4061060  39.1145635
  32.9675245  69.6495581   6.6168541  33.6211538  69.8592472   5.9497488
  32.6862311  70.5007219   6.9524527  44.7688484  55.3744602   1.5747367
  44.5378351  56.1694241   2.0552585  44.2102051  54.6952724   1.9526920
  98.8165283  74.7623587  36.4120102  98.6896992  73.9078999  36.8243837
  99.6237755  75.0986719  36.8011928  38.0964661  36.6264772  42.7980614
  38.7501669  36.3469577  42.1571445  38.4563065  37.4307847  43.1720066
  60.6322432  76.5842581  27.1035004  60.0736237  76.8890762  27.8185296
  60.5476809  77.2585201  26.4293694 104.5363045   0.8988164  91.4345169
 104.0827560   1.3980938  92.1136665 104.3736458   1.3885179  90.6283092
  43.7465048  28.0064106  28.2592678  43.9504147  28.5039735  27.4673820
  43.7610245  28.6569548  28.9612746  21.9056654  52.7460051   9.1993135
  22.4178791  53.4896278   9.5169544  22.5582433  52.0781422   8.9887536
  23.4564948  56.7756319  33.7754965  23.2954931  57.2220659  32.9442263
  22.6805806  56.2312937  33.9092374  15.7648528  53.2052326  46.6099501
  16.5565705  53.6624765  46.3264990  15.9682643  52.2775602  46.4904690
  16.7676675  57.5293303  32.1867442  16.2604129  57.3265553  32.9727507
  17.0795572  56.6790342  31.8769836 108.5433102  35.3750682   2.2352073
 108.4575844  36.2440658   1.8431239 108.0080128  35.4159975   3.0276799
  22.1307302  64.0595579  23.1889701  21.2331104  63.9074278  22.8933978
  22.4851084  64.6913195  22.5632477   7.8448957  27.9895306  18.2004225
   7.4223876  28.8161945  17.9673016   8.3536518  27.7534819  17.4247420
  27.3477626  66.7086411   7.6763153  26.5205550  66.2736607   7.8830791
  27.6304102  67.0927000   8.5062790  22.5259924  52.6131344  40.9564924
  22.7516532  53.2405138  40.2696848  22.6160502  51.7570496  40.5378771
  94.6444225  36.7939115   7.0469522  94.8157024  37.4422359   6.3638920
  95.3234482  36.9519258   7.7028400  17.1569967  33.4472656  44.6944952
  16.5072489  33.8866496  44.1458607  17.8593445  34.0897679  44.7951412
  34.5048642  64.9942827   9.0581173  33.9598298  65.6413364   8.6103541
  34.1052389  64.1523218   8.8398635  27.3378110  41.4648962  40.0956726
  27.8694582  42.2530031  40.2073383  27.2599030  41.1015654  40.9778023
  22.9479885  85.4848099  14.8365533  23.8200068  85.4369450  14.4447327
  22.9621720  86.2893486  15.3549576  74.2330027  96.9528103  75.0048351
  74.3701601  97.6392078  75.6577444  74.1170216  97.4258232  74.1807985
  29.6200824  43.2559824   3.0595145  28.6683822  43.2667875   2.9576179
  29.9298882  43.9606905   2.4906228   4.5512083  38.7008214  36.0561538
   4.6287346  37.9258752  36.6126466   5.1522756  39.3361378  36.4451551
   6.2243783  57.4981117  38.7498951   5.6911701  56.8491268  38.2908344
   6.1283678  58.2969904  38.2314301  80.7298851   3.3325577  93.0797672
  80.8235931   3.4925407  94.0188408  79.9493170   2.7833208  93.0070877
 110.5092049  53.3653593  53.5700083 110.6183910  53.8216639  54.4043350
 109.6836185  52.8900290  53.6632252  57.1414089 107.9825592  92.8659153
  56.7412376 108.7881279  92.5385666  56.5134478 107.2954082  92.6429367
  76.4195871  75.0218773  86.5531349  76.6152287  74.0850735  86.5718460
  75.5869102  75.0833607  86.0850525   6.8147349  65.2065516   5.6446278
   6.8880206  66.1575174   5.5638230   7.2215426  64.8664045   4.8477337
  31.2670875  49.4028616  14.6611011  31.5412045  48.4857559  14.6638632
  30.3126788  49.3677711  14.7251534  22.8821683  44.6488953  13.1866741
  22.5325012  44.0162182  12.5592327  22.1253514  45.1764870  13.4418356
 114.4792747  46.3228703  21.2964606 115.3288174  45.9300232  21.4969254
 114.4937229  47.1674395  21.7467117  10.7666552  76.1704206  11.1267698
   9.9248326  76.5526962  10.8789182  10.8054566  76.2726831  12.0777011
  35.8739924  39.0520191  10.4811263  35.7355523  39.9462318  10.7932889
  35.8866024  39.1305828   9.5272386  84.7172642 109.5384502  88.7762642
  83.9981079 109.6914005  88.1633568  85.5020714 109.5337105  88.2282734
  15.2018237  47.2789764   4.7496033  14.6974123  48.0516338   5.0041723
  15.3209436  47.3714590   3.8043573   4.7321305  56.8496418  44.6405792
   4.9074295  57.1827412  45.5206585   5.2918619  57.3757315  44.0694714
  55.1484060  95.9072018  69.5815086  54.8210049  95.2685452  68.9481401
  55.2373457  95.4126358  70.3961992  21.0770106  64.9074268   7.6524776
  21.9057250  64.4876528   7.4217075  21.2131953  65.8332157   7.4509752
  35.4324532  60.7954884  14.0247500  34.9759960  61.6223240  14.1803718
  36.1667347  61.0303593  13.4573913  25.9453225  31.7765999  13.2385337
  25.4871583  31.8035221  14.0785289  26.0568285  32.6960778  12.9969537
  46.0802364  50.4251242   0.5332706  45.3554630  49.8003387   0.5573843
  45.8686543  51.0094070  -0.1947946  43.9623642  29.5707440  38.0046129
  44.6150112  30.2707243  38.0223513  43.2747126  29.8990536  37.4253225
  65.4443169  83.7944412  86.3530731  64.6774244  84.0600491  85.8455658
  65.8957338  83.1634521  85.7924461  21.7250085  39.7729063  23.7229538
  22.1616983  38.9864683  24.0501308  21.3479209  40.1796007  24.5031095
  95.6945038 108.9425945  95.1614761  96.1850071 109.7192764  94.8923874
  94.8133278 109.0839958  94.8153973  22.4267864  55.1393414   2.1447682
  23.3629942  55.0672722   2.3306559  22.2142124  54.3355656   1.6704348
  20.0156999  46.4502382  33.3452940  19.7195518  45.7720089  33.9523625
  20.4172373  45.9667253  32.6233387  60.0836992  99.7181129  80.2438927
  59.4591331  99.1883564  79.7484159  59.8908520  99.5209503  81.1604977
  30.3372812  52.9378033   7.4836850  30.9898210  52.8865910   8.1821114
  30.3725910  52.0804167   7.0595747  37.1206522  34.6278000  37.3362064
  37.2425008  34.0259027  38.0704427  36.3840890  35.1798630  37.5987554
  49.2979240  95.0858498  67.1283722  48.4844828  94.6938419  66.8107700
  49.6672535  94.4274807  67.7169085  14.2490304  31.9885111  30.9790039
  13.9768898  31.9482803  30.0621867  13.6765718  31.3652802  31.4263368
  41.2932634  32.7678514  12.7839780  41.1540270  33.5738611  13.2811606
  41.0512114  32.0676947  13.3901322  44.5266771  48.3013868  24.1898155
  44.5566797  49.2440891  24.3530488  45.3883314  47.9839754  24.4600582
  40.3479338  60.1179934   3.6626926  39.8808336  60.8300638   3.2256514
  40.2805233  59.3799782   3.0568683   8.0530125  49.8948336   3.2150272
   8.9620215  50.1660681   3.0871010   7.5379378  50.6695604   2.9897985
  15.8006001  95.9575558  46.7460012  16.0443628  96.8634892  46.9359827
  15.2061951  95.7155037  47.4561596  21.7863083  35.9724283   9.0419549
  20.9253240  36.3734531   8.9231360  22.1087861  36.3372588   9.8660553
  72.9500246 103.2151222  65.4523373  73.6896133 102.6137543  65.3651667
  72.2041607 102.6498985  65.6534433  25.9593654  78.3098984  93.5181236
  25.8025002  77.4935532  93.0435658  25.4239058  78.2344818  94.3079472
   9.5862377  17.5697744  39.9565220  10.4158771  17.1074045  39.8375940
   8.9756513  16.8941677  40.2514315  35.1536369   3.8293666  46.8230247
  35.4953480   4.5479038  46.2908888  34.5159841   3.3943498  46.2569952
  22.3071527  66.6873789  56.3603926  22.7498150  66.1800957  57.0407915
  22.1015167  67.5227451  56.7800474  23.0001211  22.8371906  29.6019626
  22.7288365  22.0988274  29.0565681  23.8035107  23.1561971  29.1908264
  27.8974462  57.0654917  25.9752154  27.6047945  57.4467468  26.8030024
  28.1523657  57.8182268  25.4416943 103.8666248  65.1472092  13.7978232
 104.4394588  65.4956436  14.4809651 104.4647217  64.8520136  13.1112623
  33.7269068  82.2372055  90.5348969  34.0941501  82.2358036  89.6509457
  34.4840074  82.3550129  91.1086178  25.3981018  44.1593361  32.0003963
  25.4781985  43.2261038  31.8031836  26.2899184  44.4374371  32.2090912
  69.5453405   6.3737750  78.0028009  68.7110043   6.2121075  78.4432268
  69.6674776   5.6132925  77.4344873  15.6702685   4.3576688  84.4687176
  14.9035728   4.1449311  83.9366055  16.2151003   3.5716692  84.4287968
  27.0435715  34.9330044  25.4998708  27.1627235  33.9910054  25.6209993
  26.8260932  35.0296545  24.5727277  70.1739120  21.2426996  85.4296398
  69.2180967  21.1924744  85.4410267  70.4564857  20.5703163  86.0495472
  88.9898872  79.8654127  94.5163250  89.5311737  79.6143532  93.7678528
  88.2195473  79.3005753  94.4549942  27.9253840  56.0700941  34.3817115
  27.5829220  55.4516697  35.0270772  28.7848854  55.7201099  34.1471887
  42.6648474  88.8181019  83.1090736  43.1338501  88.7299824  82.2793102
  41.9272709  89.3938732  82.9073238  20.0818658  48.6635303  41.3883400
  20.5635285  49.3147993  41.8983221  19.8516560  49.1168356  40.5773258
 101.9886875  18.6561918  73.9344358 101.1930370  18.1277966  73.9974642
 102.5933361  18.1185865  73.4229565  55.8179331  46.1772585  19.4936311
  56.6967487  45.8219528  19.6265757  55.2310705  45.4562473  19.7215796
  38.1849051  41.2801790  27.7918720  39.0472293  41.5718937  28.0877233
  38.3700132  40.6777334  27.0714355  21.0893154  50.2809334  17.9533410
  21.4963675  49.4345140  17.7686286  20.3729415  50.3451109  17.3217404
  18.5271013  34.7844148  31.3280296  17.6199520  34.5211506  31.4829636
  18.9973235  33.9603686  31.2012625 100.6299369   8.1710590  94.7954355
  99.8748438   8.7388576  94.6415861 100.2544682   7.2972168  94.9033961
 109.0323162  63.9256096  28.8881159 109.0953541  63.9430952  27.9331541
 109.0260601  62.9946804  29.1107321  30.5997562  49.2615175  28.1285572
  31.1412358  48.7706327  28.7466645  30.9288406  49.0063238  27.2666907
 106.2394142  47.2084999  29.1392708 106.1103153  46.7421865  29.9651766
 106.3512039  48.1238365  29.3959641  26.3783574  26.7912340  10.3935575
  27.2456551  26.5814948  10.0470948  26.0426974  27.4677777   9.8054647
  36.0885358  52.7044296   5.6323862  36.0441995  51.8967295   6.1441368
  35.4047012  53.2614565   6.0043043  17.3398328  62.5585604  21.7383599
  16.7591548  63.3100796  21.8578172  17.4927616  62.5217485  20.7941723
  30.0780845 108.4293747  20.6182480  29.2150164 108.8075829  20.4499984
  30.4671741 109.0042877  21.2772799 101.7320919  41.6503334  12.5899017
 101.5745544  40.9701872  11.9350624 101.1180973  42.3485661  12.3624980
 111.1238861  54.1425705  12.6675475 111.0571194  53.3372164  12.1545327
 111.5890026  53.8822269  13.4626055  33.0344200  52.8694201  28.5289550
  33.9233708  53.2227993  28.4955525  33.1413579  51.9348907  28.3516002
  31.9041085  61.2455845   5.6334609  31.3017297  61.9780350   5.5035126
  32.5075698  61.2973738   4.8922560  98.9923286  56.5110207  24.8733759
  99.8172379  56.2345314  24.4742250  99.2560005  57.0253086  25.6364083
  17.7072406  99.9291801  82.2036839  16.9964814 100.1672649  81.6083908
  17.3180187  99.9861622  83.0763149   3.4536400  52.7401924  13.0956936
   3.3772472  51.8402529  13.4127092   2.9338068  52.7559996  12.2921050
 115.3947449  46.3114882   2.5230008 115.0411606  45.5099821   2.1372536
 114.6928883  46.6354656   3.0875060  28.7482524  26.2108660  42.6164484
  27.9403448  26.7240405  42.6034260  28.6075854  25.5260634  41.9626236
 105.3662205   5.3198659  58.6463118 104.9018860   4.5630053  59.0037727
 106.2793255   5.0375891  58.5933971  46.6900921  36.3062096  44.2186069
  47.0221472  37.2001266  44.1356277  46.4203882  36.0676003  43.3317280
  40.2323103  39.1744900  15.5906844  39.5335531  39.1329670  14.9378085
  39.7847295  39.0557742  16.4284253  33.1827736  39.6652222  12.1943796
  32.7584457  40.0008345  11.4047325  33.8269973  39.0354919  11.8708861
  14.9052560  44.1163635  22.7919912  14.1810131  44.1747093  23.4151268
  14.5958400  43.5073376  22.1214819  63.8113022  72.0321608  91.2932014
  63.7290859  71.4501190  90.5377579  63.9936686  72.8920555  90.9143162
  16.8102407  86.1804008  39.0932894  17.0901012  85.2877045  39.2957950
  15.9405136  86.2537003  39.4862700  88.6835098   8.5987490  71.0424185
  88.5546398   9.3200082  70.4264545  89.5819664   8.3079314  70.8861113
  50.0678015  61.9999123  30.8157206  49.3289232  62.4680662  31.2044621
  50.7216978  61.9625950  31.5137601 107.9845524  61.6097689   9.1812050
 107.1456909  61.1578560   9.2724746 108.1409550  62.0003986  10.0409591
  49.7799492  16.8294120  37.3026586  49.1247559  16.1513019  37.4673414
  50.6186771  16.3942981  37.4557638  25.6929088   3.6104676   3.8054201
  25.8781362   4.0902701   4.6127072  25.1241875   4.1951126   3.3044428
  39.0312457  95.3646183  88.3928680  39.4909787  95.1592255  89.2069244
  38.1146264  95.1594639  88.5771275   3.1432372  47.2502708  24.3210459
   2.3409927  46.7899370  24.5674777   2.8737959  47.8416443  23.6182594
  29.5751166  30.1365209   8.6734074  29.2890167  30.7414842   7.9890102
  29.9374652  29.3896937   8.1967705 103.3960438  34.2396069  64.4844580
 103.2250881  33.3069873  64.6157122 103.8128281  34.2879462  63.6241150
 109.3523407  99.8079777  18.9824665 110.2317524 100.1494312  19.1445196
 108.8363075 100.5783558  18.7448657  26.9847560  61.7400503  22.2326970
  26.9006968  62.4011612  22.9197931  26.0880947  61.4458990  22.0723605
  27.8259087  22.4548340  23.3858657  27.4685359  23.2477522  22.9861188
  28.0590105  21.8967319  22.6439643  23.0664563  21.9958425  20.4772186
  23.1478453  22.4675059  19.6482778  23.7466145  21.3234782  20.4379964
  51.8133736  57.7827597  25.6550121  51.1356163  58.0986738  26.2525702
  51.7349386  56.8292952  25.6864595  40.9356880  55.0096989   8.1867999
  41.0885954  54.5257902   7.3752064  41.7241001  54.8583317   8.7080717
   1.5770297  61.3060713  43.1922579   2.1279350  62.0728683  43.0349064
   1.0284139  61.2408352  42.4105930  23.8886738  62.9471111  44.2833757
  24.6522331  63.4974194  44.1091108  23.1956983  63.5654116  44.5151520
  24.3770099  56.4472342  29.4324231  24.4646955  55.6056833  28.9848375
  25.1425481  56.4948654  30.0050616  13.5606086  70.1767111  10.5731535
  13.8203073  71.0349035  10.2380562  14.0721214  69.5533800  10.0573599
   0.1827202  17.1331012  92.7897835  -0.3077545  16.5692127  93.3878613
   0.1265202  18.0044758  93.1819344  51.1681986  26.4183283  28.7784004
  50.4740953  26.2689400  29.4203782  50.7750559  26.1762810  27.9398990
  51.6944742  98.1323528  88.5129833  50.7434034  98.2337284  88.5506821
  51.9485331  98.5587215  87.6945114  27.8111100  54.5737886  68.0558920
  27.7776074  55.4876518  68.3386612  27.8179193  54.6190119  67.0997810
  26.2592554  37.3962593  18.4697211  26.7092705  37.9577303  19.1009641
  25.5914950  36.9437623  18.9850616  42.0148563  33.7634850  64.2605877
  42.9410505  33.5649037  64.3982840  41.9829082  34.1677594  63.3935404
  22.0626903  70.7651043  41.6767359  22.6707172  70.4808855  40.9942770
  21.9276643  71.6969109  41.5043068   4.1411692  71.5694284  24.8660207
   3.5911191  70.8348036  24.5939851   3.7141567  72.3399115  24.4915223
  80.3184700  88.0721378  75.5166721  79.5254707  88.5851002  75.3609228
  81.0007000  88.7260723  75.6688309  20.1817560  27.0875454  18.9339125
  20.7917666  27.2501063  18.2144046  19.8803043  27.9581141  19.1936624
  67.7653360  66.2253237   3.0431208  68.6160755  65.8510351   3.2719886
  67.9683781  67.1051979   2.7255857   4.2377016  21.8662739  70.6717825
   4.3791771  22.0528102  71.5999126   4.4048321  20.9275126  70.5879641
  17.6463485  56.4366102  20.1849413  17.1131039  55.9063578  19.5927322
  18.5359418  56.1023664  20.0703311  47.3719501  36.6458440   8.0808568
  47.0162916  36.5187693   7.2013170  46.7492533  37.2338223   8.5083652
  41.1893463  84.5434475  88.4642696  41.4076281  83.6169624  88.5653305
  41.9373465  84.9162197  87.9976082  53.1274319  27.6646829  23.1774068
  52.7439070  26.8196893  22.9426146  53.0235577  27.7191830  24.1273904
  12.4749112  27.9218721  31.9528651  11.9494736  27.5738144  31.2324476
  12.9051983  27.1537161  32.3283911 110.5375862  36.8741059  58.4622049
 110.9486961  37.6893950  58.7494802 111.2660217  36.2616062  58.3599806
  20.3567958  62.1512556  36.4366984  21.0948873  62.1643686  35.8273721
  19.5940053  61.9773054  35.8852220  20.4477215  77.4353313   5.7680750
  20.0328135  78.2028627   6.1617482  19.8482621  76.7141724   5.9599382
  76.2001181  86.7974854  71.9830275  76.1305380  86.0493755  72.5760889
  75.4738760  86.6852474  71.3696718  22.4916553  26.8819976  33.0523157
  23.0440283  26.7715406  32.2784185  21.9438171  26.0972619  33.0695367
  95.6553459  12.3480916  81.8598175  95.3248787  12.9720867  81.2135601
  96.6074085  12.3940957  81.7721558  15.0107193  73.9067841  29.0748692
  15.8885598  73.7082958  28.7489390  14.4256759  73.6366320  28.3670759
  18.1909561  42.9389191  24.6008921  18.3019793  42.0645189  24.2276192
  18.6782706  42.9114771  25.4243016  21.7393303  73.5566854  56.5881538
  21.2102008  74.2955828  56.8886280  22.5973535  73.9371920  56.4004183
  31.2752938  27.9338264  32.7247953  31.1238432  28.5881615  33.4068060
  32.1296096  27.5586224  32.9383349   4.6988916  28.8652396  30.1882052
   5.1156032  29.4590402  30.8126926   5.0716144  28.0066943  30.3887320
  79.0183496  34.5394349  94.9856377  78.3321667  35.0202799  95.4484272
  78.5467148  34.0023899  94.3489456  91.6861057  57.8732491  15.2178216
  91.0379314  57.9761744  14.5210314  91.2213135  57.4025631  15.9096730
  12.0286000  64.0714264  43.3457279  12.0665848  64.6208382  42.5628233
  12.0961511  64.6881628  44.0746355 111.2156773 103.6505127  19.7252631
 111.8019676 103.4626770  20.4582071 110.3406239 103.4612846  20.0639439
   2.7118644  78.3242512  39.5922351   3.3931026  78.9756155  39.7591949
   2.1897709  78.7000132  38.8833952   6.9285202  59.8301268  48.6412287
   7.6434952  59.9539375  48.0169630   6.7071867  60.7153034  48.9305449
 113.7754250  40.4899979   4.2036971 114.0516376  39.9771953   4.9632847
 112.9106426  40.8241081   4.4419006  32.7442598  70.9917736  72.8266001
  32.6352549  70.0452375  72.7348566  31.8704224  71.3497829  72.6701641
 116.0610867  66.3824368  27.9317856 115.3603840  66.6630316  27.3431325
 115.7024097  66.5116358  28.8097882   9.2806667  53.2238817  24.3603992
   9.0605611  53.6872053  25.1685548  10.0616550  53.6704016  24.0334296
   1.0293128  52.0302582  41.5612841   0.4538865  52.5768518  41.0261631
   1.9094448  52.2182512  41.2353134 101.2189770  71.0329485  22.1652079
 101.4608860  71.3725710  21.3035989 100.3995705  71.4799118  22.3774171
  10.6851006  49.8478508   5.6240970  10.7447302  49.0665293   6.1738354
  10.6015134  50.5716658   6.2448543  53.2514763  86.1125278  77.1410513
  53.5554981  86.5991783  77.9071999  53.8730192  85.3897667  77.0542669
  13.5176921  61.7704058  24.4475245  14.3421090  62.2253466  24.6195745
  13.7431884  60.8411884  24.4915318  38.4575891 106.7836952  79.8531866
  38.8902044 107.4346638  79.3006372  37.8589416 107.2930336  80.3994656
  58.4717989  80.3271198  72.1243000  58.4870768  80.9642887  71.4101458
  59.3871737  80.0704765  72.2359228  26.0856342  52.3481560   9.7371495
  26.0230017  52.0972109  10.6587434  26.9460702  52.0325851   9.4609332
  25.6660557  56.8672228  12.0566487  25.0839424  56.6432190  12.7827334
  25.0936413  56.8928432  11.2898910  29.2181039  47.7555990  24.8845315
  28.9713120  47.1665573  24.1715360  30.0514722  47.4093580  25.2036667
  95.0507832  80.0997734  18.7341940  94.6986198  80.5447102  17.9633236
  94.5165634  80.4205322  19.4607961  18.5561752  17.5362873  68.1977797
  17.7808952  17.2140872  67.7380419  18.3243906  18.4261131  68.4637070
  39.6827269  46.5292358  22.6824403  40.0805330  47.2349930  22.1726489
  38.8396215  46.3724566  22.2572017   9.2527199  23.5523701  13.7192678
   9.7516918  23.0423307  13.0812097   8.6946774  22.9091239  14.1563654
  98.0104446  32.4618077  94.2558765  98.4723759  33.2891822  94.3911648
  97.1106815  32.6425910  94.5278454 107.8637123  28.2260633  55.4431343
 107.5530052  28.3268237  56.3428783 108.7815571  27.9700518  55.5339527
   7.1657330  78.3143282  39.5197892   7.0955920  79.0148687  40.1682901
   7.5508249  78.7365007  38.7518644  45.3217983  62.9302120  10.3768623
  45.8511686  63.1447697   9.6087700  45.9132099  62.4366426  10.9450674
  33.7286520  50.7619095   9.7635704  33.8718247  49.9303007   9.3117255
  34.6039844  51.1380339   9.8560637  13.5949540  85.5657005  18.2960641
  13.0711412  85.4623795  17.5015986  14.4984019  85.4418468  18.0050755
  26.8871951  40.0352335  10.5699146  27.4840832  40.5346489  11.1271727
  27.1395111  39.1220641  10.7066309 110.8967113  32.9524732  87.9865551
 111.7021179  33.4689450  88.0150700 111.1893940  32.0631742  87.7872562
  30.1631975  73.9172554  19.1924560  30.6958985  74.6220779  19.5608103
  30.3205204  73.9658689  18.2495248  22.5959730   6.7853332  82.7376366
  22.4883008   6.6497386  81.7962265  22.2075152   7.6446199  82.9018307
  57.1694088  75.7671022  18.0977011  57.1439409  75.1478767  17.3682177
  57.7780676  76.4485121  17.8123140  63.0132055   8.1121731  88.3940792
  63.6739969   8.2047963  87.7077866  62.6554108   7.2337782  88.2650948
   9.6632415  24.5410514  77.4069977   9.9140370  24.7878003  78.2971954
   8.7620670  24.8510385  77.3174238  36.2610197  86.0129070  11.3582981
  35.4868650  86.2184429  11.8823886  36.7461300  86.8369007  11.3142776
  29.5205791  80.5554114   0.4173625  29.0809829  80.7543741   1.2440456
  29.9269970  79.7009026   0.5618156  55.2213001  66.9294643  14.5520556
  55.8508348  67.6505184  14.5504665  55.4648304  66.3972282  13.7946594
  28.0548215  76.0956335  14.7441566  28.6611533  76.1958504  14.0102959
  28.1143165  76.9246578  15.2189314  10.0885475  88.0646038  17.5446451
   9.1949165  88.2866669  17.2832227   9.9817836  87.5237751  18.3271599
  31.0737371  81.8180084  13.8414669  30.8412194  82.7265549  13.6498547
  31.8056965  81.8823719  14.4549203  23.5431075  63.1597471  39.2202950
  23.5817814  63.5601854  38.3517408  22.6971507  63.4350872  39.5735264
  96.2565804  22.3422527  79.7528648  96.2819195  21.3891006  79.8370600
  97.0977306  22.6360440  80.1026917 100.7078934  78.5707712  24.8357248
 100.9275913  78.5403252  25.7668734 100.6826019  79.5043707  24.6260047
  14.7910452  51.6893673   6.1884308  15.5514443  52.2257042   5.9640044
  14.8373055  51.5944147   7.1397847  22.0582676  69.8521566  27.3030782
  21.7766190  69.9600458  28.2115197  22.9048276  70.2968407  27.2603631
  42.8701878  57.9126978  12.0256603  43.7892962  58.0437040  12.2587085
  42.7295971  58.4874773  11.2732708  33.6150265 101.0700607  89.5757866
  33.2295394 101.8660641  89.9418545  33.7043238 101.2552166  88.6409283
  18.4552133  67.9205751  43.1711578  19.2645371  68.3489227  43.4499836
  18.1886268  68.3997440  42.3865843  58.0122042  84.7692108  10.2438319
  58.4056759  85.2760506  10.9541297  57.8307438  83.9133930  10.6322622
   5.8046991  56.7845631   0.5879089   5.2053291  57.5243282   0.4892665
   5.2323771  56.0210657   0.6637769   0.2912266  81.1061192  28.3741498
   1.2320735  81.2641621  28.4520006   0.0428470  80.7203293  29.2142153
  32.3065495  72.6954985  12.9126334  32.1328926  73.5504198  13.3065772
  33.2434678  72.5547838  13.0490565  13.1721218   0.4213132  90.9553242
  12.6021869   0.8148087  90.2945900  14.0471370   0.4572762  90.5689621
  84.4099331  18.3721471  87.9952717  84.7873878  19.2346799  88.1678867
  84.4007778  17.9394889  88.8490582 115.3460648  69.4099236  48.1548643
 116.0639344  69.6810102  48.7270594 115.0947358  68.5451365  48.4792233
  20.3442144  34.7936440  23.8504195  20.6391001  34.5750666  24.7344422
  20.1121640  33.9509892  23.4601378 100.5296516  20.1118779  80.6434155
 100.1488113  19.9453688  79.7811651 100.8478165  21.0133362  80.5946922
 104.9440289  38.1489611   3.8843209 104.9149132  37.6250648   3.0837476
 105.4753494  38.9107704   3.6528432 105.2845955   4.3424886  93.6580563
 105.1281452   4.5187590  94.5857906 106.2187195   4.5122352  93.5362148
  78.5871744  82.9586601  82.2793770  78.2584715  83.2471561  83.1308270
  79.3798971  83.4768772  82.1405602  26.7170477  65.1327467  17.6745439
  26.5114689  65.5483294  16.8371320  26.5541434  65.8143377  18.3265615
  35.9400034  89.9818134   4.1537911  35.2337766  90.6147385   4.0238351
  36.3745308  89.9296474   3.3024994  33.6057901  67.3768044   4.5511743
  33.1353593  67.0494223   5.3178215  32.9614806  67.3467398   3.8439304
  75.5033353 109.8185810  82.2223663  76.4236978 109.6796103  82.4456692
  75.0215009 109.2658438  82.8376293 108.7305832  66.6998863  80.7501698
 108.4182644  66.2782097  81.5507126 108.5944653  66.0448122  80.0656319
  40.3084660  91.4238358  24.1085315  41.0124397  90.7806683  24.0249324
  40.7533979  92.2356701  24.3517995  39.8648095  38.6293888  36.1382031
  39.1693354  38.2545280  36.6786003  39.4717717  39.4113779  35.7505822
  17.0997691  71.3056326  33.9706373  16.8747056  70.3966188  33.7724710
  17.3935568  71.6673708  33.1345344 107.8662682  24.8419762  92.7001953
 106.9492817  24.9667645  92.9447174 107.8338146  24.2723298  91.9316387
  43.4427547  59.8436069  27.4531817  42.6371050  59.3526602  27.6148129
  44.1155672  59.3663549  27.9387593  21.5337658  91.8152237  10.5061698
  20.8079529  91.2011242  10.6170821  22.1650124  91.3442326   9.9621803
  25.5676699  63.4174967  19.5282745  25.9259033  63.9151239  18.7932467
  25.8432412  62.5156736  19.3639374   8.1778485  67.3138857  35.6648850
   8.2985520  67.1711063  34.7261214   8.7572658  68.0470800  35.8720875
  13.5195458  75.9252644  44.6276903  13.1841052  75.7835770  45.5129242
  13.9747524  75.1116037  44.4109631   5.2137095  31.0169911  94.7764015
   4.7363594  30.4037952  94.2175102   4.5371717  31.5928984  95.1325798
 110.3234577  45.3166723  23.1984901 109.8889828  45.8755589  23.8427782
 110.5969906  44.5458603  23.6957455  15.0588715  55.7126474  36.9797277
  14.9405301  56.5540409  37.4205112  14.2006993  55.2919245  37.0322990
  31.1927152  69.7306156  21.2585068  31.3770747  69.7420931  20.3192997
  32.0552349  69.6879959  21.6713929 105.3503418  18.2498050  93.6914349
 104.9233246  17.9240096  94.4837475 106.0729599  17.6403785  93.5409355
  58.4856319  48.2820368  27.3409390  58.1067657  48.0584383  26.4908242
  58.5556650  47.4448156  27.7996206  24.4555569  21.4672375  65.6736994
  24.7352171  22.1261215  65.0381756  24.1356492  20.7400537  65.1397562
  96.7306900   9.4784528  76.3954782  96.7760944  10.3618634  76.0297489
  96.4099503   9.6050876  77.2884083  13.3890581  22.0091414  72.0225716
  13.5112894  21.2019587  72.5223207  14.2648911  22.2293806  71.7053318
  45.3076982  52.1199942  35.0794578  45.6793928  51.7619944  34.2732882
  45.0999880  51.3506413  35.6097245   3.7004179  47.4808788  28.6815953
   4.2072621  46.7739153  28.2821703   4.3588185  48.1068373  28.9831209
  26.8349457  60.1263762  25.4135370  26.1806822  59.8303032  24.7806787
  27.5628805  60.4396439  24.8766875  57.6927567  69.3407249   9.4606465
  58.2381916  70.0313950   9.8370993  57.1715927  69.7849035   8.7918222
   3.0665144  20.3625512  76.3586950   2.7459717  19.9500430  75.5566216
   3.9696068  20.0561976  76.4411783  15.4663157  54.7453308   7.1083981
  16.3277829  55.1331854   7.2622675  15.3302741  54.8307514   6.1647731
  63.7379456  96.8484783  32.6736617  63.2624817  96.1652184  33.1462336
  64.6010256  96.4690304  32.5082850  72.1310520   1.7289782   6.8541729
  72.8010702   2.3861894   6.6660738  72.0834875   1.2005986   6.0574389
  36.1640930  88.8172722  12.2375417  35.6962323  89.1087246  11.4549887
  37.0853972  88.9907169  12.0442879  36.6297555  94.3996525  88.5259247
  36.9177938  93.5015488  88.6892414  36.4312553  94.4210243  87.5897789
  22.8831863  86.3334751  34.7766423  22.0642257  86.5354538  35.2291250
  22.8346372  86.8306828  33.9601541  25.4898238  30.9218931  19.8386097
  24.8768592  31.6435313  19.6981013  25.8822823  31.1038113  20.6924915
  20.9632611  67.3823833  28.6048651  21.4757347  67.9870987  29.1414499
  20.0524759  67.6155615  28.7846804  76.3765717  33.2445765   4.8129618
  76.0618544  33.2875681   3.9100024  76.6317177  34.1434455   5.0207311
  22.5752950  17.6161861  31.6796398  22.2257543  16.7645526  31.4173961
  22.6540232  17.5598335  32.6319313  82.1919823  49.7072792  93.1540585
  83.0432320  49.2783785  93.2415104  81.8633270  49.4160986  92.3035145
  35.8219695  31.1694336  15.6281173  36.6213083  31.1275768  15.1032019
  36.0043573  30.6150579  16.3868225  20.3707290  69.4054508   3.8257036
  21.0690856  69.4721556   3.1744903  19.8506951  70.1993942   3.7014002
  36.5259337  32.9613519  55.0023317  35.8445311  33.6334300  55.0176334
  37.1981120  33.2881165  55.6003571   3.3853328  41.2993479   2.8510904
   4.0056553  41.0644913   2.1609648   2.9140520  42.0559216   2.5022069
  17.2192836  77.6518965  29.8608613  16.6456699  78.4170485  29.8191476
  17.5721407  77.5685024  28.9749908  67.8499556  46.5164614  12.7235925
  68.8046122  46.4546299  12.7558446  67.6686716  47.4546576  12.7798140
  62.1539259  70.4051638   8.9503217  61.2439823  70.4288816   9.2464030
  62.1373940  69.8517036   8.1695282  16.5573108  21.2023973  89.6440220
  16.1477745  20.7417607  88.9116764  16.4852023  20.5944109  90.3798103
  19.7217238  81.9911003  16.7343497  19.9134266  82.3761082  17.5894809
  18.9762437  81.4122963  16.8939662  72.0241785   0.7191925  19.4155478
  72.4112892   1.5633379  19.1836083  72.5223207   0.4291293  20.1797152
  32.9346800  86.6781425  31.4084673  32.5802660  87.4666882  30.9975910
  33.8726640  86.7110348  31.2204862  73.6945915   9.7561085  92.2818089
  73.8865805  10.5545855  92.7735424  72.7533817   9.6247846  92.3963070
  90.2182770   9.6959108  14.8924363  90.2699852   8.7843800  15.1799595
  89.6842575  10.1274991  15.5593598  43.1448460  49.9832821  20.2600694
  43.2758760  50.8456612  19.8659134  43.9446497  49.5005560  20.0514388
  37.1642804  42.3036194   7.5014687  37.9981136  41.8577194   7.6502234
  36.6586447  41.6932106   6.9648457  88.4117413  15.8174646  92.8066063
  88.0904579  16.2838864  93.5782623  87.8418922  16.1101115  92.0953655
   6.7952865   9.3435538  68.3317566   7.0877874   9.6903414  67.4888992
   6.9018131   8.3957541  68.2507658  85.2256775  13.2075286  90.6155682
  85.9158421  13.8321638  90.3925514  85.5698204  12.3598015  90.3342152
  36.2597632  57.8050566  37.2949243  36.8301702  58.3266878  36.7303300
  36.6223383  57.9198265  38.1733322  32.6330066 109.8589516   4.7932595
  32.6436520 108.9241886   4.9990171  32.8082561 109.8992634   3.8531035
  90.4384995   9.9431467  83.8124084  89.9708939  10.1869285  83.0135727
  89.8450089  10.1893032  84.5219231  30.7502317 100.5227947   1.2850577
  31.3989043  99.8612976   1.5256506  29.9068213 100.1092339   1.4690620
  32.6978159  76.9487381  17.2513652  33.1371641  76.2678289  17.7608478
  31.8744111  77.1011019  17.7150679  61.1262417  56.3143396   6.6003305
  61.0974979  56.3609743   5.6446987  61.3697577  57.1980381   6.8760324
  18.5409772  60.9120274   1.9946916  17.8963745  61.4883566   2.4052602
  19.0939355  61.4995909   1.4796762  14.4217908  81.2057686  32.0039463
  14.0756691  82.0707798  31.7844415  14.2274761  81.0992813  32.9351449
  29.8948503  69.5959044  16.0568631  29.7803545  70.5228376  16.2664258
  29.2725325  69.4318962  15.3483045  27.8381467  24.2541528  79.2626286
  26.8849778  24.1789150  79.2174435  28.1001592  23.5955715  79.9059439
  25.2618194  75.7807398   5.8612716  24.3856239  75.4068613   5.7678437
  25.1120305  76.6551590   6.2206882  13.7890768  50.2820635   1.2167313
  14.5156324  50.5108500   1.7963913  13.7866127  50.9711313   0.5523419
   7.0995581  25.7964802  66.8520260   7.7010292  25.1797771  67.2693300
   6.5287066  26.0915351  67.5614643  35.3016162  47.6323128  19.6574819
  36.2054420  47.3272371  19.5783484  35.1566887  47.7098274  20.6004667
  13.6493158  55.5479145  11.2252462  13.6938703  55.8304501  10.3117788
  13.6074173  54.5927620  11.1787534  95.8433056  30.8456326  79.0906525
  95.6175327  31.3544941  78.3119869  96.6328239  30.3649235  78.8420105
  30.8721876  63.2569313   1.6065644  30.4274297  63.8630533   1.0140797
  31.2045598  63.8120842   2.3119462  29.6468973  97.6238918  30.7515335
  30.4994774  97.2843266  31.0236216  29.4746876  98.3484745  31.3528347
  30.6380081  89.9380493   0.8925642  31.1944842  90.6856251   1.1109488
  29.7556114  90.2166653   1.1374774  14.0308535  26.3020086  91.7895889
  13.7239170  26.2919378  92.6961803  13.2578814  26.0753822  91.2724876
  32.1161056  39.9645472  23.6112738  31.5590215  39.7505665  22.8628755
  31.6879988  39.5434451  24.3566799  33.3348727   7.1543336  73.3098125
  33.7587976   7.5326884  74.0801144  34.0312457   7.1007365  72.6552725
  40.4569340  94.1647434  25.1870251  41.1393738  94.1527081  24.5159364
  40.9156942  94.4091606  25.9907866   7.5546652  33.3864784   2.6025543
   6.7002678  33.7756515   2.7890515   7.9911554  33.3478451   3.4535626
  13.5167480  81.5573120  20.6261659  14.2730951  81.5047264  21.2104630
  12.9610336  80.8229065  20.8870459  71.9183779  99.9905205  32.1027660
  72.7664852  99.6192074  32.3458195  71.7574835  99.6615505  31.2183857
  87.7647114   1.8097270  39.1049218  88.6296940   1.6818962  39.4943953
  87.1513939   1.5809360  39.8032999  64.9262285  80.3224087  21.8606853
  64.8978281  79.3680620  21.9289351  64.2204571  80.5400944  21.2518072
  95.1143360   4.4099745  24.3471742  94.9175453   5.1736838  24.8896241
  96.0636330   4.4391319  24.2278743  13.7951458  84.1566372  31.3582587
  13.1033337  84.8154545  31.2983012  14.5921862  84.6605682  31.5226102
  23.2854772 102.5653934  35.3367662  22.4418044 102.8571510  34.9913239
  23.7257290 102.1649933  34.5870423  61.7203140 105.1594353   9.9908662
  60.8665800 104.8805046  10.3218639  61.9668674 105.8938599  10.5530643
 115.5598831  32.0973134  93.0113983 115.8397770  31.8501592  92.1300316
 116.3756275  32.2035313  93.5007954  31.1226702 102.6121235   5.3804392
  30.3956342 103.0901146   5.7794046  31.8919396 103.1526852   5.5599946
  28.9473414  73.0726910  11.6618717  29.3381333  73.7761927  12.1801376
  29.2587066  72.2682190  12.0767319  28.2231402  99.9017143  15.0793135
  28.5905457  99.0312958  14.9256790  27.5281715  99.9869633  14.4266379
 104.4404316  86.8716621  77.1301460 104.3509197  86.7481327  76.1851835
 105.0400639  87.6124477  77.2191191  60.2386665  78.9438534  86.5120888
  59.4951057  78.4414291  86.1790466  60.5305147  78.4572458  87.2829819
  45.1309967  75.6958961  19.7431242  44.5114756  75.1498270  19.2591441
  45.9064388  75.1443291  19.8465335  59.1196823  95.8980083  43.0369759
  58.9056206  96.2583256  43.8975430  59.9945068  96.2365437  42.8464317
  35.6024814  47.5733280  90.3503036  35.6558895  48.2451534  89.6705818
  36.5129519  47.4061298  90.5938625  20.1606941 107.4868011  38.1085038
  19.7670829 107.0332527  38.8538837  19.5103228 108.1422901  37.8563428
  21.2382388  73.8598537  19.8239398  21.9135547  74.4208431  20.2053475
  20.8868861  73.3690548  20.5668378  71.9038010  88.1297588   6.4777011
  71.5938139  87.8301334   5.6230867  71.1937714  87.9095650   7.0807022
  38.4741807  74.5623779   3.2466191  37.5751162  74.5506573   3.5749123
  38.3942771  74.8589611   2.3400415  43.7061930  71.4343882   8.7201661
  43.3083391  71.9916773   8.0513066  42.9628372  71.0498810   9.1847241
  39.7221804  81.0036659  16.6906142  39.2990327  80.2194881  16.3409913
  40.0922108  81.4388084  15.9225214  70.7393742  79.4533873   3.5674378
  70.9646082  78.7190247   4.1385919  71.5744877  79.8888683   3.3966345
  47.5007868 104.7240925   6.7232913  48.3936644 104.7680092   6.3811308
  47.4380684 103.8543415   7.1180397  62.5414801  82.7498055  11.6370714
  61.6766167  82.5511456  11.9959271  62.5343132  83.6979294  11.5057874
  62.6369810 107.9941940  21.9023442  63.1122446 107.8993893  22.7277946
  62.8265619 107.1877480  21.4228296  34.0056014 103.6749268  20.8700705
  34.6679044 104.2827225  21.1989570  33.7624574 104.0261745  20.0134873
  45.2181435  81.3275146  26.4505243  44.7575760  80.5126095  26.6506219
  45.0747299  81.8787956  27.2197819  14.7108781  92.8766155  32.5613260
  14.6071696  92.0467472  32.0957136  15.5108047  92.7647305  33.0749702
  73.9774942  62.9322958  31.0281801  74.5271397  63.0945921  30.2615118
  74.1916561  63.6439753  31.6314054  45.4933643  85.2195263  24.7851443
  44.7198534  84.7518730  25.1001191  46.1807394  84.9953270  25.4124260
  58.7536716  61.3437033  25.1567221  58.4132624  60.5131769  25.4892659
  58.3326435  62.0098591  25.7000470  25.5245376  59.8414230  12.0071185
  26.1840606  60.3725052  11.5607846  25.8585620  58.9462662  11.9492209
  71.2947273  91.1063194  23.5474014  71.6809845  90.2316761  23.5023403
  71.4769936  91.4930534  22.6909852  52.4657345  71.5600967  12.7674043
  52.1030331  71.9440651  11.9691253  53.3293295  71.9632864  12.8561544
  72.9809761   1.3361913  34.1283250  73.1755590   1.8041009  34.9403787
  72.1307039   1.6785178  33.8524938  35.7391882  76.6354465  15.9913039
  35.2803206  75.8013010  16.0906672  36.5312171  76.5375471  16.5198278
  50.9362920 104.3579126  93.7350371  51.2058683 104.5112014  94.6406103
  49.9865027 104.2491460  93.7830209  42.7680874 104.0678406  32.8632402
  42.8652859 104.1292477  33.8135099  43.3311272 104.7614670  32.5195718
  32.3327923  75.4742002  13.9995348  32.2339797  76.3976288  14.2313671
  33.2560444  75.3839731  13.7635314  48.1758165 100.1715374  27.9399729
  49.0679693 100.0139618  27.6310015  47.9804134 101.0662365  27.6614881
  51.3847828  49.1151428  25.7774878  50.9167957  48.6726618  25.0693727
  51.7425680  48.4040880  26.3091087 107.7117157  11.7352021  27.6132703
 107.8980446  12.0977318  26.7471933 108.2501602  12.2539330  28.2109547
  63.3996058  98.0007267  38.8204956  63.3466911  97.0504856  38.9227700
  63.5018539  98.3323193  39.7125864  43.2105398  86.5020466  26.9830871
  42.4784374  85.9997082  26.6254497  43.2800579  87.2653389  26.4096856
  10.4862857  44.4914198  81.4302158  11.0898864  45.0415230  81.9295025
   9.9144870  45.1120710  80.9784794  41.7812300  45.1669168  94.5250320
  41.3430691  44.3165159  94.5575714  42.6590872  44.9716568  94.1971970
  32.3352838  87.7257347   3.9523268  32.3330212  87.5312710   3.0150914
  31.6241908  88.3559895   4.0678865  12.1235967  88.9218807  13.0053401
  12.1318460  87.9668522  12.9413664  13.0103278  89.1860199  12.7600563
  54.1994238   6.4683896   6.6858244  53.3667755   6.4705378   6.2136793
  54.6827173   5.7296813   6.3157278  64.2802095 101.6100502  16.1479056
  63.6022139 101.4306831  16.7993510  65.1025009 101.5425682  16.6332078
  22.4171925  85.0101185  11.9748378  21.5622044  85.3709030  11.7401779
  22.3500133  84.8246956  12.9114997  17.2078538  95.2719307  30.0337934
  17.8658450  94.5768452  30.0457311  17.1292853  95.5115318  29.1104031
  50.2128792   6.6165656  17.2334743  50.2213764   7.3109072  16.5746498
  51.1161804   6.3010490  17.2605836  27.0644951  39.5570755  20.7191420
  26.4086938  40.2502966  20.6443095  27.4548054  39.6888661  21.5831566
  72.6300240  67.9884529   5.4782498  72.6685810  68.5381937   6.2608922
  71.6958952  67.8289318   5.3433883  43.8221359  98.8304520   3.8874951
  43.8142538  99.2700481   4.7377461  44.6488094  99.0990734   3.4866378
  47.8188562  79.0214872  14.7351682  46.8953085  78.8313103  14.5704722
  47.9569817  78.7662840  15.6473231  94.3595791 107.6122856  47.1638012
  94.1148472 108.2526398  46.4957619  93.6102104 107.5886536  47.7588749
  49.7791052  80.0058556  11.3227820  49.5213890  80.3259945  10.4583025
  50.6843328  80.2991009  11.4267147  22.0767999  99.6445274  39.3494868
  22.0760369 100.4960251  38.9122510  21.5898681  99.7912502  40.1604128
  58.0951118   0.9485418  17.1509981  58.3651829   1.8024778  17.4887657
  57.5573730   1.1527606  16.3859069  79.7907066  23.5338664   9.9565440
  78.8586760  23.6537337   9.7743851  80.1315403  24.4227672  10.0561512
   5.1886451  51.8760777  67.8584766   5.3849250  52.0881653  68.7710142
   4.8994026  50.9639168  67.8814554  46.9282436 107.0717430   3.2458708
  47.2524548 106.5609360   2.5041211  46.2493420 107.6331902   2.8715697
  43.7112761  81.0501575  30.9820271  43.5518265  80.7443523  31.8749380
  43.7330723  82.0042515  31.0559249  17.6084685 106.0990620   9.4944167
  17.4554813 106.3972187  10.3910387  16.7493403 106.1494350   9.0753806
 106.4389706  53.4771204  72.4784803 106.8800068  53.5906792  71.6365623
 107.0099163  52.8868771  72.9702711  38.5562849  87.4752617  31.1533952
  39.4872165  87.6943111  31.1935735  38.3701706  87.0647144  31.9978166
  20.1147842  55.3423691  19.7212422  20.0589371  54.4271469  19.9959743
  20.5244446  55.3083801  18.8568032  20.1016617 105.9915066  12.1387935
  19.1836858 105.7244110  12.1858799  20.3764296 105.7495880  11.2543666
  22.8477407   5.1995438  86.6269970  22.5024700   6.0918355  86.5980911
  23.7978172   5.3113121  86.6600513  58.4312391  35.1546907  85.8023357
  58.6073732  35.6930041  85.0306892  58.8423681  34.3128681  85.6060028
  68.6387110  89.5151234  29.3555188  68.2018137  90.3666115  29.3377805
  69.4954300  89.6935368  29.7433758  44.8851442  88.0408287  42.0787048
  45.6784582  87.7466583  42.5263071  44.2687225  88.2330036  42.7853346
  24.6654510  27.3926902  77.0379114  23.9276600  27.5268006  77.6328182
  24.3810272  27.7834773  76.2117052  55.5702591  99.4977474  27.6327467
  55.5403662  99.9726295  26.8021894  56.4592028  99.1453266  27.6752830
  36.0486889  81.7318535  20.5008888  35.6520891  81.1029625  21.1037445
  36.7618990  81.2477207  20.0847483  59.3661690  94.9711132  18.6585760
  59.2526340  95.1786804  17.7310765  58.6145449  95.3786182  19.0889597
  37.5924110  97.8077126   1.9034047  37.9096508  97.1123505   2.4796517
  38.3856893  98.2547474   1.6082709  71.7120934  85.5944920  26.6591120
  72.0888567  84.8187065  26.2438512  70.8157873  85.3383636  26.8764997
 100.2719402  35.2611279  93.1742001  99.5471668  35.4239678  92.5705242
 100.8662033  34.6907330  92.6866245   9.5984113  22.5169921  75.4719448
   9.5892692  23.1405139  76.1981440   8.8614053  22.7803397  74.9208546
  45.0789118  96.4257240  45.5682087  44.9788809  96.6891861  44.6534348
  44.2273903  96.0590649  45.8063459  86.7730999  14.5418966  28.7802577
  86.7759228  15.3328300  28.2411385  86.7714310  13.8220203  28.1493807
  35.9831905  87.4336433  26.3184977  36.5500593  87.6343822  27.0632076
  35.4177213  86.7275524  26.6314125  64.3734646  11.8829858  38.0329704
  63.5181141  11.6519678  38.3952379  64.3476105  12.8359473  37.9467821
  10.7958126  77.4162340  45.9575081   9.8848885  77.6089048  46.1796093
  10.7893002  77.2891426  45.0088072  52.4505663 101.5626717  50.3118944
  53.1653261 101.0694790  49.9092579  51.8177223 101.6877079  49.6047163
  87.5259781 102.7773190  86.1271858  87.3450756 103.0377007  85.2240181
  87.0537663 103.4170914  86.6600513  63.5344410 103.0207729  20.4545808
  63.7749672 102.5100803  21.2276101  62.8670168 102.4925327  20.0167012
  74.6405792  72.5214720  24.5034909  75.0060272  71.8092203  25.0282574
  74.8298550  72.2736979  23.5984969 109.5796204  24.7364712  65.7190132
 110.0256634  24.7059035  64.8726416 108.7198734  24.3507934  65.5507278
  89.4025326  26.1354327  21.6050863  89.6242809  26.9975567  21.2532330
  88.7103558  26.3080192  22.2433209 108.1774330   5.9385318  92.8484249
 107.3219872   6.3415313  92.9968357 108.4998703   6.3494647  92.0463085
  18.1968033   2.2571336  12.1045351  17.3480761   2.1735205  11.6699052
  18.7657058   1.6440289  11.6390407  53.9976358  97.9789448  35.8127975
  54.1848803  98.9116096  35.7064748  54.6317196  97.6801395  36.4646339
  42.7558804  61.4360046   3.1619608  43.1238270  61.2556171   4.0270084
  41.9404125  60.9352684   3.1393707  55.0250244 107.8751564  29.1512609
  55.6665468 108.5551453  29.3569446  54.1767263 108.2967091  29.2887974
 106.4382458  10.0795364  92.1279716 107.1408463  10.3193808  91.5237617
 106.1628628  10.9097481  92.5167370  49.2323494 103.2163239  31.4331865
  49.1464949 103.3984184  32.3689771  48.3639336 103.3969402  31.0733771
  53.2816458  41.2943792   1.7955814  54.0252399  40.6916761   1.7883541
  53.5630131  42.0151424   2.3591131 102.6772308   5.3242201   9.7686392
 102.7818489   5.8532214  10.5594897 103.4073830   4.7058553   9.7957873
  46.2246275  99.0841007  10.1887500  47.0403719  99.0570641   9.6886939
  46.4939213  98.9326382  11.0947144  42.7404833  90.2609253  33.5047865
  42.8685856  89.5776844  34.1628146  42.0868969  90.8447266  33.8897943
 102.7255344  40.4802608  92.0362186 102.1430588  41.2129879  92.2363663
 103.3468628  40.4624605  92.7641392  56.3588476  75.9810543   6.7033327
  55.4682302  75.6332827   6.6576600  56.2839794  76.8756390   6.3711506
  41.4426279  82.7562046   8.4278065  41.2004519  83.6368465   8.7142652
  41.3672543  82.7853966   7.4740255  42.9838753 100.2303886  36.2962365
  43.4297848  99.7419548  36.9882059  42.1100903 100.4005146  36.6480780
  40.6165886 103.1773663  12.6413441  39.7623610 102.8116131  12.4116719
  40.6200409 104.0471172  12.2416377  33.6940193  73.9513254  10.6395936
  33.4415770  74.6971750  10.0953352  32.8701806  73.6367083  11.0117960
  26.3437557   2.8864953  22.7499628  26.0211396   3.5738781  23.3327603
  27.2823238   3.0582255  22.6735950   1.2745778  27.3785782  93.3247471
   0.9589194  27.4089789  92.4215984   0.6870797  27.9631877  93.8036060
  25.6328726  94.6764946   4.3250763  26.3092661  94.2748642   3.7797138
  24.8364043  94.1878414   4.1174889  30.7266426  10.9305859  91.4280128
  30.6996083   9.9975765  91.6401291  31.5984201  11.0666776  91.0569191
   1.4812589  19.2211294  32.6508760   2.0103256  18.9599741  31.8971395
   0.6844711  18.6957538  32.5777888   3.9664808  47.2367048  76.2845325
   4.0542009  48.0650806  76.7560530   4.7707668  46.7591286  76.4877033
  37.3126101  83.1420708   7.2936803  37.9859567  82.6482964   6.8256831
  37.1718097  82.6485538   8.1016725  43.3750677  79.6938419  33.2352185
  42.9944420  78.8183928  33.1649303  42.9707003  80.0687027  34.0176487
  37.3967075  84.4063663   1.1697049  37.7811646  84.3953228   0.2931754
  36.4730644  84.6107101   1.0235642  34.8851323  89.5003223  21.4051151
  35.6344962  88.9600372  21.6556692  35.0163603  89.6744442  20.4730773
   3.4607333  33.5315609  75.7665205   4.1006517  34.1715813  76.0781479
   3.5222355  33.5764432  74.8123550  21.7347789  65.6921148  17.2849774
  21.1739349  65.4019499  16.5656078  22.4372172  65.0427103  17.3179746
  53.0213451  98.5251141   2.9493394  53.2425499  97.5951767   2.8992647
  52.8409243  98.7774944   2.0438084 115.9099102  17.7361929  84.0653419
 115.8349895  16.8765497  84.4796276 116.7588043  17.7159715  83.6235142
   8.4114385 108.1278992  32.7321219   7.8467637 107.3705864  32.5776505
   9.2636794 107.8662586  32.3836112  30.6450558  89.3507862  25.4014921
  31.2272215  88.6256599  25.1745415  30.9042001  90.0593662  24.8124337
   2.3876368  23.8669753  81.6747665   2.5412568  23.2917142  82.4242401
   2.2855602  24.7379947  82.0583534  13.9437485  34.7571039  86.0566902
  14.2597878  33.8896656  85.8038998  12.9918945  34.6635175  86.0947418
  62.9163837  99.1756248  19.0777123  62.6233912  98.4517860  18.5241354
  62.3360062  99.9017906  18.8495231  40.5851030  74.1887236  10.0160158
  40.0645542  74.2847157  10.8135426  41.2075520  74.9152231  10.0473833
  55.3919411 100.4175758  16.6434681  56.1416674  99.8248768  16.5900660
  55.2365351 100.5232430  17.5820398  58.1495190  98.7517166  28.5433602
  58.5631657  98.0225372  28.0813766  58.0763626  98.4507942  29.4490790
   6.3593847  68.3839464  12.8444028   5.9430122  67.5520468  13.0698049
   6.4152068  68.3727026  11.8888974  92.4959850  84.0947628   0.9499392
  93.4399986  83.9369965   0.9368065  92.3133087  84.3803215   1.8451002
  67.5040913  77.1893167   3.5741684  68.2552910  76.6836357   3.8843611
  66.7417765  76.6924047   3.8711178  49.5397139  86.7390347   7.8120267
  50.1314974  87.0941830   7.1487808  49.5788479  85.7911110   7.6850170
  57.6295376 101.9205952  18.5590553  56.9337416 102.3912716  18.1001890
  57.7204752 101.0984039  18.0774307  10.8905709  45.8027935  94.1225529
  11.5845561  46.1021328  93.5351753  10.7884705  46.5141964  94.7547817
  20.8086586  17.9729223  89.9189854  21.6452622  18.2768881  90.2710152
  20.9506392  17.9226840  88.9737034  53.0548286  75.4857492  11.0339212
  53.4926224  75.4017067  10.1868629  52.9634666  76.4296961  11.1636996
  56.4745665  82.9287815   3.5385895  56.8589354  83.7504959   3.8439929
  56.8224764  82.8157902   2.6540431  92.3817444   2.4297607  37.6332140
  92.0917511   3.1760696  37.1086621  93.3372688   2.4604031  37.5856066
 113.2786655  48.3757257  93.0218506 113.3172512  47.9337788  93.8700390
 112.3505306  48.3646441  92.7880096  14.4446933  18.1073463   3.4833267
  13.4947646  18.0572534   3.3767489  14.7137046  18.8188839   2.9023111
  77.1752262  63.1995869  21.4313865  76.9010830  62.7647448  20.6239271
  77.7567482  63.9017344  21.1397505   3.9144707   8.2377404  20.0055194
   2.9586598   8.2022727  19.9681127   4.1291898   9.1447997  19.7878695
  36.3663340  90.7555103  42.4197769  35.8603859  91.5678978  42.4032593
  35.8257437  90.1468658  42.9233074   3.4304023  25.8006001  94.3282127
   2.6490471  26.0187459  93.8201523   4.1579458  26.1369801  93.8049889
 109.6449184   6.1827511  50.1336479 109.3532848   6.9359350  50.6473589
 109.6390724   6.4935654  49.2283344   7.9054844  35.1036906  92.3203468
   8.7029421  34.8541665  91.8534088   7.9622263  34.6401978  93.1559277
  23.6601305  41.8175316  92.3959732  24.3740797  41.2156630  92.6063633
  23.2057476  41.9502687  93.2279301  17.9232609  86.9053555  66.5534353
  18.0199575  87.2432041  67.4437952  17.3307669  87.5235939  66.1256981
  48.1730270  99.0885735  33.0590367  48.9871120  98.9038372  32.5906706
  47.6943398  98.2598114  33.0433965  91.6092110  82.2846603  17.6568973
  91.4980793  82.1550846  18.5987532  91.2175274  83.1409931  17.4850810
  72.4604034 104.9473286  42.2879219  72.2805309 104.0209198  42.1277475
  72.9902077 104.9540997  43.0851030  43.0601788  95.0825787  15.5838418
  42.4171877  94.4739532  15.2200222  43.1579256  95.7575035  14.9121642
 113.5076427  50.4079771  83.8020134 114.3817139  50.1874495  84.1238594
 112.9244900  49.8005247  84.2571735  26.7505145  84.8916245   8.4072876
  26.8691587  84.1218948   7.8508079  27.2571826  84.6974754   9.1958463
  31.2640810  88.7413883   8.7480038  31.9645524  88.3687973   8.2125133
  31.7203784  89.2136288   9.4444317   1.1999909  90.6577301  12.9483140
   1.5232930  91.5322781  12.7318025   0.2741037  90.7885170  13.1529105
 106.9471645  64.1797924  76.5206146 106.5569878  64.5261097  75.7180834
 107.6870251  63.6526108  76.2190819 104.2331982  11.7929232  23.6660600
 104.0509892  10.9714413  23.2097697 104.4516563  11.5273678  24.5593596
  56.6542053  78.4832001  16.6202915  55.9259319  78.8333511  17.1333635
  57.3925686  78.4717607  17.2293222  85.8991528  12.2141075   2.7608407
  86.1702442  11.7961144   3.5781676  85.0410748  11.8347836   2.5709558
  26.0106182  99.8969746   7.9317379  26.3683677 100.3221893   7.1523511
  26.4588332  99.0520954   7.9706913  37.5053859  34.3957472  79.0288115
  38.4402156  34.5174122  78.8629103  37.4378586  33.5073423  79.3786860
  72.5624752 108.8006973  43.3897781  71.8099356 108.5613251  42.8488445
  72.8118372 109.6718121  43.0812073  20.2566028  83.4468174  26.2359285
  20.1945043  82.9889584  27.0742297  19.4868219  83.1563187  25.7467651
   7.6729655  55.5603456  83.3803749   8.0033863  55.6052876  84.2776108
   8.4462458  55.3689766  82.8496742  57.8058529  81.4582157  19.2514372
  57.4114752  81.0413074  20.0175238  57.0603466  81.7252350  18.7137055
  97.6552963   1.7293371  22.4650168  97.0855331   1.9168872  21.7190766
  98.4806538   1.4469872  22.0709467  56.7237186  91.8556976  22.0072794
  56.5089846  91.3124943  21.2489605  57.6661110  92.0068169  21.9344997
 109.8194218   1.3524704   6.9253749 109.0690994   1.3088728   7.5181258
 109.8679829   2.2730792   6.6677845  48.2559443  84.8788166  29.6205163
  48.8931227  84.8347282  28.9075661  47.4884224  85.2969646  29.2302752
  70.1330137  82.8445244  10.8271062  70.3737688  82.6647186   9.9182940
  69.6118116  82.0863819  11.0912943  66.7700863  99.3750954   8.7528789
  66.1406851  99.7716618   9.3552274  66.2321806  98.8724422   8.1411350
  92.1899033  15.7361615  13.0832946  92.5942039  15.8689022  13.9407051
  92.3341751  16.5613270  12.6201320  56.0708332  96.3285732  37.8933525
  56.9362736  96.2092495  38.2845068  55.5558538  96.7567158  38.5772586
  36.2998104 106.1950016   5.8940953  36.9666576 106.5534210   5.3083646
  36.7071891 106.2126446   6.7600995   4.8855203  44.6289778  86.9942188
   5.1651210  45.4649305  86.6210651   5.6966114  44.2152500  87.2894955
  46.0543156 105.5376816  33.6674142  45.6101179 105.5944729  32.8214240
  46.9284678 105.8913994  33.5031724  46.7454147  78.6301184   9.0583819
  46.7083979  78.2128572   9.9190545  47.3078203  79.3939972   9.1865295
  27.5296116  90.3635883   0.8793846  26.8636918  89.8249817   0.4519745
  27.4452066  90.1552582   1.8098179  69.3103838  91.6195583  31.4557719
  69.0463924  91.9832325  32.3009253  68.5064936  91.6130733  30.9361982
  45.9283972  90.0986862  38.0033278  45.2316523  90.1401520  38.6583543
  46.6813517  90.5094719  38.4282374  10.7066584  74.4995832  82.6606369
  10.5633652  74.7910595  81.7602253  10.6894386  75.3043985  83.1785297
  36.9007611  91.9868851  47.2642326  36.4630795  92.8130150  47.0588446
  37.2314954  91.6751575  46.4218140  81.9129944  76.7248154  26.8901992
  82.1895313  77.5888586  27.1954727  81.6808605  76.8584490  25.9712386
  64.3549776 105.3338718  16.8458068  65.1043320 105.9291840  16.8284953
  64.6905088 104.5384312  17.2592413  55.6917667  80.4673576   4.6060976
  56.2014866  81.2752342   4.5448121  55.0457764  80.5378437   3.9032724
  59.4093800  84.6342945  17.0130908  60.1576328  85.0747967  16.6102183
  58.9004278  84.3020630  16.2736166  46.5293264  84.3239212   0.0908059
  46.9388676  84.9972057   0.6341313  45.8190584  84.7798443  -0.3607381
  11.9168830  61.4365244  69.3628645  11.7597055  60.8790541  70.1249361
  11.1173642  61.9557762  69.2769670  92.9822826   0.7320753  43.3346605
  92.8993702   1.6855679  43.3491468  92.1427250   0.4135933  43.6662388
  80.3815651 106.9909191  27.8911185  80.7686901 106.1272717  28.0342555
  80.4967022 107.1527958  26.9547582  68.0132103  83.3305550  13.6786401
  67.4164820  83.8742542  13.1643021  68.8863182  83.6441135  13.4428620
   9.7107744  47.8503990  87.2716713   8.9910692  47.4050426  87.7187920
  10.3052545  48.1108332  87.9752350  31.8443370 106.1685848  25.1270843
  31.6101646 105.9702301  24.2204118  31.1435628 105.7751179  25.6470156
  89.8687172   4.2819712   9.2775434  90.4047394   5.0252092   9.5541376
  89.6967888   4.4427809   8.3497429  29.1741157  91.7572403  57.5965834
  29.5272565  91.2242603  56.8842220  28.5371614  91.1880684  58.0285072
  59.9826813 106.5537357  21.6787100  60.7522011 106.1024094  22.0256567
  59.9760723 107.3976517  22.1303701  19.9294460  43.8426828  87.4573421
  20.6995392  43.2815742  87.3659897  19.6844578  44.0614080  86.5582466
 114.9619770   8.2889593  82.8702164 115.2842808   8.9234585  82.2300911
 114.9609947   7.4546897  82.4009323  55.7631493  90.6196404  28.2519364
  55.1463699  90.1811790  28.8380814  56.0722494  89.9270535  27.6679754
  36.6139627  63.9164495  80.8629131  35.7288098  64.2003584  81.0912418
  36.9347787  64.5907593  80.2640724  33.2488775 105.2032471  18.5522771
  32.9800391 105.9002113  19.1507769  33.4440255 105.6547356  17.7311134
  38.5067558  90.9958458  37.1052790  38.2169390  90.1253033  37.3780489
  37.7946067  91.3243294  36.5564919  37.2772217 105.5034542  28.8512325
  36.9906092 106.1361027  29.5098948  37.8721571 105.9976959  28.2873154
  47.4081230   2.5588679  51.5733957  47.6736259   3.3226961  51.0612345
  46.7379475   2.8918570  52.1702290  73.2414627  52.2698784  30.4724216
  73.5927343  52.3574972  29.5863295  73.6842489  52.9541540  30.9743547
   6.4426148  46.3607693  85.0864601   5.7090920  46.5061331  84.4889259
   7.0289558  45.7748222  84.6078110  25.2375007  43.0136204  78.4897709
  25.2864480  42.9881763  77.5341606  25.9128618  42.4008036  78.7805891
  81.9971180  33.2287002  17.6891339  81.8512917  34.1727853  17.7497137
  82.8569794  33.1451297  17.2769618   7.9197681  57.5010204  88.7001801
   6.9815844  57.5184393  88.8892269   8.1963491  58.4142590  88.7758923
  81.7223644   9.3902838  10.1377296  80.9407997   9.4434357   9.5876759
  82.2285461   8.6681545   9.7655177  79.6301651  97.5510693  31.9059038
  80.1523972  96.7505074  31.9568777  79.5898199  97.7515888  30.9708118
  25.5341673  15.1351094  89.3192768  26.4449048  15.2012825  89.0322018
  25.0447679  15.6606400  88.6863899  58.6439371  78.8787174  21.3699889
  59.0410614  79.3477821  22.1038151  57.8319645  79.3538189  21.1933017
  65.8677006  61.1721802  34.8431468  65.6174231  61.4830446  33.9731145
  65.6605673  61.9018936  35.4269671  95.9683037  29.6881914  68.0635214
  95.8837414  29.6681261  67.1102762  95.5618954  30.5151749  68.3226776
  77.2325134   7.0931536  43.0311108  76.5866852   7.2050959  43.7286806
  76.9795609   6.2772512  42.5991964  62.7454948  94.1749191  13.6465454
  61.9115639  93.8762379  13.2837999  62.5436783  95.0211811  14.0457213
  41.4388466  91.5847683  40.3221607  40.7398272  90.9835911  40.0648975
  42.2400713  91.0663986  40.2476168  75.4608202   1.5808746  32.8389621
  74.5098400   1.4759128  32.8681207  75.7527399   1.3663901  33.7249708
  66.0027122 103.8720703  34.4644308  66.8387938 104.0456009  34.8969603
  65.8103514 102.9578876  34.6729946  59.1190720 105.9576321   8.1417423
  59.0647078 105.3560925   8.8843179  59.7335958 106.6342068   8.4260732
  77.2701836  77.3198271  17.2539723  77.4841118  78.2075596  16.9669271
  77.9833221  77.0812130  17.8461957  79.2328930  30.9426332  93.4421349
  79.5891666  31.3840055  92.6710987  78.6477995  31.5881443  93.8386345
  72.4798107 102.0253563  41.9706154  73.2488871 101.5129757  42.2200346
  71.9826984 101.4456940  41.3934612  36.6935015 102.5775337   0.5796715
  37.1322823 102.2855377   1.3786969  37.4050760 102.7313042  -0.0418175
  62.1927691  74.9292612   5.2210134  62.5915575  74.7229624   4.3756518
  61.6701031  75.7136345   5.0542301  82.4699688  70.0236320  37.1974206
  81.6911221  69.7335196  36.7225862  83.1952381  69.8478889  36.5979862
  76.8478823  91.6957378  31.3883567  75.9239197  91.8648052  31.5725923
  77.2484016  91.5884495  32.2510862  87.7675724 102.2235680   7.3828077
  86.8526363 102.2987366   7.1117282  88.1482315 101.5949821   6.7694455
  92.2445202 104.7292423  23.1945443  92.6163101 105.4876423  22.7441740
  91.3528633 104.9965191  23.4175801  21.5424585  77.8835773  32.7222228
  20.7063293  78.3053017  32.9203868  21.3642168  77.3506880  31.9473100
  48.0302811  74.4755077  11.1314070  47.6512909  74.0814066  11.9170761
  47.7301979  73.9166927  10.4145360  41.6299725  40.7951593  75.9078074
  41.9902754  41.6774273  75.9973812  41.4253139  40.7134533  74.9763203
  67.0831394  12.0762730  33.2570314  66.6495657  11.7609787  34.0500212
  66.4006996  12.0546365  32.5861859  80.5187511  18.1399858  14.0345049
  80.1508331  17.8863144  14.8809791  81.4639664  18.0350089  14.1430378
  56.6242886  96.2921429  23.5563397  57.4065685  96.7023468  23.9251256
  56.5918684  95.4273510  23.9653635  43.7069321  88.1675053  55.8754587
  42.9829264  88.2586670  55.2559948  44.4793749  88.0419636  55.3242731
  72.7374983  85.5144405  14.6103728  73.0169964  86.1935329  15.2243388
  73.2049370  84.7285557  14.8934150  86.4683533   5.8504105  40.8728504
  86.4572430   5.9317285  41.8265295  87.0918751   6.5162909  40.5829382
  88.7487698  10.8833694  11.9719577  87.9886723  11.3825738  12.2707570
  89.0114594  10.3677285  12.7344131  90.8859730  13.1976569  26.0025549
  91.6656590  13.6999941  25.7659340  91.0715103  12.3095655  25.6974292
 108.9555931  51.2000084  83.1806278 108.5593414  51.6156149  82.4147987
 109.8959446  51.2169313  83.0026245 111.0357761   2.9290408  25.3715777
 111.2311935   3.6819696  24.8137760 111.1779785   3.2479194  26.2628293
  89.8112679   7.2179598  16.1207914  88.9311218   6.8427944  16.0919511
  90.3433704   6.6211760  15.5945396  43.0770445  55.4277420  76.3382387
  43.2486057  56.3355112  76.0877228  42.8578663  54.9896669  75.5158758
  82.5623226   5.7049072   9.3821841  81.8705750   6.0470086   9.9484748
  83.2597065   6.3584834   9.4343877  29.1677618   0.4360547   9.4409353
  29.9429417   0.9191236   9.1546273  28.6888790   1.0559641   9.9910402
 115.9118557  31.2475848  39.5782113 115.6127548  30.8407235  38.7650490
 116.8665600  31.1922860  39.5366478  99.6578217   8.0154687  28.5082746
  99.9436569   7.3969114  29.1805220  99.7557354   8.8754904  28.9169407
  60.0166178  15.6922030   6.5916646  60.1030016  14.7436702   6.6868186
  60.4882860  16.0522079   7.3427701  53.8437080  80.5054760  20.4366517
  52.8867245  80.5253124  20.4323339  54.1027737  81.4172840  20.3035092
 104.7558403  44.0402651  86.2018681 104.0558434  43.4706783  86.5209198
 104.3039227  44.8263502  85.8951473  73.9552641   3.8239858  43.6611700
  73.5698175   2.9898620  43.3930302  73.2319784   4.3030429  44.0656376
  49.5082283 109.1750336  13.2752562  49.9871063 109.2373657  12.4488056
  49.5623255 108.2497215  13.5142219  79.6472931 104.2878628   1.6870295
  78.8737106 104.3292618   1.1248145  80.0911236 103.4813595   1.4247259
  41.8365097  93.3395100  32.3739934  41.4292002  94.0147972  31.8314838
  41.1050463  92.9301071  32.8361511  96.2250137  20.3610468  36.6783309
  95.7721901  20.3409338  35.8352542  95.5637455  20.0829673  37.3120737
  40.6314754 108.0243778  24.2655802  40.8839989 108.6295509  24.9628830
  40.5799341 108.5707188  23.4813070  60.3047180   1.7394267   9.7345990
  61.0644960   2.3188062   9.6772182  60.6651258   0.8599075   9.6215194
  52.3327875  96.9029617  30.6253529  51.5147495  97.3579407  30.8254695
  52.0657587  96.0046387  30.4305673  67.8181744  81.3208580  22.3336911
  67.1168756  81.1194706  21.7141271  67.8861284  80.5385685  22.8810859
  25.7108998  88.7456608  24.4598079  24.8864579  88.6487579  23.9832187
  25.6281209  88.1506538  25.2050257 107.8935909  63.7722111  80.3905964
 108.3806229  63.4047318  79.6530390 108.2997036  63.3814621  81.1642933
 103.9991188  16.8625069  30.6075025 104.0716076  16.4769971  31.4806342
 104.2021656  17.7889025  30.7371020  58.0495501  63.9194870  22.8671718
  58.1789684  63.2898426  22.1579266  58.8197279  63.8130045  23.4254909
 115.3451538   2.6843897  68.5821056 116.0938454   2.2112840  68.9452362
 115.7183933   3.2256743  67.8864479  80.9691715  97.1853638  21.4062071
  80.1261520  97.2644043  21.8526506  80.7472610  96.8734837  20.5288696
  23.8853216  78.3482361  11.9792306  24.3248582  79.1744900  12.1800864
  24.3092251  77.7066898  12.5492811 109.7585392  25.7022858  90.0156593
 108.9203072  25.4526329  89.6267223 109.6077538  25.6560349  90.9597683
  21.8533301  70.4857635  34.7960639  22.5327396  70.7330704  35.4233384
  21.3621116  69.7920275  35.2361369  47.1898603  80.6235218   3.2090783
  46.9298315  80.8206177   2.3092066  46.4842987  80.0719070   3.5469151
  30.2031922  89.1136646   4.1583347  29.7335196  89.9122047   4.3990833
  29.5320749  88.4311485   4.1606450  64.2711592  91.8517971  14.5484769
  63.6342049  92.5246048  14.3079662  64.5426178  91.4696884  13.7138867
  18.1544638  58.3977699  16.4669120  17.2310376  58.3706236  16.7174661
  18.6016273  58.7471104  17.2377825  52.3317146 101.7825317  28.5296702
  52.8415966 101.2053108  29.0980625  52.1375942 101.2492180  27.7588677
 109.0927792  86.4440346  11.4566481 108.4700394  87.0575333  11.0667300
 108.5943317  85.6342983  11.5666497  84.6417522  69.2177248  35.8655262
  85.4797840  68.9270353  36.2252927  84.6512699  68.9114952  34.9586844
  42.5847626  79.9830341  18.4589303  42.1483898  79.1311550  18.4482980
  43.2308578  79.9299860  17.7546728  13.4598255   6.5936565  90.8043385
  12.6439846   7.0011741  91.0951424  13.1974781   6.0191053  90.0851059
  39.7244024  87.8005409  90.5606461  40.0254822  86.9854355  90.9621143
  38.8598633  87.5889874  90.2084351   6.3852191  82.4791527  34.1620326
   6.2375730  83.4008884  34.3737841   6.3163269  82.4385166  33.2081819
  27.0710087  81.3997459  89.7071075  27.1960878  81.1772823  90.6296635
  26.4206362  82.1020031  89.7161293 104.1863155   6.6310585  18.2744956
 103.7386227   7.2536153  18.8474059 103.4857368   6.0797602  17.9259408
  96.7006397  83.2757378  87.6976871  96.7373943  82.3331165  87.8599930
  96.0775661  83.3706188  86.9772720  47.9476166  76.5117550  20.8903050
  47.2682190  77.1825171  20.9590769  48.0745411  76.3950586  19.9487615
  56.4071274 108.1305122  42.4856663  55.9221458 108.1318665  43.3109045
  55.9440994 108.7616062  41.9347048 101.9408512   5.1845235  17.7720463
 101.8869495   4.2945164  18.1202042 101.5031147   5.1361722  16.9221759
  36.0116911  83.5212326  25.7773376  36.1971927  84.0649414  25.0117016
  35.4544163  82.8185654  25.4427671  72.8387594  90.4726505  26.3205457
  72.0283604  90.1411152  26.7072892  72.7231121  90.3480053  25.3785682
  57.2744799  74.1245270  59.2083168  56.8994188  73.5679388  59.8907948
  57.5783062  74.9033546  59.6745300  44.7056627  76.4533663   3.5480931
  45.2742338  77.1124935   3.1499642  44.4470644  76.8352413   4.3868575
  76.7060947  15.5119240  11.5910637  77.3398209  15.7729745  12.2592533
  77.1376991  14.8017693  11.1160588  15.1009965  60.6409407  83.5105801
  15.8404434  60.1614571  83.1370258  15.2926672  61.5600109  83.3240223
   7.8821063   6.2042433  89.5807266   7.7360171   6.2664294  90.5246639
   8.5261744   6.8868852  89.3925571  89.0641689 100.6159687  27.5637913
  89.5852947 101.1834335  26.9957662  88.2585430 100.4588604  27.0713401
  45.5337048  98.6338425  54.7807503  45.9554052  97.9688168  55.3249311
  44.9442101  98.1390667  54.2116070  41.6539955  46.6768837  34.2322803
  41.1239100  46.7215872  35.0280428  41.1340189  46.1476088  33.6275315
   4.2555749  37.5509667  82.1245098   4.4103003  36.7047858  82.5443554
   4.6073541  38.1924677  82.7417374  49.6610546  89.6302700   5.8795553
  50.5769300  89.3866539   5.7451838  49.2612696  89.5457840   5.0139540
 110.3482246  15.6212270   6.4468926 110.3723717  14.9811697   5.7355738
 110.0846958  15.1152670   7.2155201  86.3056946  97.7280903   9.8014408
  86.7308521  98.4143353   9.2871130  85.8954048  97.1597004   9.1496515
  96.9667435   1.9715217  31.1653090  96.5104198   2.7120781  31.5647840
  97.2265530   2.2886249  30.3003407 107.5925446   5.1520324  35.1449442
 108.4824562   4.7995031  35.1429033 107.5052547   5.5770898  35.9981370
  80.9418774  78.6479235   5.1220530  81.7322254  78.5792780   4.5864594
  80.2562904  78.9049149   4.5054793  11.5024841  38.1726074  32.9344869
  10.9508681  38.2573104  33.7121606  11.1804497  37.3844290  32.4971080
  90.8466625  62.3595428  30.6020927  90.5770588  61.8747997  31.3822031
  90.1147461  62.2598648  29.9933314  41.8593454  99.6393394  23.3839130
  42.2650194 100.1862907  24.0565968  42.4753189  98.9174652  23.2585788
  48.6972380  48.2614088  15.5076456  49.5988607  48.3924055  15.8011556
  48.7682819  47.6337671  14.7884440  27.3821831  99.5379639  38.9826393
  27.0353413 100.3374672  38.5867596  26.6395903  98.9340687  38.9927578
  51.8607855  87.4054241  14.2862046  51.0844946  87.6891804  14.7689962
  52.5863600  87.8667545  14.7068644  54.3079758  88.8017464  29.8942041
  54.1654968  89.2790508  30.7115865  53.9036465  87.9468918  30.0424266
  73.4569168 103.4118176  89.0250587  73.1836414 102.5165367  89.2251015
  72.6702356 103.9391041  89.1641331  48.1494808  82.2680378  27.7496147
  48.5886383  83.1171799  27.7014065  47.8635883  82.0949745  26.8526506
   9.5675308  69.8664331  87.1435356   9.1458899  69.4225740  87.8793621
  10.0100648  70.6176138  87.5386715  29.0173411 103.5394478  37.0402670
  28.3524871 103.1903553  36.4466882  28.5305023 103.7864494  37.8265309
  46.5114832 109.6376038  13.4975100  46.5960026 109.4263077  12.5677574
  47.3392153 109.3520546  13.8842332  91.0886097  55.7577848   3.2286793
  91.5075397  55.6703806   2.3724701  91.1373615  56.6934156   3.4247822
  95.4716492  13.1676257   2.1983021  95.6144047  13.9570189   2.7205157
  96.1843681  12.5809085   2.4513403  53.0278683  86.0114956  17.4421144
  52.9196930  85.2176189  16.9183850  53.7551498  86.4750862  17.0269334
  53.3678532  31.8739939  16.9189239  53.8973856  31.5351844  17.6407528
  52.4647617  31.6903090  17.1776021  51.0082722  97.5383949  51.0858011
  50.4269505  97.2848415  51.8027496  51.8162966  97.8139973  51.5186691
  58.2434845 108.2362366  17.8173661  58.7343645 108.9350891  18.2496524
  58.7368298 107.4399281  18.0141664   2.4429740  44.6313143  91.0143661
   2.3651691  44.6842384  90.0617981   3.3286476  44.3006754  91.1643314
  58.9552164  80.1707458   8.4751064  58.0089235  80.2346516   8.3459616
  59.1022539  79.2574167   8.7209791  69.7324562  95.5043030  20.7776737
  69.1634798  95.1281929  20.1060772  69.8557234  96.4136314  20.5053687
 103.8673878  79.0293169  91.6166210 103.8741875  79.9092913  91.2400150
 103.8338280  79.1737509  92.5622654  98.2278538  38.6291075  73.3165026
  97.7054787  38.5700512  74.1164160  97.7934933  38.0369949  72.7025270
   8.5205323   0.3138011  41.5306377   9.0998518   1.0716744  41.6096878
   9.0522969  -0.4258434  41.8245459  82.0341873 104.4628334  13.0611801
  82.8949165 104.4558334  13.4798849  82.2067356 104.7473145  12.1636677
  73.9791346 100.3030491  12.6219976  74.4276810  99.5389080  12.2598743
  73.1048107  99.9839306  12.8454947  40.2854633  87.6456261  51.0472012
  39.5534658  88.0512524  50.5825710  41.0119820  87.6786327  50.4248571
  79.9709225   4.1311249   0.6087090  79.0854359   3.8195390   0.4214534
  80.4216099   4.0931112  -0.2348959  29.4883633  14.3153250  76.0780668
  30.0764108  15.0177872  76.3555193  29.5277882  13.6752737  76.7887115
  53.9596128  87.3254299  38.0047870  53.4925699  86.5493393  37.6953053
  53.7418365  88.0059052  37.3677897  53.1665850  80.7270813   6.5527022
  53.5358429  80.2637386   7.3044938  52.8069735  80.0349712   5.9978181
 104.6969318   3.7026727   9.9880534 104.7185135   2.7465853   9.9472725
 105.6141376   3.9590755  10.0840640  81.7839432  95.6340408  40.7471228
  80.8293724  95.6981850  40.7773018  82.0881081  96.2924290  41.3718081
  58.5470152 108.0255699  11.0163093  58.2018518 107.7618217  11.8692636
  57.7735710 108.2808685  10.5134809  75.1337814 100.9478283  17.4542105
  75.7216740 100.3867245  16.9484675  74.4051409 101.1283016  16.8602908
  82.3425007  64.7109079  46.7439461  81.4317799  64.9903917  46.6506195
  82.4993801  64.7171068  47.6881838  62.5879717  95.2846336  38.6798859
  63.1057310  95.1419163  37.8875542  61.6922045  95.0654602  38.4233642
  56.1481524  34.5764279  90.5546570  55.8119202  35.4024243  90.2069378
  55.3659105  34.0900326  90.8149529  97.6504135  22.4040556  23.4476233
  98.1813431  21.9214511  24.0812135  96.8273163  22.5746799  23.9054775
  22.4324656  73.3469200  80.7561207  22.6103616  73.1410503  81.6738319
  23.1546855  73.9180088  80.4944134  77.3044348 102.1208382  33.4044218
  77.8682470 101.7606831  32.7198553  77.8991222 102.3076248  34.1308427
  44.9276257  98.6795235  42.7747297  45.7262182  98.7547112  43.2970572
  44.5755339  99.5691490  42.7460623  19.7906113  32.3811531  92.3661900
  20.6001067  31.9545460  92.0851994  19.0967333  31.8961024  91.9195461
  18.8094337   0.7041920  30.6134987  18.3989246  -0.0848972  30.2598834
  18.2551105   1.4211644  30.3054237 105.8246708  80.2580547  13.0690777
 106.0463715  80.8783627  12.3745990 105.0293541  79.8252058  12.7586925
  92.6947498   5.2553165  16.2575626  92.0228100   5.6019473  15.6705499
  92.4685383   4.3310273  16.3612556  93.3133411   8.6032397  57.5920057
  94.2507744   8.4575766  57.4646139  92.8919888   7.9111487  57.0823956
  89.0077782  24.1735005  19.9393976  89.4820499  24.3032146  19.1181374
  89.2916393  24.8979545  20.4969096  75.0318241  79.0648556  14.5488334
  74.8259592  79.9469328  14.8583317  74.7302532  79.0532923  13.6404538
 112.1883202  20.1279569  16.9936550 111.7318726  19.7110593  16.2628388
 111.8538380  19.6810234  17.7712190  46.3030815  86.6297817  17.6781261
  46.4691448  85.9185982  18.2968962  47.0624018  86.6224194  17.0953655
  17.9331350  48.5420465  84.5390987  18.4240043  48.1488037  83.8175392
  17.8682685  49.4685936  84.3077374  24.3307042  71.7900038  86.5456104
  24.7523952  72.1845436  85.7822323  24.0283060  70.9357357  86.2373734
  97.4834538  12.9404151  15.4718077  96.6802025  13.1762457  15.0076830
  97.8844833  12.2628593  14.9274480  69.3161154  97.2375965  12.8816211
  69.0474081  96.3214684  12.8127766  69.7983980  97.4071980  12.0723796
  69.0171909 103.9671707  34.8274183  68.9914989 103.0200005  34.9632049
  69.9375629 104.1583824  34.6469021  99.0314007  51.5371227  91.8500805
  99.7899151  51.5461540  91.2662983  98.7689400  52.4552774  91.9159794
  47.1521950  96.5380383   2.4740039  47.3210001  96.1389446   3.3275044
  46.8978882  95.8053017   1.9130662  98.1452847   0.5423315  44.7896719
  97.2024155   0.7062673  44.7707033  98.2589722  -0.2610199  44.2818022
  25.1190662  84.6174335  91.3605785  25.6643176  85.2081203  90.8409500
  25.7111573  84.2692089  92.0272160  58.7820244  87.0416164  31.5575242
  59.4918966  87.6568699  31.7413211  58.1017160  87.2640514  32.1930814
  52.1818066  99.1050625  18.2916844  52.7963448  98.4874630  17.8952718
  52.2131968  99.8733807  17.7216578  79.6810055  98.0059052  29.0864611
  79.8285913  98.9483833  29.0078139  80.2603340  97.6172447  28.4310532
  70.6983137  89.5094204  10.5820513  70.8712101  88.9066124  11.3052154
  71.5628195  89.7025967  10.2193677 107.4988461  18.0330467  33.2539535
 106.5855408  17.7706361  33.3690405 107.9481316  17.2288871  32.9937530
  97.7812099   8.4188133  19.8920441  96.9511700   8.8058984  19.6137965
  97.5308132   7.7403855  20.5191565  70.9528112 100.8433437  25.9691596
  71.1659527 100.5228424  25.0927544  71.6211081 101.5038490  26.1517358
  28.0653381  45.6195402  93.3844662  28.4152889  44.7291374  93.3536243
  27.6314569  45.7357693  92.5392056  80.4551506   1.8487643  12.4568582
  80.8207798   1.7823762  13.3389807  81.1883831   2.1402673  11.9149840
  97.9080200   6.3377070  27.0374823  98.2590294   5.5554444  26.6119289
  98.6812210   6.8085378  27.3484683  68.8417149  87.1682358  21.7067671
  68.7053490  88.1034088  21.8587136  68.3596420  86.7380333  22.4130011
  13.4881830  88.3258438  90.5773354  13.0578291  87.5201035  90.2913094
  13.9479053  88.0798817  91.3800716  75.6412935  20.9750605  20.8305383
  75.8179998  20.8914661  21.7675662  76.0404062  20.1970148  20.4411960
  67.0232010  83.3441734  25.9165645  67.0124674  83.7784958  25.0636435
  66.6884995  82.4646091  25.7416749  63.8188362  85.3236198  23.5779858
  63.5879898  85.9573364  22.8987598  64.1185522  84.5534325  23.0950713
  97.4045277  17.8446293  34.5968199  96.5810966  18.1139576  34.1898084
  97.1524715  17.5403214  35.4686570 110.9184265  13.8525105  25.6419659
 111.4786243  13.6331332  26.3864732 111.5283871  14.0073717  24.9207139
  84.8578739  17.1809280  10.3787053  84.9442959  16.8801868   9.4740963
  85.7407570  17.4570262  10.6247032 108.0372524   2.4191052  35.9133554
 108.8095951   2.0452701  35.4891205 108.3837700   2.8839841  36.6749620
  44.2533779  65.4700422  91.5326595  44.0058565  65.1023722  92.3810577
  44.1368723  64.7477627  90.9154320  29.7284245 103.4745026  47.1165562
  30.6230903 103.1497383  47.0148897  29.4432282 103.1298637  47.9627943
  82.1374607  91.4408112  20.6667686  81.7955017  92.3338890  20.6252384
  82.7103329  91.4391136  21.4336133 107.6590538  23.4643936  37.2288942
 107.2389030  23.0697918  36.4647007 107.8417206  24.3656254  36.9631052
  87.0882893  11.3827384   0.2652428  86.7575359  11.7992318   1.0610892
  87.8497028  11.9078529   0.0187962  46.4472818  69.1438103  89.9115276
  46.1252117  68.2487011  89.8053265  46.5014219  69.4863129  89.0193367
 109.2210484  32.5111437  33.8160300 109.9741554  32.1275592  33.3666730
 109.2653751  33.4436274  33.6045146  11.8232071   5.5671525  19.0219700
  12.2156763   4.8081639  19.4534063  11.7321134   5.3018850  18.1067836
   7.8787190   2.8624263  22.8824973   8.6570394   2.7720377  23.4322977
   7.8598052   3.7894210  22.6446843  65.2945852   6.3001478  31.9903350
  66.2328148   6.2658238  32.1768117  65.1688862   7.1395767  31.5478516
  28.7597251  52.0302057  90.4620647  29.3628764  51.9837523  91.2038708
  28.0568910  52.6073742  90.7606125  17.5762331  55.6272364  84.4946766
  17.5973499  56.5819025  84.4283390  16.8773818  55.3610277  83.8972092
  35.0378442  31.7452121  77.5291729  35.8885360  31.8233347  77.9609776
  35.2125144  31.2181497  76.7494774  62.0518684  99.2559338  59.7581053
  62.3966122  99.2209435  60.6503820  61.1948872  99.6726227  59.8486090
  90.4369640 106.3569546  32.6374602  91.2085438 106.2271976  32.0860362
  89.6973419 106.1437893  32.0684695  22.6471448  38.1789327  33.2129669
  22.3354387  38.7335777  32.4978161  22.0722532  37.4139237  33.1908011
  68.2893848 100.7565117  30.4338837  68.9111042 101.4829636  30.3895688
  67.4674940 101.1612415  30.7112384  17.0380151  50.5320454  73.7277126
  16.7025101  50.0833702  74.5038319  16.2570977  50.8739424  73.2923889
  82.0513916   5.6332439  39.0634274  82.7602100   5.9591824  39.6180248
  81.2906837   5.5974436  39.6433234  63.3824015 102.3804188  25.1056695
  62.8799057 101.5925407  25.3129983  63.8533545 102.5837040  25.9138227
  53.3420563  91.3369560   3.7535819  53.4302950  92.0860195   4.3429399
  53.3263922  91.7220879   2.8774220  20.6001949  82.7173901  81.5810394
  20.5297256  82.1685791  82.3621082  20.8676648  82.1140575  80.8877277
  82.2622013   9.6486139  31.4244318  83.1381607   9.4851071  31.7739892
  81.6695786   9.3574965  32.1174574  21.2990928  35.0222301  83.5968018
  21.5721798  35.9293604  83.4597874  21.6674447  34.7872424  84.4484615
  36.2285948  99.2663479  37.8249264  36.4506698  98.8013935  38.6316085
  36.7690206  98.8512611  37.1527052 109.4507980  19.0540290  35.0504589
 109.0148926  18.2482255  34.7731543 108.8564587  19.7535002  34.7789192
  61.9859123 102.6459599  12.0950758  61.7331266 103.5504436  11.9100499
  62.6186466 102.7155590  12.8099418 104.1854858   3.9049461  60.5046797
 104.8634148   4.4027442  60.9616709 103.3677101   4.1739264  60.9231567
  68.9421511   4.1783851  24.7314215  69.1822624   4.1678864  23.8048863
  69.5646715   3.5816976  25.1469493   9.0359932  53.6068726  92.5814152
   8.4894210  54.3754196  92.7452087   8.4702939  52.8625107  92.7866936
   1.1464641  24.8802018  40.6916237   1.8326981  24.5317769  40.1224852
   0.3814586  24.9617648  40.1221085 106.3917351  20.0348020  47.5158405
 105.4478359  20.0008583  47.3604870 106.6174984  20.9598136  47.4177790
  67.9176283  86.3514614   5.6025374  67.0459938  86.0092258   5.4041433
  67.7588415  87.0728302   6.2113523  74.7331285  10.1338971  14.9342406
  75.1453400   9.5498872  15.5708289  73.8268471  10.2116692  15.2322996
  52.0378685  87.1933270   4.5408979  52.2731686  87.2464943   3.6145949
  52.3869371  87.9984188   4.9232814 114.0480804  15.8256865  62.7837420
 113.1010246  15.7837880  62.9162502 114.2162132  15.2183914  62.0632172
  97.8599548 106.8311501   3.9119324  97.4226093 107.4200344   3.2969740
  98.2012653 107.4085045   4.5948726  27.9609704  24.5230699  55.8864212
  28.6259961  25.0283194  56.3540745  28.4579992  23.9872241  55.2683115
   5.5688387  70.9335625  95.1870005   4.8671061  70.9611190  94.5365863
   5.8810431  71.8368090  95.2409173  78.2598305  80.1443863  16.6870761
  77.5644064  80.6861782  17.0600092  78.1372595  80.2155209  15.7404244
  87.1682358  69.6235037  44.5937347  88.1026363  69.4416475  44.6940517
  86.8375778  69.6797466  45.4902458 112.4725151  22.1486616  19.1231215
 112.7299500  21.7794347  18.2783568 112.5755119  21.4256620  19.7419071
 101.2486267  14.4882166  11.4683127 101.5023899  13.6598933  11.0612273
 100.8258915  14.2325616  12.2881734  61.8753004  88.2421780  27.6303291
  62.2940922  87.4036789  27.8246760  61.2537098  88.0428696  26.9302368
  65.8505630 107.4773121  71.8156338  65.3275394 106.7114353  71.5787458
  65.6670094 108.1153011  71.1260557  77.4813652  96.8495655  19.6435654
  77.5330830  95.9054661  19.7926652  77.4047232  96.9381714  18.6935616
  56.2601471 101.7516136  36.3614392  57.1838331 101.7556381  36.6124845
  55.8348131 102.3193645  37.0040703   6.0564435  70.7058668  60.1539516
   6.3510364  69.9430943  59.6563339   6.7823535  71.3267803  60.0926542
  70.3096676 105.9314919  14.6950328  71.2601709 106.0436249  14.7090530
  70.0258398 106.3915539  13.9050841  94.9538517  23.8353705   2.0652671
  94.0792656  24.0540218   1.7435095  94.8004913  23.1929398   2.7580839
 100.6139946  13.8481498  14.1193855 100.9807014  13.9691365  14.9952388
  99.8481560  14.4220018  14.0990067 100.6493759  30.9116817  30.5785036
  99.9883842  30.3178573  30.9344554 101.2471008  30.3421187  30.0941968
  80.5764294 106.4598083  44.1585541  79.9893141 106.8614864  44.7990179
  80.1081085 105.6801033  43.8602829  10.0651956   5.5639309  13.8725638
   9.7373468   5.9099001  13.0424714   9.2785990   5.2966636  14.3480277
  66.8883467  22.7531886   1.8040936  67.5784492  23.3479667   1.5104499
  67.2537708  21.8784332   1.6718204  48.3037758  81.2092018  17.7981222
  48.1390953  80.4036045  17.3080993  48.9268780  80.9528542  18.4780180
  15.0545490   8.7756193  51.2040710  15.5976510   7.9889363  51.1550665
  15.6560540   9.4647384  51.4860964  74.3346071  63.6842489   1.1560077
  73.4277058  63.8935423   0.9324928  74.4413614  62.7701998   0.8926670
  56.6167974  85.1929760  23.6915064  57.0690298  85.1326180  24.5329785
  57.0351076  84.5265293  23.1464362   4.9357358   2.8845835  38.0112743
   4.8545089   3.7076700  38.4931064   4.8377767   2.2055991  38.6788177
  13.3466399  35.8746028  16.2242317  12.8327537  36.6226053  16.5286040
  12.6952338  35.2035069  16.0204387 113.6753654  19.6337748  26.7872334
 113.9856148  20.5349302  26.6983628 114.4721603  19.1035616  26.7721581
 103.8498497  25.0803423  22.0141673 103.4910774  25.6101036  22.7261114
 103.7918758  24.1797018  22.3331046  16.6234970  36.6267896  36.8786073
  17.2423720  36.2147641  36.2757277  17.1741533  37.0177650  37.5569463
  52.3458719  58.5462141  89.6524048  51.5894508  58.6300325  90.2329540
  53.0016232  58.0880547  90.1780605  25.2757478  50.2145100  34.4977260
  25.3279257  50.2268457  33.5420275  24.9649811  49.3342257  34.7092843
  30.3510070   7.5411117   8.8337374  30.2191901   7.9932553   8.0004174
  31.2130976   7.8325039   9.1305912 107.2765350  99.4340897  43.3572054
 107.4306202 100.2013779  42.8060627 106.8517208  99.7833443  44.1406441
 115.9530544   5.7051939  85.7390118 115.4609871   6.5114695  85.8940029
 116.4028072   5.8551812  84.9074745  35.0286841  25.1460409   3.7821084
  34.7492981  24.2335105   3.7081984  34.6307182  25.4531455   4.5966884
  21.8788726  96.0688721  -0.0358331  21.7967327  96.9491564   0.3310264
  20.9810169  95.7388054  -0.0697743  93.9936225 109.5557895  73.8982105
  93.6329501 110.1156630  74.5857334  93.2254927 109.1863547  73.4626341
  48.2150507 104.7898102  61.6454792  47.3703241 104.6555328  61.2157869
  48.8489342 104.8041821  60.9283924  48.5980225  60.3153276  78.3658504
  48.5558605  61.1019611  78.9095926  48.9635992  60.6180429  77.5346184
  78.6744261  97.0233822  89.6214294  78.9950752  97.0240211  88.7195301
  78.3515596  96.1330318  89.7602081  87.3186302  72.1978235  89.2499256
  87.6681614  71.7678738  88.4694099  88.0764675  72.3029518  89.8251247
  25.4110813  19.9101138  95.0475597  26.1781979  19.3471491  94.9434566
  24.8181367  19.6389675  94.3467522  27.7504158  27.3325181  32.6117563
  27.8520441  26.5718865  33.1838965  28.4398842  27.2323298  31.9553828
  44.6203804  41.1977482  20.0314593  45.1352167  41.9612026  19.7700930
  44.5781517  40.6561279  19.2433619   1.0424621   0.6090916  94.7148895
   1.3434656  -0.1151286  95.2636337   0.1404483   0.3806294  94.4903660
  50.7456255  41.7958593  24.9853253  51.0830307  40.9111071  25.1253557
  51.3612890  42.1921921  24.3687987  33.2642961  42.2351694  22.4076462
  32.3266315  42.4061108  22.3193479  33.3204389  41.5413332  23.0646634
  50.1212597  34.0707731  43.6253357  51.0755873  34.1360164  43.5902596
  49.9164677  33.2822037  43.1228924  21.7456007  23.4240294  22.8986359
  21.9137073  22.8654504  22.1397138  21.7758155  24.3154740  22.5513005
  16.8080318  21.9727445  63.2139063  16.5926313  21.7979455  64.1300297
  17.3700142  22.7470374  63.2435274  76.6419268  98.8866997  83.1521893
  76.5146160  99.7447586  82.7475071  76.6262197  99.0610123  84.0932560
   9.6241599  60.9309053  46.4154243   9.1559070  61.2499523  45.6439447
   9.9342114  60.0607538  46.1645555  37.1393776  59.1923237  21.8437147
  36.2914419  59.5838213  21.6340256  37.3973441  58.7363625  21.0425997
  38.0526137  20.6638384  25.3877139  37.5089574  21.3770342  25.0530148
  37.4989152  19.8863912  25.3154469  32.4235082  20.2975869  21.9560933
  32.6660895  21.0976648  22.4222064  32.6945233  20.4557061  21.0517788
  95.5308437  86.2026215  77.4661636  96.3048077  85.8533478  77.9080057
  95.0422001  86.6501045  78.1569719 114.2145061  38.9384937  10.2741730
 114.2155838  38.1780767   9.6927989 113.3955193  38.8643026  10.7640469
  20.2585697  52.3309422  21.0945296  19.9083376  51.4504719  20.9590840
  20.6853056  52.2899246  21.9503617  42.3777103  46.3806581   2.3700033
  43.0157375  45.6996059   2.5828949  41.7767048  46.3871193   3.1149745
  64.2359018  48.5883665  15.8573925  65.0299549  49.0807152  16.0654736
  63.9115953  48.9870405  15.0498557  21.3063025  82.1006393  39.3228960
  21.9537997  81.9111061  40.0019073  20.4688454  82.1097088  39.7863770
 100.2866650   3.5666806  85.1037216  99.8795414   3.6502346  85.9659863
 100.2547932   4.4503400  84.7371674  68.5437298 101.2059498  87.0804787
  68.2824373 101.1221886  87.9975128  69.0458918 102.0201969  87.0479298
  67.4892664  84.3996048   8.8380277  67.7209902  83.8826370   8.0664778
  66.5624428  84.6065998   8.7181175   1.2435713  17.5850832  78.2708931
   1.7044777  18.0722773  78.9538574   0.6425774  17.0133972  78.7486076
  68.1424189  42.7167940   7.3576164  68.0432940  41.8808937   6.9019049
  67.2990513  43.1543779   7.2414881  51.4518023  33.2972026  20.5625486
  51.0675478  33.4885693  19.7070026  50.7836962  32.7827215  21.0155129
 108.6261082   2.8816935  85.6538105 108.3238411   2.8742123  86.5620041
 108.3726406   3.7438381  85.3241253  43.6608744  27.3292613  24.0012670
  42.7640963  27.5484681  23.7483573  43.8916540  27.9857898  24.6584916
  22.5885272  61.0535955  69.0148592  22.6574755  61.0160589  68.0608845
  22.1903515  61.9056511  69.1928768  39.2102242  36.2902761  13.3378422
  39.6271348  35.6943107  13.9601314  38.5027122  36.6998863  13.8357186
  46.7447424  18.3845544  34.8077321  45.9924269  17.7951419  34.7543478
  47.0004845  18.5296011  33.8968039  62.2460747 101.0748196  86.0773373
  62.2039127 100.3677750  85.4334831  62.6621389 100.6775665  86.8424034
  45.0195932 101.4934444  87.3871899  45.4133034 102.2965431  87.0462036
  44.2104912 101.7834854  87.8084469  44.5662308  41.4816952  31.5079737
  44.8116493  42.3740339  31.7523718  44.7695541  40.9568119  32.2821760
  85.1312542   2.5485989  93.7247658  84.6502972   2.0869042  93.0379200
  84.6606350   2.3362981  94.5308018  82.0317936 106.4456940  75.8140421
  81.4284611 106.0775185  75.1685429  81.4647293 106.8778706  76.4527130
  27.9899049  48.2084322   3.1708890  27.9370761  47.9671288   2.2461116
  27.9996204  49.1655779   3.1684929  55.7623339 108.4261703  72.6887369
  55.9225225 107.5679970  72.2961760  56.6292286 108.8275051  72.7491379
  74.6660042 107.9483318  88.8434887  74.5978022 108.8998604  88.7648773
  73.8064384 107.6236248  88.5752678 112.3940659  60.0311089  20.0254965
 113.1361008  60.6209469  20.1585531 112.2429562  60.0457144  19.0804112
  57.2396564  34.6582699  22.3335648  57.4877501  34.3698478  23.2119107
  57.9786921  35.1902342  22.0384836  17.8864241  44.3575191  30.4986668
  18.3534765  43.6034966  30.1387405  17.8587162  44.9879599  29.7789431
  94.4266987  92.6773357  88.6990547  94.7609615  93.2266140  87.9899788
  95.0856209  91.9905567  88.8009930  83.1509590  51.9594479   6.2495983
  82.7693272  51.9263601   5.3723902  84.0693665  52.1858072   6.1028600
  36.5264320  49.9296808  14.8055589  35.8920479  50.3159761  15.4093516
  36.2022066  50.1632643  13.9357615  49.1173744  44.0762568  14.1659474
  48.5228920  44.7300625  13.7980306  48.6101580  43.6548328  14.8597515
  13.7809098  91.3102531  46.8219471  13.9916718  91.9091892  46.1056471
  13.9313948  91.8237305  47.6156282  65.6082869 108.6276722  74.3918657
  65.8331871 108.1773663  73.5776901  66.4527369 108.8567448  74.7800207
  33.1164932  47.4084902  33.1918550  32.4144602  46.8365908  32.8815174
  32.6988649  47.9655790  33.8487196  45.9168673  18.2827640  38.3584452
  46.1605263  19.1588295  38.0594945  45.0546598  18.3972549  38.7581062
  57.7735138  32.9662418  31.2391067  58.5149050  33.5422444  31.4256501
  57.0018530  33.5083818  31.4029717  79.3941736 108.7159824  64.3494654
  78.8501072 108.6041451  65.1290321  80.1606750 108.1659985  64.5114279
  13.1302786  24.3003392  15.6313503  13.5355604  23.4497881  15.4624081
  12.4129915  24.1081333  16.2353277  60.2674913  64.2741203   4.0751013
  60.5501842  63.4243107   3.7372535  60.9063625  64.4858360   4.7557271
  42.7235126  51.4199591  15.6640339  42.6263142  52.2723818  15.2395773
  41.9817257  51.3664818  16.2666321  56.2220383  47.5928020   8.3631402
  56.5031433  47.3932552   7.4701715  55.3843594  47.1393442   8.4575069
 107.4459267   9.9005592  94.8094940 107.2057438   9.9644750  93.8851261
 106.6692638  10.2029490  95.2802277  34.0491295  58.8883829   8.6810511
  34.5882773  59.5342875   9.1375130  34.3031430  58.0495167   9.0657806
  19.0347910  31.2761998  88.7759399  18.5925806  30.9969354  89.5776176
  19.6761811  30.5868793  88.6036301  46.1638927  36.8139982  88.4543800
  45.8704758  36.8897462  87.5464058  45.8315325  37.6042151  88.8802052
  25.5129170  21.0944009  27.8818989  26.0454655  20.6257129  27.2392845
  24.7920966  20.4958582  28.0778480  58.2311916  74.6818209  81.7861080
  58.1905842  73.7446642  81.5955162  58.7004042  75.0576162  81.0412312
  25.7283044  47.0809507  26.5979719  25.1545024  47.6265478  27.1358418
  26.2385011  46.5743685  27.2298741  31.4967608  47.5968695  22.8250146
  32.0952225  46.8498325  22.8284478  31.8661046  48.2026005  23.4675932
  60.1396275 108.8972759  77.2812653  59.2072058 108.9432526  77.4926996
  60.1748991 108.4090519  76.4586878  15.2759242  23.0286932  26.7623091
  15.3676403  22.1417737  26.4141822  15.1246059  23.5744357  25.9906220
  87.7522469   7.7594435  49.1588116  87.5868893   8.6062956  48.7444019
  88.7063503   7.6967806  49.2032862  91.3817215 107.9099655  85.6482506
  91.4966488 107.3934078  84.8506355  91.4235210 107.2682762  86.3572788
  38.1131148  49.4879341  25.1670837  37.7019191  49.0448189  25.9092379
  38.9168978  49.8626852  25.5272651  81.0862827 105.7026100  94.0667534
  81.6434002 104.9275589  94.1385269  80.7056522 105.8055782  94.9389648
  89.7935772   8.5324538  89.3418312  89.5881081   9.4640332  89.4203949
  90.5421829   8.5017085  88.7461090 105.2291203   6.4521039  85.2180290
 105.0121021   5.7919502  84.5597458 104.6199226   6.2829977  85.9367180
  58.8142109  58.5130835  13.9683688  58.9313459  57.9093838  13.2348430
  59.2944002  59.2998171  13.7101066  14.4473314  57.3830795   6.1238497
  14.0936780  58.0363178   5.5201560  14.1996276  56.5423775   5.7390267
   0.7228523  85.3654861  64.9764156   1.0387554  85.2777004  65.8757067
   0.2234665  86.1820984  64.9766207  57.2026682  73.9140606   0.4710383
  56.9402981  74.5210266  -0.2210489  56.5679646  73.1996441   0.4163625
  23.9715695  48.2395458   8.6730075  23.2224107  47.9641438   8.1446630
  23.8898563  47.7380371   9.4842064  47.2171926  36.1232042  18.8953555
  47.1521330  35.1699352  18.9526117  46.6958523  36.3530874  18.1262076
  55.0271511  63.8564348  29.1131163  54.0810108  63.7559652  29.0084505
  55.3404427  62.9753017  29.3172860  97.9486656  17.6615310  31.8865633
  97.7788353  17.6138365  32.8273678  97.3980427  18.3819950  31.5800047
  20.7447267  43.6355877  15.8984566  19.9983740  43.0847740  15.6622481
  20.7774544  44.3018532  15.2119780  76.2650204  95.8993149  83.2122040
  76.0638809  96.8179798  83.0338192  76.9444799  95.6750584  82.5763893
  50.3667259  54.5078135  31.9931769  49.9118900  55.3499985  31.9840908
  50.3256130  54.2036104  31.0865331  33.5453963  45.4593039  22.7346802
  34.0662837  44.9094296  23.3199573  33.0527425  44.8383713  22.1980524
  26.0195613  27.8176427  39.6944761  25.4678059  28.0090833  38.9360905
  25.9499288  26.8697715  39.8081660   8.8561666  31.6920137  28.0585694
   8.6533326  30.7625270  28.1641269   9.5286620  31.8666840  28.7169552
  66.2169027  48.8544369   8.1046629  66.0201311  47.9496574   7.8619957
  66.3209534  48.8300705   9.0558785  91.4218044  32.8222394   3.1140158
  90.9720230  32.3147202   3.7895539  91.3298893  32.2971821   2.3189713
  62.4894667  35.1582122  32.9701638  61.9954824  35.7137227  33.5731697
  63.4035015  35.4046774  33.1116939  46.6371679  86.8512249  91.8840790
  46.9018602  86.6799259  92.7878666  45.7066298  87.0674515  91.9439220
 115.4401207  41.7168617   2.3246601 114.8831558  41.1808300   2.8891903
 116.1123848  42.0637274   2.9111591  14.5293295  36.2862968  13.7008119
  14.5029128  36.5022683  14.6329546  14.0349710  35.4696965  13.6300516
  95.6210518  92.6523113  91.6468525  95.0736713  92.7497959  90.8676910
  95.0544930  92.9156303  92.3720551  52.0865202  15.7742989   6.2165874
  51.8171883  14.9979973   5.7256234  52.2908211  16.4240730   5.5440646
   6.6287762  81.8393135   7.7635598   6.0128081  82.4988461   8.0826831
   6.0788757  81.0920620   7.5280744  26.3859916   3.7230542  68.4310484
  26.3935924   3.3457142  67.5513983  27.2885442   3.6347198  68.7373686
  19.5654893  43.0671215  10.8960319  20.1369524  43.4719610  10.2435255
  18.7278128  43.5189342  10.7940757 108.6337566  23.2690883  94.7071552
 108.2076168  23.5412097  93.8943863 109.5516872  23.5138011  94.5898724
 112.1852207  31.0854030  27.6770973 112.6402569  30.9167695  28.5021615
 112.5802231  31.8920898  27.3462486  82.7149677 105.8293152  87.8929329
  81.7726994 105.7162285  88.0177784  83.0195427 106.2220097  88.7110138
  14.8113704  10.4961848  94.2216492  14.8801637   9.7568649  93.6175728
  15.1179564  10.1500249  95.0597477  63.2676888  62.6903391  18.4644580
  63.6391449  63.2310820  19.1614902  63.2703829  63.2579899  17.6937449
  37.8698683  68.9949799   4.9746126  38.0074573  68.5944510   5.8330280
  37.2534370  68.4103966   4.5335799  11.9691336  20.8450699  84.2019176
  11.3020241  20.1653433  84.1061687  12.6662791  20.5828381  83.6007023
  49.2049646  77.9106045  12.8679979  48.7987375  77.9768610  13.7321866
  49.1548586  78.7973881  12.5111651  79.0248156  90.4969311   9.8635262
  78.6338902  90.1173782   9.0765405  79.6029139  89.8113918  10.1983011
  89.8708344 100.2014160  82.9083633  90.2608013 100.0505447  82.0473289
  89.0177155  99.7696209  82.8639030  22.5794053  13.6729777  92.9616833
  22.5716281  12.7913499  92.5889874  21.9853640  14.1743708  92.4031639
  23.3756566  45.7131100  25.6121111  24.0822315  45.8823347  26.2352872
  23.0338955  46.5807343  25.3961158  62.9595232  66.6370153  13.2509768
  62.8474236  67.1292877  12.4377513  62.9344893  67.3020887  13.9389324
  87.0021248  45.9719324  27.4392962  86.7840004  46.8141603  27.0401573
  86.1719418  45.4960585  27.4632144  26.1946368  38.9767575  16.2435567
  25.5536032  39.6837020  16.1691678  26.0383272  38.6019325  17.1103358
  51.1640024  43.0159426  21.2446690  52.0974255  42.9995298  21.4560628
  51.1329699  43.2400751  20.3145981  72.9700851  67.5829554  27.0010376
  72.9162312  68.4876871  27.3089242  72.9234123  67.6513004  26.0474229
  69.2532873  58.3944654  13.8465464  69.9379063  58.4695244  14.5112991
  69.0259409  59.2995644  13.6336052  27.7415252  68.8866901  21.6063714
  26.9329500  69.2922974  21.2934542  28.4347177  69.4797659  21.3165879
  33.1974363  53.7224340   1.1150924  33.1082106  52.8290844   1.4470506
  33.8668919  54.1192818   1.6723827  25.5055952  10.3130996  83.8878632
  25.3549552  10.1181722  84.8128223  25.2393460   9.5165002  83.4287643
  89.0333843  36.3085818  10.4893708  89.0742207  36.3027000  11.4456820
  89.4045925  35.4657054  10.2286053  99.9128056  54.3088484   7.3431122
  99.3567753  54.1625738   8.1084025  99.3628597  54.0673399   6.5978134
  66.2093925  81.7013454  67.4142885  66.0744762  81.6798115  68.3616877
  67.1589470  81.7602253  67.3088598  28.5454273  14.7656369  85.3501606
  29.3804550  14.3055570  85.2647972  27.9280710  14.2373312  84.8441982
  79.7502184  65.6478691  48.3450699  80.1719761  66.4686346  48.0907202
  79.7413254  65.6696510  49.3019772  58.4534693  51.5754795  10.2794003
  57.6620579  51.7697620  10.7815504  58.4770775  50.6198549  10.2297831
  58.3181095  50.8667183   6.5809071  57.4558973  50.7542038   6.9811052
  58.5745573  51.7596149   6.8115759  64.6702385  97.0994568   2.5261328
  64.9923754  97.5562859   3.3031577  65.4436493  96.9948387   1.9719499
   9.7925311   6.6642410  71.9935751   9.6321613   7.1242499  72.8175354
   8.9220214   6.5393651  71.6156197 115.2515984  30.2851939  88.3778286
 115.0444794  29.4631672  87.9333019 116.1929703  30.2368665  88.5443211
  28.2766581  80.5159092  24.5414543  27.6546669  79.9718857  25.0245643
  27.9672337  80.4871178  23.6361051  26.9815874   1.1457497  78.5287142
  26.3375092   0.5255470  78.1870413  26.6107202   2.0068350  78.3357859
  54.0881729  25.2846909  17.1209610  54.8719978  25.0742555  16.6134477
  53.3628798  25.1354623  16.5144014  40.2560043  87.3655891   7.3461705
  40.3797150  86.6157627   7.9281330  40.2862787  86.9925690   6.4651662
  52.0510054  66.0254192   6.6828591  52.1076536  66.8104506   7.2276020
  52.7837181  66.1043739   6.0720164  86.5435505 100.8805466  82.8846550
  86.9455147 100.7026958  82.0343399  85.9016895 101.5680790  82.7070522
  65.2850437  33.5878944   1.6094375  64.6548700  34.2657161   1.3651522
  65.8670521  34.0168357   2.2367404 112.2605038  24.1927576  92.9070568
 111.9685078  24.3439269  93.8060093 111.6256809  23.5715055  92.5502968
  71.9873282   0.8748425  30.6417370  71.4244744   0.6182183  31.3721943
  71.3827798   1.2112034  29.9802089   7.4345040  29.5877194  80.7535267
   7.4043083  28.7391472  80.3116608   7.8981560  30.1598191  80.1420021
  64.3025875  20.0170398  48.7854719  65.0950623  19.8665118  48.2701540
  63.6671448  20.3550196  48.1544256  80.2751446  85.4257679  76.1781979
  80.9424210  85.2632141  76.8449450  79.9933243  86.3268089  76.3360596
  39.2974281  77.9272842  19.1968739  40.1646996  77.5679207  19.0099835
  38.7454057  77.1585321  19.3401253  83.5208321  60.1463175  15.5819595
  82.8074837  60.1078415  16.2190509  83.4078979  60.9913063  15.1466799
  38.8286829   2.5718039  21.6140962  39.2978597   3.2243639  21.0942197
  39.4420648   1.8410365  21.6913772 100.6565475 103.2974625  94.3384552
 101.0980511 104.0554333  93.9553356  99.7238731 103.4952641  94.2533779
  48.4856987  44.6644211  18.5764050  48.7824583  43.7575293  18.5008419
  48.9427519  45.1253939  17.8729558  41.9217443  64.3768835   7.9352367
  42.4607658  63.5881329   7.9949087  41.0215092  64.0566635   7.9924524
  51.7789364  40.1623392  15.7880247  51.8460226  39.3494678  16.2889910
  52.3334503  40.0176382  15.0213373  51.6900158  28.7112308  12.9964590
  52.0609713  27.8290105  13.0141747  51.4492130  28.8514566  12.0807171
  64.5961142 103.3747959  92.9358864  65.3088188 103.6157513  92.3440838
  63.8861609 103.0991459  92.3560429  26.7427301  43.1033230  24.6038485
  26.4592218  42.9211664  25.4997706  27.2852612  42.3512173  24.3667197
  13.0682814  41.4948082   2.9253930  12.9109633  40.7199812   2.3858382
  13.6711144  42.0286703   2.4078806  63.2650089  51.1906195   6.5322363
  64.2213011  51.1632872   6.5636331  62.9868603  50.4258156   7.0361590
  65.9449673  72.1641397  16.5154397  66.8316364  72.0759010  16.1657739
  65.9436798  73.0154753  16.9529986  79.9533939  55.2723217  42.1357584
  79.5683241  54.8255968  41.3818407  79.9496555  56.1982489  41.8931150
  70.6957006  56.2320518  40.2338743  70.2730036  56.9708633  40.6717300
  71.1338186  55.7547998  40.9385157  53.9566135  36.5858436  44.8829174
  53.7164402  36.3983750  45.7903337  54.8850918  36.8150353  44.9233627
   8.9554763  31.0567307  79.0100384   9.3374944  30.3635526  78.4717083
   9.3430614  31.8638802  78.6716318 108.2450581  15.0430214  76.4449644
 107.8318882  14.6575177  77.2175646 108.9501476  15.5866075  76.7965221
  58.7413359  24.9132252  35.8100605  58.5204172  24.1729450  35.2448916
  59.6278524  24.7237587  36.1173511  27.0788407  58.8267851   1.2297636
  26.6115451  58.0629826   1.5680954  27.7535009  59.0044785   1.8851195
  17.7363324  38.6627913  28.7264872  16.9835973  38.7776256  28.1464577
  18.0166113  37.7594781  28.5791707  58.3056736  93.7832832  88.7997437
  58.6539793  93.5994530  89.6721649  58.3980942  94.7307396  88.6997032
  86.9300461  88.3881378  82.8392792  86.6824055  89.1335678  83.3862972
  87.8850842  88.4322071  82.7924633   0.0520080   4.4359085  76.1354542
   0.8194005   4.2065021  75.6113195  -0.2701818   3.5980883  76.4678431
  61.7453337  79.1484976  21.6364455  61.4522123  78.9726925  20.7423496
  61.1714315  79.8505735  21.9429612 104.0304470  69.1095400  84.9849701
 103.2158661  68.6755657  85.2386475 104.3801022  68.5679293  84.2774200
  82.5341129  82.6826668  85.6028652  82.9732323  81.9362354  86.0105896
  81.6194534  82.4106598  85.5276871   5.4411483  40.1698828  86.2407589
   4.5852304  40.0487900  86.6518211   6.0196304  39.5691776  86.7105961
  27.1883750  42.8836441   1.8127218  26.6779828  43.2365179   1.0838775
  26.5994143  42.9367256   2.5654098  79.9577926 109.2605982  73.1358624
  80.2342729 109.3966388  74.0421104  80.0206568 110.1269190  72.7336597
  39.6968341  56.8020630   6.3937271  38.9398503  57.2793293   6.7334676
  39.9855471  56.2580252   7.1264625  37.7323103  35.0857854  34.6129751
  37.4592829  35.1276493  35.5294561  36.9564080  34.7759843  34.1458249
  18.0076969  27.5598431   3.8278753  18.6893249  27.0530581   4.2692208
  18.1745577  27.4243426   2.8951219  79.2592335   5.1883566  85.1870918
  79.8893738   4.7355601  84.6266174  79.0401459   5.9859955  84.7054291
  77.0933008  93.5051823  91.5327454  78.0327034  93.6834335  91.5772533
  76.7145681  94.0409470  92.2297001  17.7441525  51.2463570  33.3174706
  18.5917568  51.1394930  32.8857565  17.9448986  51.2064457  34.2525315
  46.6079760  33.4857798  43.7826061  45.7378769  33.4188080  44.1758919
  46.7794037  34.4265008  43.7391329  10.5513370  18.5357416  83.2677460
   9.7729325  17.9888892  83.3739090  11.2652993  17.9125619  83.1330776
  49.7061396  67.7147913   5.8137435  48.9467859  67.7057791   6.3964391
  50.2987528  67.0597315   6.1824363  48.6340666  68.5257339  19.7672331
  49.0295076  69.3322945  19.4366002  49.2624283  67.8403091  19.5401013
  31.4089561  68.1838751   9.3849117  30.8274341  68.6812592   8.8098717
  31.8028522  68.8435221   9.9558270  72.0252657  89.5648575  82.3332119
  71.4474392  89.7696209  83.0683422  72.6569366  88.9412975  82.6915359
  10.4053283   9.7659618  91.1414433  10.6974864   8.9452773  91.5381241
  10.9430385  10.4386771  91.5592384  17.2728956   4.7365192  74.8732471
  16.6900933   4.8553810  74.1232824  18.1336010   5.0062418  74.5528316
 114.9819419   1.1015595  90.8345699 114.6547601   1.1006821  91.7341137
 115.3332326   0.2203930  90.7066154  25.2330685  69.7920799  24.4229174
  24.2776752  69.7737455  24.3670535  25.4344153  70.6473589  24.8026371
  35.2609253  37.7826667  45.6752062  35.7571030  38.4392214  45.1863527
  34.3786597  38.1482840  45.7397413  59.6960402  62.5467253   8.6045426
  60.1770592  61.7253447   8.5036135  59.0351772  62.5238609   7.9124677
  61.1547375  31.6713142  14.5498943  61.6549301  31.4809179  15.3434849
  60.4970264  32.3085475  14.8284352  42.8452826   1.5416704  25.8802462
  42.9809189   1.7895561  26.7947888  43.3910465   0.7646726  25.7592225
  44.8557138  53.2561541  22.2043157  45.5777264  53.5942554  22.7340508
  45.1714039  52.4129343  21.8794394  37.0628548  68.8482618   1.0282043
  37.9957318  68.6727762   1.1513925  36.6374016  68.4105873   1.7655386
  77.0841742  96.9154167  86.3160419  78.0103827  96.8191910  86.5376568
  76.6303635  96.3331795  86.9253635  47.7138281  46.5406275  10.3716958
  48.5283184  46.6640615   9.8842514  47.0333719  46.8820429   9.7914875
  62.5690794  98.7661648  84.8595047  62.6868153  97.9930496  85.4114628
  63.1585741  98.6237526  84.1189289  44.3769217  49.3463755  28.1979275
  45.2077818  49.6367979  27.8216958  44.0477610  48.6955547  27.5779915
  87.0394039  21.6692352   7.2471511  87.5475693  22.0582914   7.9589355
  86.1476421  21.9873476   7.3878372  32.5858426  79.8242712   2.6576599
  33.4990311  79.5672560   2.7851734  32.0977974  79.2953348   3.2887477
  73.8047886  45.4365778  29.2993736  74.5505333  45.2190924  29.8586535
  74.1295958  45.3114700  28.4077024  15.5116284   3.9224944  79.4111538
  15.3791952   4.5915812  80.0827312  14.6479225   3.8062674  79.0152550
  41.3156700  82.5581455  18.4345329  40.5156898  82.1018982  18.1735718
  42.0170212  81.9303989  18.2605505  41.9978285  69.9615192  13.7596560
  42.5803566  70.2829313  14.4478333  41.9157934  69.0238905  13.9338744
  95.1449776  81.0090542  83.7818527  94.5228004  81.6742420  84.0762138
  95.9875774  81.2971306  84.1329479  63.3636379  33.7351704  18.3633983
  62.4983931  33.3859611  18.1497693  63.9042282  33.5166287  17.6042986
  38.3365583  62.2215605   2.7397054  37.6461077  62.0563173   3.3817375
  37.9137778  62.0827389   1.8922275  36.4902925  47.2894430   0.8730054
  35.8845210  47.8671026   1.3373071  37.0923972  47.8838062   0.4253111
  27.3469853  27.1747661  20.3129911  26.3997650  27.2688460  20.2122164
  27.6835823  28.0692148  20.2591968  64.8273182  79.8060274  79.5373106
  64.4394350  79.0741110  80.0169754  64.3499756  80.5755329  79.8475313
  46.0993671  71.8779707  10.3074598  45.4285717  72.0444202   9.6452212
  45.6522560  71.3591146  10.9761238 109.2024136  34.9041700  53.6754513
 109.6552467  35.7060838  53.9364386 109.9024963  34.3131828  53.3982229
   7.4859671  37.2262597   0.6355060   6.9343524  36.6824841   1.1978687
   6.8675046  37.7007603   0.0799907  31.4265347  23.2110667  88.5818195
  30.6573772  23.7739110  88.6703300  32.0754981  23.7598324  88.1414413
  37.8757501  57.9156590   8.8502449  37.0401454  57.4522781   8.9074755
  38.4595394  57.4296093   9.4326353  78.1844997  71.3144970  28.3250117
  78.5506916  71.1763239  27.4514890  78.9186335  71.6445637  28.8430190
 101.8501759  22.9219842  93.5230732 101.3857365  23.7378883  93.3364582
 101.7548180  22.4039173  92.7238560  64.1179752  45.1256466  11.0329115
  65.0272036  44.8312616  10.9792686  63.9929676  45.6611013  10.2493978
  86.7782784  93.3681774  80.7048035  86.1548042  93.9268494  80.2406979
  87.5675011  93.3889580  80.1635742  97.7001095  31.1165929  71.1756420
  98.1151867  31.4287758  70.3715992  96.8679905  30.7425594  70.8859825
  23.6807513  30.2785921  82.1781254  23.8199973  29.3401265  82.3051167
  23.3592153  30.5896878  83.0243301   3.2405797   4.6932700  84.8621273
   2.5782678   5.2464443  84.4479084   3.3517799   5.0666559  85.7364559
  79.2108345  97.7391911  82.1991920  79.7011709  98.5445499  82.3640919
  78.2923126  97.9998779  82.2669601  25.7063842  11.3779724  87.2177601
  25.1489472  12.1560788  87.2108459  25.1177549  10.6638134  87.4621487
  29.0349936  49.2649221  22.0085430  29.1600823  48.3234406  22.1276832
  29.9127507  49.6024799  21.8301296  27.0389104  55.5475235   9.2348957
  27.2092390  55.0118494  10.0096679  26.7702603  54.9198103   8.5640490
  27.5759888  62.1134186  11.9951677  27.7593970  62.0445204  11.0582340
  27.0519090  62.9100370  12.0786881  74.4477177  56.8681288  15.5542564
  75.2165127  56.7454720  14.9973500  74.7135830  57.5365639  16.1857176
   1.0734425  24.1619825  64.7725868   1.0755120  24.3788624  65.7048893
   0.5634270  23.3539701  64.7157764  91.7651939  68.5333586   2.6626301
  91.3198662  67.6865959   2.6325971  92.5300503  68.3821583   3.2179430
  42.1550560  66.3211966  75.2849483  42.0198154  67.0743036  74.7098207
  42.9546404  66.5294170  75.7682085  64.8539066   4.5312297   7.4360400
  64.7670555   4.1158038   6.5780717  63.9611053   4.7837144   7.6713794
  59.1658783  54.4717646  18.2644737  58.5321665  54.1880083  17.6055920
  59.8363733  54.9391508  17.7662611  87.4566460  92.3701191  86.5096283
  86.5506363  92.1450520  86.7210674  87.9327011  92.2433853  87.3303318
  91.7352200  85.5233860  94.0242672  91.3443184  86.3750267  93.8290119
  92.2351742  85.3034401  93.2382011  96.7507648 106.0751724  80.0584602
  96.7728996 106.9985485  80.3097057  97.4268436 105.9937096  79.3857718
  39.8358369  68.4328413   1.3459958  40.2402925  67.5653744   1.3336529
  40.5299377  69.0248775   1.0562555  72.6999664  85.0001335  93.6170292
  73.2243729  85.7994270  93.5683250  73.1188583  84.4008255  92.9993057
  68.3118105  51.2934113  23.0224609  68.5813618  51.9057035  23.7070560
  68.4728813  51.7630672  22.2041011 101.6604519  33.0389476  91.6720104
 102.5866413  33.1109309  91.4413166 101.4404869  32.1239185  91.4971638
   1.3816878  16.9408464  87.1662140   0.4544439  16.9124126  87.4020958
   1.6211823  17.8640723  87.2470188  14.1253495  34.8540330  78.8046026
  14.9181712  35.1701617  78.3713293  13.4302855  35.4261351  78.4793091
  91.4746761   7.6549071  78.3590889  91.4098644   8.1028879  77.5156784
  91.1591530   8.2962221  78.9957952 113.8692665   8.4683770  77.0937014
 114.4940281   7.7473390  77.1712208 114.2980671   9.2047560  77.5297165
  63.2858658  98.6259842  53.3390808  63.2885504  99.1172314  52.5175571
  62.5018024  98.9291477  53.7968683  49.4974661  76.3657951   9.6976846
  48.6149168  76.7346430   9.7335154  49.4698811  75.6199980  10.2970624
 103.8396358   9.1102356  72.8029823 103.7494564  10.0223470  72.5270271
 103.0523300   8.9372057  73.3191586  15.5371535  58.9732313  51.3113976
  16.2209690  59.5039034  51.7200661  14.8798442  58.8595533  51.9978762
  58.8543463  36.0230112  26.6462660  58.8101721  35.4803801  25.8589721
  57.9673052  35.9971929  27.0050383  62.6931810  60.1081228  20.0338483
  63.3099222  60.4338741  19.3782997  62.5320578  60.8590508  20.6051397
  17.7570033  29.9308181  79.8266888  18.2262731  29.1275334  79.6014071
  16.8510854  29.7590709  79.5696926  64.3421698  74.0567589   2.5723591
  63.8847685  73.2331753   2.4028775  64.3158436  74.5218277   1.7361477
  40.4387236  48.5281229  13.6356401  39.7144246  48.7409973  13.0471623
  40.6723547  47.6272678  13.4117949  40.4643250  47.5266171  40.1218510
  40.0258446  47.2315359  39.3237948  39.8093772  48.0604982  40.5715752
  44.8760223  35.0275803  21.1129546  45.7969046  34.8659492  20.9078217
  44.7291470  34.5633006  21.9370341  69.9080467  84.1158962  92.9606628
  70.7213068  84.4291592  93.3565235  70.0122929  84.2944431  92.0260620
  96.6913033 107.3853302   8.4977728  97.4930191 107.2823620   9.0104836
  95.9962177 107.0665646   9.0735090  41.3195801  59.7875309  20.4324889
  41.3010502  60.5668163  19.8769641  42.1771002  59.3957424  20.2669835
 102.1198654   1.6835906  83.9940643 102.6880646   2.1983188  83.4209633
 101.3497448   2.2362867  84.1269684  74.9536562  72.2342587  39.9652410
  75.6395531  72.8182173  40.2889156  74.3615675  72.8071833  39.4779825
  49.5007086  64.5122337   3.5398456  49.8471737  64.3910265   2.6558188
  49.1150284  65.3882122   3.5279226  98.1762028  57.9571724   9.1402137
  97.2991371  57.5829649   9.0568292  98.1038475  58.8269806   8.7472403
  36.5644860  60.2853298  35.5412221  36.3136768  60.4181623  36.4553785
  35.8313680  59.8026180  35.1594329  29.8782802  55.2700710  18.0848038
  29.4657564  54.4226599  18.2519913  30.0728202  55.6176281  18.9551985
  55.0490332  62.7191496   2.5221476  55.2883530  63.4645796   1.9714276
  54.1231489  62.8567123   2.7222824  19.2230988   7.7133226  78.8399315
  19.9802625   8.2894719  78.9447498  19.5969307   6.8714994  78.5795164
  14.7837579  13.1824267  94.0488815  14.7922492  12.2564113  94.2910671
  15.6796587  13.3639479  93.7649059  58.9932060  45.2962303  27.2064328
  59.3715906  44.9618101  28.0195880  59.3821287  44.7537088  26.5203977
   9.3294865  41.7665720  91.6607666   8.8300186  42.4139166  92.1584702
   9.9693847  42.2829151  91.1707115  60.8768654  60.3494596  23.9861465
  61.3608646  60.8358860  23.3187890  60.1518011  60.9270048  24.2248011
  33.7043810  41.3798857  26.8839240  33.6830926  41.3841486  27.8408766
  33.5578656  40.4645920  26.6451669  38.6524653  44.8666239  42.8365135
  39.4476008  44.7740173  42.3117161  38.9326215  44.6753788  43.7315941
  79.6808577  93.1248379  85.4870033  79.4860172  92.3971748  84.8964405
  79.7984409  93.8781357  84.9082470  24.2950177  95.2018070   0.9949903
  23.4553504  95.4883385   0.6357025  24.2737579  94.2476368   0.9218182
  50.7718754  57.3946762   9.3076205  51.6758776  57.6933670   9.4066113
  50.3607368  58.0559587   8.7509274  17.7138591  55.4883146  37.6243782
  17.8734124  56.1454201  38.3018637  16.7989910  55.6187582  37.3749161
  63.1414175  94.7742271  92.1207428  63.8328505  94.2338848  91.7384052
  63.4740686  95.6694794  92.0567322  93.3317661 107.4830055  22.9626060
  93.8139725 106.6762638  22.7812886  93.3799267 107.9795742  22.1457028
  41.5525055  55.9131813   2.4232723  41.5154028  55.0140333   2.0970961
  40.8158541  55.9780788   3.0310282  56.5696287  76.2349129  14.8542857
  56.7150974  76.9446468  15.4798627  55.6818628  75.9294415  15.0408030
  85.1389027  17.0418823  79.3916368  84.7171974  17.0704675  78.5328150
  85.7398701  17.7869070  79.3882895  62.1836662  34.0772128  13.2466209
  61.4878798  33.7547851  13.8194644  61.9155216  33.8067198  12.3684609
  56.0211706  24.2632294  14.8487794  56.3402462  24.8085809  14.1297424
  55.2604198  23.8095403  14.4859374  35.5644011  27.1470547   6.5496224
  35.8040190  27.4438596   7.4275303  36.2525773  26.5261769   6.3105518
  52.0703506  44.8764277  35.6252599  51.3165855  45.0949907  35.0772643
  52.7279902  45.5350447  35.4017210  53.4377480   8.0463654  86.3728619
  53.6327744   7.6853985  85.5080509  53.5966444   8.9858675  86.2816525
  46.6633272  37.0747495   5.3870296  46.1265278  37.6814270   4.8771116
  47.1803761  36.6045809   4.7329393 109.2277622   8.8725221  87.4594212
 109.5874214   9.7582269  87.5085163 109.9900246   8.2995486  87.5424671
  50.5682087   3.4137717  66.5551138  50.2889633   3.1991059  65.6650734
  49.7590208   3.4143627  67.0664310  72.1344566  60.0773191  11.5251267
  72.0328140  59.5101690  12.2894835  72.7856016  59.6330404  10.9821212
  94.4116497 105.9889793  69.8830605  93.9781761 105.2754879  70.3513193
  95.3287315 105.7195759  69.8319340  39.8892164  33.6360312  27.4541068
  40.2487707  33.9040351  28.2997584  40.6408596  33.2896399  26.9731927
  35.7297230  51.5880632  19.4501233  36.4684272  52.0755577  19.8146701
  35.0405741  51.6689825  20.1094842 116.5452023  23.8572931  87.6548862
 116.0222257  24.6420121  87.8190327 116.0608825  23.1524301  88.0848122
  22.1508837   2.7593017  83.6462879  21.6125989   3.5108465  83.8946056
  21.8994117   2.5730202  82.7416897  46.6494513 108.4366226  24.6732116
  46.9506407 109.1769218  25.1999760  45.7174253 108.3606720  24.8776412
  30.1783848  37.9327989   9.1630983  29.7662902  38.7021518   8.7700295
  31.0573816  38.2274008   9.4014400  96.0752010  93.5876560  74.4301605
  95.3060150  93.8852596  73.9443541  96.7651463  93.5226536  73.7698698
  40.3308725   3.1349409  80.3843975  41.1187458   2.7569330  80.7750320
  40.6593561   3.7928075  79.7715807  42.8978539 103.0028725  21.7489147
  42.1340322 102.4624157  21.5471411  43.1640530 102.7237892  22.6249766
  39.5615315  87.2970486  61.5888119  39.3327379  87.4010563  62.5124311
  38.9967108  87.9193401  61.1306000 102.4380398  27.4194932  93.5443020
 102.8215504  28.1470895  94.0339565 103.0904865  27.2103333  92.8758812
  42.6375914  74.5390224   0.9955411  42.1863317  74.6995783   0.1667978
  42.2783518  75.1934910   1.5945828  77.5451660  94.2839718  33.8792825
  77.7423286  95.1240635  34.2935491  76.5902901  94.2669582  33.8148308
  65.1587296  79.1851234  28.7453842  65.0091791  78.4554386  28.1441927
  65.9701920  79.5877838  28.4361529  49.4548321  87.7596569  10.3055596
  49.5383835  87.3132706   9.4629490  50.2980423  87.6184940  10.7360291
  67.5121927  56.1653090  33.8037682  67.5100660  55.4685545  33.1474495
  67.1978569  56.9378090  33.3340073  62.0357704  79.7135305  13.5165346
  62.8334045  80.1893997  13.2851100  62.3128223  78.7997198  13.5830510
  50.4484463   8.6033565  86.0823250  50.3837109   9.5410824  85.9014606
  51.3373947   8.4847689  86.4168930  60.9186697  61.8825960   2.7149153
  60.4755974  62.3304653   1.9942701  60.3724051  61.1170483   2.8931308
  67.4926805  22.9931283  46.9829607  67.9904175  23.7063289  46.5831709
  66.6845274  23.4061766  47.2871161  57.5076103  63.8698006   4.5697382
  58.3725595  64.0092897   4.1842023  56.9033289  63.9277363   3.8296551
   1.7146893  21.1375880  89.3359280   0.9091650  21.1448932  88.8189030
   1.6740534  21.9414282  89.8540211  47.5152111  68.1658268   7.6880300
  46.5684605  68.2836390   7.7655846  47.7928162  67.8781557   8.5577512
  19.6336067  68.0181026  17.8576016  20.3796339  67.4354601  17.9997540
  19.9597561  68.8866568  18.0931187  63.1273937  55.5412531  17.9231453
  63.8602114  54.9380255  18.0469477  62.4975443  55.2951860  18.6006200
  15.3278971  48.0250168  78.5762358  15.5075872  47.8450108  79.4990253
  15.9719193  47.5008106  78.1001329  87.1906471  81.8564224  24.2198682
  86.7262077  82.3028183  23.5118771  88.0634308  82.2494602  24.2189527
  10.9281623  15.9009743  71.7878628  10.5038273  16.7572832  71.8417597
  11.1809814  15.7017863  72.6893282  92.9280758  19.4989288   8.0965906
  93.6330509  20.1167107   7.9027188  93.1380367  18.7244618   7.5747186
  32.5120456  87.3173700   1.3295329  32.1159370  86.5249215   0.9671081
  31.9912822  88.0333792   0.9656966  46.2051582  53.1407690   2.7627170
  45.3561783  53.5818958   2.7331939  46.8333673  53.8417292   2.9366067
  60.3265095  29.0800929  22.1052527  60.7400274  29.0197659  21.2440920
  59.4634199  29.4554019  21.9307399  76.3886213  91.4211464  14.3775272
  77.1721554  91.7816734  13.9624095  76.0574484  90.7804108  13.7482345
  48.7240982  87.5839710  23.3892512  48.5976553  86.7155075  23.0071211
  48.0186939  88.1139660  23.0181146  18.2010305   8.2158124  75.8914948
  18.9121270   8.3023417  76.5263844  18.3182001   7.3422176  75.5182171
  11.7703843  12.8775167  91.3634396  11.6833997  12.6624501  92.2920990
  12.5884831  13.3713019  91.3075542  63.8736534  89.9293709   7.9904729
  63.5517025  89.2619705   7.3845428  63.0818081  90.3448391   8.3319390
  51.9072914  82.9233551   4.7686815  52.4338341  82.2856617   5.2506918
  51.0482454  82.5096798   4.6841788  51.1498356  67.3735285  10.2446938
  51.4068985  66.4846563   9.9996305  51.7989445  67.6396322  10.8959043
  77.8085041 108.1581688  23.0006385  78.1508732 108.5908890  23.7827921
  76.8844700 108.0041027  23.1972361  42.2221804  58.8445234   0.8608000
  42.4976063  58.0323076   0.4357393  41.3149452  58.6834669   1.1200534
 115.3388691  45.5363083  79.4047689 114.6640968  44.8981857  79.6365261
 115.9935188  45.0290251  78.9248514  98.5305977  63.8721371  69.8512411
  97.6194859  64.1320515  69.9874163  99.0121460  64.6984720  69.8123217
  27.0225716  38.1456184  92.9994106  26.3906717  38.3159542  92.3009014
  27.0998645  37.1918893  93.0251312  58.2255602  76.2915945  21.5117073
  59.1627884  76.1333704  21.3985586  58.1378222  77.2442007  21.4790130
  56.7429304  86.2746143   1.6489168  56.7705011  85.3180218   1.6288780
  56.4343023  86.4869308   2.5297689  53.9893579  79.8017073   2.3720804
  53.1352139  79.7718763   2.8031030  54.3248463  78.9080477   2.4431643
  93.5641766  16.1389542  75.5927229  94.2729282  15.7949722  75.0490475
  92.9198360  16.4682186  74.9661112  73.8668156 108.1740952  83.7427711
  73.3531380 108.2790947  84.5436096  73.4589243 107.4348640  83.2917881
 115.1008415   8.7999082  92.7917290 114.7782803   9.1034585  93.6402893
 115.5372715   7.9700422  92.9843140  73.8085318  60.6627464  25.8174539
  74.2339659  61.5137053  25.7120538  73.2235861  60.5923367  25.0630593
  62.6779556  58.7869883   6.7348385  63.5925770  58.5839415   6.9309652
  62.7213287  59.5295668   6.1324006  77.2602224   4.5576409  88.5088444
  77.4144459   5.4988939  88.4282780  76.9478321   4.2912424  87.6441669
  13.2914913  37.2477341  82.3442078  13.3430350  37.7415681  81.5258503
  12.7563465  37.7937579  82.9201508   0.3301914  37.1979046  75.8438635
   0.3065090  36.4127898  75.2968073   1.1635984  37.1392727  76.3110113
  50.1034117  88.5503578  26.0901642  49.8289680  88.3013248  25.2076125
  50.9704542  88.9379787  25.9709382 114.9490452  41.4601469  86.1306572
 115.2905464  41.6151810  85.2499962 114.2884350  40.7772446  86.0146046
  59.0326405   3.8693947  92.1975899  59.2747927   4.6211675  92.7383614
  58.2040405   4.1235682  91.7913246  50.0519037  54.1202068  29.4378519
  49.1946459  54.3809891  29.1012049  50.6409359  54.8229933  29.1633272
   6.5406054  25.1716161  58.3213949   7.4114704  25.5504203  58.4411144
   5.9658581  25.7184577  58.8569927  31.1181784  92.9779720   6.6620833
  30.1660109  93.0324078   6.5805513  31.4325476  93.8353062   6.3750547
 108.7489033  30.9826422  54.7830391 109.5678520  31.2856889  54.3909693
 108.9929295  30.1944923  55.2683210  22.7844381   9.5488232  81.3572121
  23.0277324  10.3956175  81.7313480  22.2585535   9.7689068  80.5882931
   9.2161393  83.0834770  36.4513922   8.5685062  83.0812168  35.7465529
   8.7176949  82.8529549  37.2353864 106.3080120  19.9619591  69.3660355
 106.1883831  20.2214575  68.4524822 107.1275330  19.4673836  69.3691826
  19.4770920  21.1544085  87.6515102  19.3334055  21.7700005  86.9327354
  18.5976207  20.9398246  87.9625034  60.7971382 108.5480022  28.9588261
  61.7144966 108.4800243  29.2235136  60.4259729 107.6885414  29.1583300
  26.0593367  58.8914394  89.4580364  25.2006221  59.2941046  89.3287849
  26.0711813  58.1521893  88.8500977  41.3770008  45.1270676  70.7870436
  40.6078482  44.7974730  71.2517977  41.9968414  44.3978214  70.8023930
 100.8765125  88.7077904  90.0887966 100.2161789  88.1887245  90.5479050
 101.7062855  88.4477615  90.4889011  53.2736444  61.0796070   8.2612455
  53.8451385  60.6882954   8.9219278  53.7860537  61.8024826   7.8991473
 100.7803576 108.7126857  74.6182394 101.4471571 109.0036621  73.9961910
 100.5691545 109.4957042  75.1266766  69.7227478  75.0935459  22.5712204
  70.0999737  75.4807806  23.3611465  70.4238081  74.5489931  22.2131515
 100.8607769  21.1200690  87.4337387 101.0064888  21.2123442  86.4922047
 100.5226326  21.9723773  87.7084351  33.5636854  80.0552177   0.1152703
  33.1702471  80.0433445   0.9877940  33.1131673  80.7659435  -0.3409573
   6.8052399  26.0185242  84.8816681   7.1822137  26.0449839  84.0022182
   6.1422843  26.7089701  84.8789501  16.7412412  36.2836218  75.3794336
  16.8730962  36.7248964  76.2185526  16.4259541  35.4109836  75.6146622
 112.2405052  33.7646031  51.9501495 112.1380424  34.1057229  51.0616827
 113.1001759  33.3436465  51.9474220  16.7372239  41.8936014  92.4064922
  17.3661602  42.1077681  93.0955505  15.9306979  42.3350334  92.6727295
  30.0860453  20.3121257  75.1409435  30.2642584  21.2519765  75.1748800
  30.3569698  20.0485754  74.2615271  58.4754229  68.2066059  -0.0729888
  58.6635494  69.1448832  -0.0948456  59.0604210  67.8606701   0.6010560
   6.5584028   7.2872090  87.4058628   7.1270519   8.0559611  87.3623943
   7.0100254   6.6885507  88.0007362  82.9810903   0.2867592  29.4559669
  83.7125394   0.8143986  29.7766042  82.2402713   0.5463685  30.0037122
  36.0011840  28.9817643  91.7333508  35.9089899  29.9257874  91.8620014
  36.9359159  28.8138843  91.8530369  48.6044359  80.5870438   8.8960767
  48.6170483  81.5030003   8.6184019  49.1498280  80.1342392   8.2528454
  43.3266211  71.4988279  15.8265626  42.6871872  71.6790199  16.5156853
  43.6237383  72.3635864  15.5434597  48.7300014  95.0991535  16.3319767
  49.0478611  94.2306137  16.0853446  49.2187595  95.3165913  17.1257448
  37.5274849   9.0053755  73.2348013  37.3120928   8.7446773  72.3393250
  38.1250167   9.7459930  73.1314802  85.9644604   5.1527196  11.4956450
  86.5171719   4.8134044  12.1996331  85.1178932   5.3138471  11.9123018
  47.9898262  46.3820314   4.6350601  48.5283709  46.7320538   5.3447646
  48.3141041  46.8217230   3.8490933 107.8475475  98.8806534  78.6681890
 107.1923637  98.4552860  78.1149817 107.6418209  98.5836697  79.5545959
  57.4736786 100.0317192   5.8942699  57.1168947 100.2625275   5.0365597
  57.1530819  99.1444492   6.0561609  24.9104500  33.5999298  72.6090813
  25.2722788  33.8455653  73.4605360  24.4396472  34.3797088  72.3149347
 104.2042828  45.1929331  82.7128124 104.1207123  45.3754663  81.7769051
 103.3682442  44.7944832  82.9547119  37.6187921  14.1903973  93.2872868
  37.5094843  15.0399411  93.7145519  37.0698977  13.5938907  93.7963295
  61.9404554  92.2990990   3.2911921  61.5867329  92.2630024   2.4024796
  62.6201344  92.9719162   3.2513112  67.8362036  60.9656239  23.1285429
  67.3132992  60.3277636  22.6428056  67.1908092  61.5257454  23.5597706
   3.9342168  73.5089397   5.4498398   4.5156381  74.2176485   5.1743209
   3.2063258  73.9520788   5.8857691  45.0310898  83.3772278  28.1755877
  45.4692650  84.2221546  28.0739117  44.8571205  83.3090782  29.1143751
  31.8866038  80.3207111  24.1924930  31.8732238  79.3829536  24.0010262
  31.0380554  80.6399822  23.8854694  65.8719206  84.5724297  67.7248955
  65.2918959  84.3804073  68.4617329  65.9371710  83.7443066  67.2493076
  57.5979233  86.8177128  13.3791411  58.4661770  87.0746613  13.0687487
  57.0018864  87.4448204  12.9696178  59.6677446  53.5253382  12.9630816
  60.5171824  53.7313318  12.5728869  59.8162508  52.7112341  13.4441364
  54.5688343  72.5594950   3.0954096  55.0841665  73.3290672   3.3371201
  54.1500092  72.2857523   3.9114234  49.4870472  70.2479124  13.2458270
  49.2599726  70.6620932  12.4132872  48.8009691  70.5321741  13.8497496
  55.8522701  25.5088067  72.6550388  56.0544109  26.3923478  72.3472643
  55.4269743  25.6417298  73.5022020  26.5125060  22.3595023  81.8301773
  26.4495993  23.2319331  82.2189426  26.5354204  21.7644310  82.5795746
 105.9535122   7.8721005   5.3198570 105.0108624   7.7063709   5.3332824
 106.3153648   7.2482198   5.9491920 107.0832157  95.1865101  68.1833315
 106.5203285  94.6108341  67.6656485 106.7333889  96.0642815  68.0304480
 114.9989510 101.0601139  15.9827960 114.1914558 100.6083298  15.7376862
 115.4327965 101.2441444  15.1496470  71.4828491  73.6125231  11.5820050
  71.1377859  72.7269745  11.6958475  71.2733746  74.0585375  12.4026299
  79.5331001  94.3971729  88.0496883  79.5015955  93.9162636  87.2226715
  79.7667027  95.2907658  87.7983761  73.1315136 105.7500267  39.1655016
  73.7354994 105.0093651  39.2188811  73.6814833 106.4893818  38.9064050
  64.6392441  80.6339550  13.0350256  64.9964190  79.8311710  12.6552927
  64.3709373  81.1573696  12.2798586 102.6474476 107.1995926  65.6315279
 101.7019749 107.0894051  65.7323837 103.0088902 106.3284588  65.7949495
  22.8948855 106.8174458  88.8547993  22.1192503 106.3605881  89.1802311
  23.5385013 106.1237812  88.7105083  15.0292099  43.9248180  93.3781433
  14.3262720  44.0094376  94.0223122  15.8253586  43.8381195  93.9024162
  11.2409461  32.3243499  95.1352024  10.7976449  32.0827889  94.3219566
  12.1618259  32.1166730  94.9768257  50.9398699 100.3638077  24.3555903
  50.3878784 100.3727055  23.5736299  51.4904594  99.5877838  24.2512846
  24.0322788   0.3602208  90.0618267  23.1245716   0.4872120  89.7858620
  24.4308002  -0.1416789  89.3508339  78.3528233  99.8167038  41.5139246
  79.0112162  99.4987679  40.8961344  77.5156593  99.5808506  41.1142206
   4.1524112  41.0745239  69.5000935   4.4066072  40.1530218  69.5495939
   3.5305378  41.1127424  68.7734270  83.3645821  79.2523003  46.5238190
  83.0748940  79.1998339  45.6130171  82.7252293  78.7306404  47.0089340
  33.6762238  33.8726115  93.8909626  32.9824877  33.6022973  93.2893848
  34.4698524  33.4709501  93.5373306  86.3781929  27.7699184  84.2227840
  85.7755756  28.2711697  84.7721863  85.9439754  27.7241588  83.3709621
  55.6656933 101.0422230  22.0317936  55.9844589 100.6110668  21.2388682
  55.9237385 101.9579697  21.9267297  46.7122078  91.6110039  17.1804142
  47.1104956  92.0355892  16.4205945  46.8394709  90.6749821  17.0258105
  45.9294415  94.7079849   0.5374630  45.8095312  95.2510166  -0.2416236
  46.6609240  94.1312504   0.3171560  43.8894892  64.8782873  13.4176314
  44.8009729  64.6626234  13.2203627  43.4896326  65.0340271  12.5620067
  76.0490894  59.5328569   7.8321159  76.2018681  59.0695477   7.0085639
  75.6303930  60.3531742   7.5713378 108.4803677   0.1334699  87.6111221
 107.6005840   0.0130652  87.9684925 108.6124611   1.0815074  87.6141930
 103.1702232  60.9356642   2.4733469 103.9168549  61.2858057   1.9873670
 102.4648952  60.8891249   1.8279269  42.0560789  87.4249363  10.5976737
  42.7934885  87.8257656  10.1374567  42.2890520  87.4878979  11.5239525
  54.8586512  57.4008226  20.2339149  53.9721870  57.7618361  20.2251792
  55.3900051  58.0596924  19.7869396  61.4698219  96.7687511  11.7232645
  61.5583611  96.9622326  10.7900155  61.2437487  95.8391571  11.7547441
  83.6671638  19.5441520  82.4625492  82.7411079  19.4269836  82.2505665
  84.0212822  18.6552429  82.4883747  79.5835781  50.1426792  35.5152225
  78.7003136  50.4737043  35.6780100  79.7353506  49.5098734  36.2171841
  88.7442207 105.7240200  84.9870682  88.6891174 106.6327858  84.6915436
  88.4392262 105.7481956  85.8940506  15.2405560  55.6372738  77.2633076
  15.3589404  54.7472000  76.9316578  15.0272548  55.5214691  78.1892252
  98.9440155 106.6360855  74.4364071  98.5383511 107.2791767  75.0178719
  99.8172092 106.9875622  74.2625856  19.7661960   0.9764943  78.5904121
  20.5016208   0.3742614  78.4777355  19.9579847   1.7024559  77.9967546
  10.1500523  19.8921144  80.9289932  10.5079043  19.5461178  81.7465878
  10.0216591  20.8251858  81.0996437  49.6431589  49.7580242   4.3541858
  50.3085947  50.4432106   4.2913198  48.8665104  50.1401949   3.9455408
  49.6872044  96.2083340  58.9955759  49.8433971  97.1526718  58.9883423
  49.9418402  95.9301853  59.8753643 100.5816936  25.3720069  93.3393288
 101.2368774  26.0604286  93.4535599 100.1353073  25.5991697  92.5236320
  68.8009024  68.3968306   1.6065699  68.1272411  69.0747976   1.5538619
  69.4970608  68.7912512   2.1319461  57.9879856  75.2016783  10.0679386
  58.3382130  74.9952078  10.9345067  57.8572941  74.3490267   9.6530437
  29.7218943  39.1510677  14.1204214  29.4628334  39.1732407  15.0416315
  30.1956367  38.3248520  14.0246654  78.3052444  67.7899313  52.4595785
  77.8965139  66.9963884  52.1139431  77.7628517  68.0311441  53.2104826
   2.1735652  88.5597897  11.5951300   1.8837202  89.2791080  12.1562135
   1.6680750  88.6659908  10.7892561  21.9804621   8.0156535  86.3741493
  21.0862637   8.1676239  86.6800022  21.9998050   8.3918577  85.4941845
  54.8997736  93.0424118  26.7721391  53.9784765  93.1552219  27.0060492
  55.0954247  92.1337605  27.0008588  74.3993998  92.7088070  32.2504783
  74.2383575  93.6397839  32.0969391  73.5363579  92.3012543  32.1776986
 101.6206741  44.5184040  94.2152214 100.7477665  44.3525982  94.5712757
 102.2158718  44.0926981  94.8322773  19.2831016  26.9519019  89.7056580
  18.8944447  26.4508772  88.9886189  20.1776505  26.6181612  89.7737217
 105.8078098  21.6741014  93.2673264 105.6112099  21.7669058  94.1995049
 105.3212738  20.8956099  92.9962730   1.8445529  74.1251802  72.7626753
   1.1610252  74.7947407  72.7360916   1.5575875  73.5168648  73.4437323
  39.5150375  28.0736303  89.2698574  39.8216295  28.2532310  88.3810520
  40.2982664  28.1540275  89.8142147 114.4488525   3.4881470  24.4406915
 113.8113117   2.9257119  24.8805141 115.2216053   3.4610489  25.0049114
  28.1900239  21.1626244  77.1413755  28.3790231  20.6456041  77.9244471
  28.8774729  20.9186435  76.5215969  22.2470498   6.1080319  80.0375843
  21.5190220   5.5575955  79.7490978  22.9042387   6.0169327  79.3476343
  51.8646622  87.9322720  18.9257932  52.4394751  87.2754669  18.5328078
  51.4475679  87.4782085  19.6579766  20.1662922   9.1541719  58.8399792
  20.5037498   9.2502958  57.9494095  19.2147720   9.1831887  58.7399864
  76.5549898 107.3105907  70.8758974  77.1010447 107.4409008  71.6511869
  75.7342625 107.7574539  71.0831308 116.2579990  18.5380208  90.4823780
 116.0420921  17.8507364  91.1126614 115.8323635  19.3225110  90.8282661
  58.8250017  97.0314312  24.6927333  58.9764500  96.5742397  25.5199432
  59.6957541  97.3122597  24.4113731  33.9197159  56.7081165  91.2475491
  34.0630293  56.5287161  92.1767998  32.9732537  56.6255140  91.1308479
  51.8025351  16.4514387  25.0818825  52.4069118  17.0557678  25.5128694
  51.2157440  17.0169735  24.5798063  59.2626905 103.3695889   6.5471679
  59.8859930 102.9718399   7.1550494  59.3658829 104.3117905   6.6807085
  52.4002123  93.1664371  10.9392381  53.2270002  93.3215141  10.4825044
  52.6100016  93.2942867  11.8643725  23.2867956  77.2243690  16.1254966
  23.8431764  77.9259062  15.7870889  22.5344729  77.2088480  15.5338871
  94.8797989 103.6418343  76.4968109  94.4166374 102.9187107  76.0739613
  95.5436134 103.9061546  75.8598518  85.8776760  77.7112627   1.7719285
  85.9715843  78.2196474   2.5775093  85.8116913  76.8033886   2.0679696
  88.4482193  84.6586895  38.7279248  88.7670612  84.2088413  39.5103645
  88.3613682  83.9665985  38.0724096  34.9657679   9.9363220  88.3063507
  35.0676703   9.6952260  87.3856354  34.8296642  10.8836913  88.2922173
  82.2081470  69.8898125  67.5286818  81.4151001  70.2613878  67.9149866
  81.9012356  69.1266251  67.0392179   6.9842011  39.7244120  68.2371855
   7.6845247  39.1875839  67.8662491   6.2091136  39.4943953  67.7247763
  52.5163174  63.1023979   3.6378527  51.8631506  62.7527952   3.0317289
  52.0121622  63.3646631   4.4081002  65.8441162  33.6858964  11.9048822
  66.0409355  34.5529532  11.5503311  65.4273987  33.8610911  12.7486145
  43.3023453  28.3409333  78.7738657  43.6111355  29.2422676  78.8659573
  43.4807873  28.1188059  77.8600550  81.1965466  62.2376585  18.6792171
  80.3206062  62.4899769  18.9712608  81.7306328  63.0192757  18.8208115
  43.2751465  71.9275570   1.7173243  42.7393866  72.6627254   1.4194652
  43.0592775  71.8343258   2.6451936  53.2761383  84.2185974  14.5438278
  53.9649200  83.7188244  14.1056085  53.5422134  85.1325226  14.4429076
  70.0679255  78.6379004  21.0776210  70.9285355  78.3917046  20.7385564
  69.8222780  77.9151201  21.6550994  27.6635170   6.4671737  81.7069530
  27.5930953   5.5196166  81.8227482  26.8188882   6.8078876  82.0014858
  94.4300747  98.0010414  66.6849422  94.4937229  97.3209095  67.3554754
  94.1226292  97.5399303  65.9045076  40.9163332  72.3008680  12.5306082
  40.3134918  72.7676249  13.1093597  41.1286640  71.4966297  13.0042613
  60.6272268  57.5084972  10.0025761  60.3127432  57.1944761  10.8503509
  61.1351013  56.7778063   9.6498930  71.8368196  84.1080952  22.0830274
  71.1510134  83.5807037  21.6734457  72.5792599  83.5101604  22.1695495
  92.9703045  85.4346371  75.5609369  93.7661934  84.9906254  75.2682781
  92.6927567  84.9436951  76.3343573   3.9649716   3.7156534  89.3732071
   4.4184086   4.0856844  90.1306343   3.4410310   3.0002642  89.7336674
  18.4961867  33.6467028  87.5865459  18.6886275  32.8204179  88.0297756
  17.7725470  34.0239668  88.0867958  73.7500525  10.8228660  11.9786525
  72.8324461  10.7327664  12.2357643  74.0586138   9.9229610  11.8728530
  48.7819958 106.9554520  28.5449529  48.9279795 107.8248405  28.1720233
  49.6560907 106.6479492  28.7850094 116.0582447  80.2041817  71.9526291
 115.6004620  80.9187794  71.5099001 115.3911591  79.7995806  72.5071764
  16.2454760  22.7167797  73.8401747  16.1472368  23.0477262  72.9473972
  15.8480394  23.3913994  74.3907785  79.2958069 103.9734840   7.3338395
  79.3783951 104.0054703   8.2869327  80.1171589 103.5830498   7.0352262
  42.4055815  31.2184787  49.4380093  42.6937771  31.8566298  48.7853670
  42.9133797  31.4308047  50.2211380  41.1544228  30.4617357  67.8617287
  40.9580469  29.9620914  67.0692492  42.1102619  30.5065918  67.8858900
  16.8441212  14.0235376  78.2667542  17.1100044  14.6010756  77.5512218
  15.9784687  14.3420315  78.5225677  70.1768255  36.3042116  31.4256144
  70.1788235  35.4422045  31.0094738  70.2237606  36.9223690  30.6962943
  14.3532479  19.9028575  83.2437992  13.9670420  19.0616751  82.9998970
  15.0298524  19.6794367  83.8829517  65.6985807  63.4463215  28.6105514
  65.6269503  63.6992264  27.6901507  65.7370329  64.2768526  29.0848613
  46.3807201  99.3543530   2.8517932  47.0068550  99.1637421   3.5502595
  46.5703869  98.7035942   2.1759433  74.1617057  70.4684673  -0.0853097
  74.4497940  70.4626022   0.8274902  74.2701408  69.5631085  -0.3765046
  90.3065586  81.1302757   3.2062727  90.5114937  82.0206738   3.4916273
  90.7464981  81.0425186   2.3607059  22.4005866  42.0055914  89.9549866
  22.6909423  41.7543983  90.8318138  21.4761329  42.2287989  90.0635910
  71.5577078  53.4068584  20.0646973  71.8574333  52.8207827  19.3697786
  71.8590355  54.2739153  19.7933197  70.3105211 106.4001465   8.5822654
  69.4609547 106.6456985   8.9485663  70.1513433 106.3185024   7.6419318
 115.7821655  34.4830537  82.5133419 114.9793625  34.1307282  82.8975391
 115.5898571  34.5522094  81.5782166  67.4988890   0.5998912  22.5479484
  67.3224783   1.4223686  22.0911741  68.4374237   0.6259196  22.7342582
  91.7102337  69.5473528  19.2718971  90.8851337  69.7995186  18.8573420
  92.3757839  69.7219324  18.6064637  86.6059303  88.6554718   4.5665646
  86.6919518  89.2291641   3.8051826  85.6919098  88.3716679   4.5505562
  39.3949246  77.8140974   2.0690949  38.7210751  77.8516006   2.7478817
  39.1032410  77.1181107   1.4802353  38.7135887  47.5328112  81.5880489
  38.7314892  47.3008966  82.5165558  38.0427337  48.2125616  81.5238476
  16.1973619  25.4501319  79.6407032  15.9931803  24.9183893  80.4099846
  16.0490954  26.3515806  79.9264288 115.5447865  11.8888104  73.6192942
 114.9165535  11.2996507  74.0369511 115.2206516  12.7665782  73.8210154
  30.1391053  36.4509606  94.2159843  30.9529781  36.6690111  94.6701813
  29.5188165  36.2531805  94.9176598   2.4856135  29.7837520  67.7134705
   2.0619729  28.9269423  67.6621103   3.4157029  29.5849824  67.8214312
  68.6926937  71.7183781  15.2580512  69.1409492  72.2869539  14.6319389
  69.3690157  71.4802408  15.8921719  63.0590200  88.0276299  17.3639202
  63.2381630  88.9445782  17.5721312  63.3673143  87.5434399  18.1299138
 112.2787762  79.0793037  27.1879482 113.1520653  78.6876869  27.1728611
 112.1905899  79.5010042  26.3331819  97.5688362  13.4107351  71.5002871
  96.8430042  13.1427693  70.9367323  97.2463131  14.1908288  71.9515753
  55.2521133  88.0855083  20.8970809  55.7011986  87.5713539  20.2261138
  54.9758101  87.4404907  21.5481067  78.9844084  84.1013050   5.7598466
  78.2951164  84.2124367   5.1050544  79.0869045  83.1530857   5.8411473
  86.1574173  95.5264664  42.5165749  87.0218086  95.5148411  42.9275703
  85.6084728  95.0007439  43.0983973  74.5201015  50.5906725  40.3014278
  74.7420120  49.6609592  40.2502632  73.8330793  50.6366920  40.9663486
  56.3525772  95.4517651  27.9698730  56.7077017  94.6754169  28.4027600
  55.5199242  95.1594543  27.5990963  21.9537973  45.5755281  90.0141716
  21.4199901  44.8425007  89.7076511  21.6238427  45.7609224  90.8933735
 111.2002754  72.5180149  92.9241943 110.8028793  72.4739981  92.0545006
 111.8061733  73.2573080  92.8735352 110.1891994  66.7168283  30.4363132
 109.8128414  66.1983442  29.7251463 109.7355556  67.5581646  30.3853798
  79.7183704 105.7075596  31.7665195  80.1706600 106.5041256  32.0442510
  78.9881420 106.0205173  31.2326169  62.9096413 105.7635975  38.6989331
  63.2323408 105.2794361  37.9388738  63.4619713 106.5444088  38.7376976
  78.9490986  59.9682999  19.4301867  79.5593405  60.0425529  20.1638913
  78.9433861  59.0351820  19.2169023  10.8461773  46.7224216  89.5357609
  11.7186403  46.8373632  89.1591644  10.5407369  45.8870935  89.1819668
   1.0590608  27.9949999  71.5981102   1.1112263  28.1235576  70.6510162
   0.6404328  27.1403837  71.7011166  10.5834889  92.8695011  83.1732464
  10.4641509  93.7643528  82.8551006   9.7089690  92.5946140  83.4487152
  89.7334194  52.0187902   1.6620785  89.8206329  52.4801159   0.8279298
  88.8385487  51.6791058   1.6554959  14.5011055   1.8583591   0.5681079
  15.2903676   2.2962762   0.8867373  14.8043525   1.3204393  -0.1632705
   5.4685819 109.8663807  75.5353975   5.3552479 108.9249611  75.4045391
   5.4339480 110.2366829  74.6534061  32.4640489  42.6591301  92.1314621
  32.5251842  42.6281834  93.0862045  31.5338206  42.8003216  91.9554710
  75.8373165  93.2551479  17.0806158  76.7535877  93.2387161  16.8042028
  75.6529379  92.3560238  17.3523021 107.6370049   0.7961578  14.5959592
 107.1193600   1.5202698  14.9480009 108.2749271   0.6017456  15.2826166
  85.5879307  87.1844769   8.0556667  86.4783764  87.5167656   8.1693566
  85.0948715  87.9317188   7.7169156  31.6091926  56.0172933   0.3679527
  32.2587593  55.3564010   0.6077636  31.3108642  55.7549660  -0.5029237
  96.2991333  21.3547444  26.8987656  96.0321808  21.3871002  27.8174162
  96.1922741  20.4365015  26.6504884  52.8778362 104.2698860  10.6514764
  53.3354235 105.0884628  10.4597282  53.2575417 103.9711094  11.4777899
  49.0029764  59.1729784   8.2073176  49.1772699  60.1024342   8.3555305
  48.0916166  59.0545368   8.4749645  60.4758692   6.1143553   3.4865171
  61.1743975   5.5708194   3.1220144  60.1737595   6.6431314   2.7480334
  54.3530703  78.9702272  18.1067634  54.3015194  79.6339464  18.7945509
  53.4484243  78.8565207  17.8153563  54.6703672  86.5085220  13.2959032
  55.1381207  85.7097626  13.0521524  54.9411774  87.1535110  12.6425397
  69.0396070 102.1639919  40.1357317  69.8327160 101.8050194  40.5336714
  69.3463755 102.5977993  39.3395305  61.7653322  96.2772369  18.7176430
  60.8730984  95.9480858  18.8262975  62.1816206  96.1254120  19.5661044
  24.7780347  72.3048258  89.0036678  24.6312189  73.2275248  88.7955761
  24.4675946  71.8327141  88.2310295  28.3705831  48.2219934  87.9808998
  27.7428508  48.6708689  88.5472012  28.6248970  48.8813639  87.3353100
  58.9257574 104.6881294  10.4474282  58.3350039 103.9355373  10.4184580
  59.0027094 104.8965168  11.3784957  53.2792282  58.3878469   9.8957384
  53.7858868  58.7892818   9.1897810  53.5414124  58.8675785  10.6814539
  84.5623875  19.9893403   3.7936848  83.9829254  19.2343283   3.6916077
  85.3517628  19.7530174   3.3065861  56.5416574  84.4932938   7.8202105
  56.8559027  84.4149017   8.7209529  55.9553957  83.7454319   7.7051294
  25.0017524  45.1657677  80.0240326  25.5764651  44.9289322  80.7519341
  25.0312519  44.4084454  79.4393730 113.7205029  43.8565350  71.0419369
 113.3277798  43.2604742  71.6796780 114.6495914  43.6262846  71.0393715
  59.6351290  85.9270191   8.2548201  58.9545631  86.2841129   7.6842582
  59.1865730  85.2594757   8.7738800  67.0368958  11.3693154   7.2834575
  66.2088156  11.3762677   7.7635306  67.5749588  12.0267403   7.7244925
  72.1175718  61.8328428  17.9098248  72.0728731  62.3225260  17.0885789
  72.3871183  60.9521389  17.6491785  92.3217392   5.7179117  20.0118709
  92.7585411   5.5658090  20.8499002  92.8281498   6.4189333  19.6015739
  74.1696215  65.1232338  16.8546367  73.6242104  65.4824495  17.5544393
  73.5748148  64.5715332  16.3466406  22.7402663  24.7296166  87.5397682
  23.4935713  25.2837181  87.7440548  22.7144551  24.0889311  88.2504654
  31.9120646  78.0303144   4.9110997  32.8383851  78.1765509   5.1028746
  31.5058804  77.9098701   5.7694364  54.8869801  88.8332939   6.7968738
  54.7699738  87.8862953   6.8726271  54.7021294  89.1684055   7.6742333
  17.6159608  13.1233025  86.1871910  18.3622301  13.7184370  86.1155796
  17.2878730  13.2564843  87.0764923  67.3199844  63.0848265   3.6442649
  67.6570320  62.5917959   2.8962332  67.0895290  63.9406729   3.2828176
  86.2031937   4.6175036  14.3373239  86.3950539   5.0678647  15.1598787
  87.0247650   4.1855612  14.1034734 100.0983334   5.2606279   5.6516337
 100.7992172   5.0621486   5.0306726 100.5522919   5.4490274   6.4730096
 114.4489574  19.8025680  48.9946175 113.9406109  18.9941871  49.0604687
 114.8990631  19.7345304  48.1525898  22.5298691  95.6425667  16.6138625
  22.2304463  96.0828018  15.8183908  21.7248869  95.3696156  17.0540118
  69.7609568  60.6087017   4.0565491  70.2874422  59.8093033   4.0561670
  68.9025307  60.3299809   4.3753773  51.8819189  37.3023057  85.8359909
  52.2767925  38.0252361  86.3235092  50.9390545  37.4282026  85.9427261
  41.6763926  20.6088352  69.4885635  41.0672760  21.3466763  69.4602394
  41.3946915  20.0381160  68.7736082  42.1802664  33.7281537  80.2132893
  42.4665642  32.9300475  80.6574631  41.6821718  34.2058659  80.8765602
  18.7607145  45.5004930  89.2628765  19.1450071  44.9089861  88.6158276
  17.8400636  45.5671024  89.0095043  23.7168884  39.8832297  12.8390753
  23.0943918  39.9383187  13.5641229  24.3340611  39.2014313  13.1045580
  38.1672144  31.9145918  89.8842335  37.7902985  31.1531568  89.4433403
  38.1715727  32.6002526  89.2163467  67.8671551  74.4986629  47.6045513
  68.1280708  75.3698730  47.3059750  67.0565796  74.6453524  48.0920792
  88.0599022 101.6403675  35.7438183  88.3231449 101.4383698  34.8459697
  88.7193298 102.2616196  36.0527349  53.3133173  29.2069364  76.8695259
  52.5391531  29.7465348  77.0299435  54.0484858  29.8158622  76.9400120
  21.6121936  66.0320044  87.5064945  20.6730366  65.9013367  87.3755741
  21.9669557  66.1228514  86.6221237  57.1938801  72.0910358  11.6497302
  56.6437435  72.7864504  12.0102584  57.7604771  71.8327093  12.3766875
  80.6069469  96.6960335  10.8810472  80.5568600  96.0677719  11.6014636
  80.7341480  96.1562252  10.1008868  26.7104173  18.7933683  65.6768227
  26.0731888  18.7515998  64.9637794  26.3397980  19.4256556  66.2925196
  71.3911200  71.2095928  20.7793474  72.0439529  70.8310699  21.3682079
  70.7059908  70.5436468  20.7214999  85.0473404  95.8698273  51.3340092
  84.7367382  95.5789280  52.1914053  84.2848206  96.2853718  50.9313631
  76.9905806 103.4813023  21.7856717  76.2494516 103.8984776  21.3464308
  77.3101664 102.8357697  21.1552882  61.6657019  97.5875664  14.2069733
  62.4820375  98.0682564  14.3439865  61.6347170  97.4323368  13.2629526
  33.0619645  25.0349307  90.7377052  33.0318451  24.0882540  90.8760166
  33.0133510  25.1398277  89.7875118  22.5300431  27.3336172  78.9829350
  22.7115369  27.1208072  79.8983574  22.2969937  28.2619405  78.9945078
  82.2663307  64.5103884  19.2521429  82.9630470  64.2711210  19.8633373
  82.6194000  65.2557659  18.7663603  79.7169542  81.5388107   5.1464164
  79.2103815  80.9972095   4.5412037  80.1926994  80.9103203   5.6894535
 102.0414066  44.9389791   1.4423072 101.2082481  45.4043055   1.3678633
 102.5093460  45.1551008   0.6357380  66.6942406  59.0172911  37.2023487
  67.5714064  58.7209892  37.4452901  66.8453407  59.7745037  36.6366339
  83.2386875  94.1356277  48.9410400  82.7551079  94.9326324  48.7238646
  83.0602932  93.9930248  49.8705912  89.7471523  14.2086685  17.9639816
  89.5717144  14.5470941  17.0859611  90.3014946  13.4419489  17.8188014
 115.3625965  15.4703951  22.3056722 114.6819496  15.3359389  22.9651165
 115.7776833  16.2961435  22.5548172  28.0064988  54.0911770  85.2306938
  28.6148834  54.8277140  85.2907944  27.8154063  53.8635015  86.1405754
  45.4713106  44.8125792  80.6239319  45.5669975  44.0021181  80.1237011
  45.8224964  44.6027899  81.4893150  48.5246706  97.1439266  14.3373179
  48.9166212  96.9239712  13.4921992  48.6070156  96.3431549  14.8552024
  29.6125770  20.7278037  82.9583359  29.7104025  19.7941387  83.1452370
  29.0897036  20.7581878  82.1571445  68.2727766  72.6659441  21.4465404
  69.0188932  72.5576878  20.8567762  68.4822702  73.4483051  21.9566965
  50.4684591  68.5967016  78.5367107  50.4132843  67.6809978  78.8099813
  51.3328791  68.8830233  78.8317251  88.9701271  77.0652819  13.3918774
  88.4852409  76.9286346  14.2057848  89.8520947  76.7455339  13.5819495
  83.0710125  96.7509556  45.2183437  83.5363197  97.1705818  45.9419680
  82.4180889  97.3962402  44.9471760  51.8525743  98.6444473  21.1209798
  52.1607685  99.5462418  21.2105203  51.7257547  98.5270405  20.1795101
  76.3116741  98.1882477  12.4896777  76.0208988  98.4646320  11.6206014
  77.0530415  97.6068687  12.3205411  53.7899876  75.2339458   6.5387005
  52.9864740  75.0568056   7.0278066  53.5092306  75.2778816   5.6246555
  67.0802498 101.7097759  12.4644387  67.7331734 102.3993015  12.3440921
  67.5812340 100.9581947  12.7812397  39.9900246  90.2003002  87.0000362
  40.7369089  90.2282810  86.4020252  39.6498871  89.3094444  86.9169235
  48.1065559  94.3624401  10.8404827  49.0419769  94.2970467  10.6482625
  47.8927994  95.2816010  10.6802225  90.5343056  93.4039211   1.2757754
  91.0042286  93.7735844   2.0232709  90.2804756  94.1642666   0.7526267
  26.5398026  73.8825703  94.3420887  25.8339024  74.1965437  94.9072075
  26.3465214  72.9543400  94.2106915  47.3373032  72.0534372   0.0777070
  46.5390635  72.5782108   0.0172607  47.7909613  72.3953629   0.8481059
  89.7024155  84.1812420  79.5253086  89.7659111  85.0157547  79.9898291
  88.7629509  84.0037060  79.4791269  80.8460999  70.3830433  10.3831625
  80.5669785  69.7472811  11.0420501  80.9659767  69.8656845   9.5867944
  34.8475695  38.8126802  29.1345429  35.0020862  37.8787088  29.2761540
  34.2862964  38.8478494  28.3599687  24.0292239   0.5212106  77.7919245
  24.4547725   0.3739776  76.9472599  23.3375669  -0.1393874  77.8300333
  42.2021246  45.3805637  21.6736174  42.9125643  45.0975609  22.2493052
  41.6890574  45.9876299  22.2069669 103.9139748  88.2123852  71.7341042
 103.8089180  89.0428162  72.1984148 104.1211891  88.4654903  70.8345318
  35.1209760  19.6858478  93.7350464  36.0521364  19.8407614  93.5763836
  34.7618032  20.5537295  93.9194679  86.1853981  65.3251362  77.5210047
  85.8570671  64.4964218  77.8697920  87.0805264  65.3874207  77.8543091
  84.4709587  87.0769215  94.7327137  84.2030811  87.9012489  94.3265629
  83.6928177  86.7776299  95.2029705  51.4280558  31.5803409   4.2258167
  52.3109674  31.2108755   4.2398852  51.5502977  32.5017023   4.4546872
  55.2218676  13.6811566   6.7355859  56.1419106  13.4203362   6.6940302
  55.2408648  14.5710802   7.0875907  89.3808842  83.4139824  62.4974155
  89.3118191  82.5168991  62.8240871  88.5568142  83.5643291  62.0342398
  77.7285624  22.3732328  78.0834341  77.6932430  22.5835204  77.1502876
  78.1182718  23.1477904  78.4889174  88.4167862  99.0094757  88.7860870
  88.3444691  99.5169353  87.9776955  89.2086315  98.4845257  88.6693192
  26.0920811  93.5567188  81.9896412  26.9883251  93.2236290  82.0346451
  25.9214044  93.9040470  82.8651237  57.0649576  99.2285061  82.5728416
  56.2650490  99.7169113  82.3783207  57.7051878  99.5560741  81.9411373
  85.1269627  49.2263126  19.7200429  85.4535961  48.5254431  20.2842426
  84.8527813  48.7804890  18.9186084  13.3472538  16.6591167  93.5193157
  12.3935628  16.6473675  93.4382725  13.5201633  17.2848141  94.2227650
  17.9499614  73.9165592   2.6441810  18.0505705  73.9984608   1.6958131
  17.4540484  74.6941280   2.9004684  61.9646358  41.2337780  12.5840652
  61.8372726  40.3587675  12.2175038  62.5212622  41.6816378  11.9470251
  70.8144140  40.9496260   5.1364815  70.0728989  41.5544701   5.1598173
  71.4440060  41.3651705   4.5472720  86.3513947 104.4363403  92.5418949
  87.0857811 103.8224316  92.5353813  85.5742645 103.8796329  92.5905895
 107.0115757 106.8355465  71.1968040 107.7010250 106.5657902  70.5900717
 107.2427273 107.7323914  71.4385939 114.7459888  24.0425992  84.7681999
 114.2215443  24.7031879  85.2207661 114.1267776  23.6033368  84.1852283
  62.0695591  64.8210859   5.8372712  62.9152250  64.5007467   6.1510646
  61.8743801  65.5714130   6.3986468  44.4676924  43.2834148   8.1498146
  44.1416550  42.9284286   8.9768058  45.3551054  43.5810328   8.3502030
  71.1266756  36.4918661   1.8977305  70.1867342  36.5042758   1.7172098
  71.4597416  37.2904706   1.4884223  24.7364116   2.9963097  36.4283037
  24.7472787   2.0466390  36.5476322  24.3707132   3.1235409  35.5529141
 114.8068714  11.1020303  79.2298698 114.1283226  10.7078671  79.7779942
 115.6230259  10.9334147  79.7007036  84.1055965  22.9303312  73.4535551
  84.0075302  22.1146035  73.9446783  84.5944786  22.6805258  72.6694489
   5.0439924  35.0084233  92.3456287   4.9976712  34.3234324  93.0126190
   5.9668744  35.2616787  92.3260880  12.2443688  86.2907887  13.3092892
  11.6630352  85.5333519  13.2416296  12.9488456  86.0009956  13.8889194
  38.7623167  65.2873135   2.9956928  39.2518783  64.7870493   3.6486048
  39.2402124  65.1465416   2.1783617  42.8155327  53.7682629   9.7508222
  42.4819517  52.9016447   9.9830419  42.9559803  54.2040014  10.5914414
  80.8788013  33.9011455  30.6053901  80.6838608  33.3826184  29.8247766
  80.0202560  34.1362357  30.9573317  26.1546063   3.7171978  78.3916950
  26.2348294   3.9363712  79.3200064  26.5232801   4.4729877  77.9344320
  57.8103352  58.2889223   6.1312556  57.2763824  57.8172970   6.7705476
  58.0167294  57.6354694   5.4629505  26.9351482  39.3332839  76.5314484
  27.0884967  39.0404034  75.6331491  27.6876664  39.0035915  77.0226192
   7.2343928  22.5037456  58.3157682   6.8976122  23.3803654  58.1304407
   6.4518988  21.9577837  58.3923340  92.8625679  90.8178711  93.0117416
  93.3452225  91.6402054  93.0957127  91.9662380  91.0858536  92.8092194
  19.0676320  15.4214501  85.2746582  18.9313233  15.7055974  84.3708229
  19.2127144  16.2327349  85.7614803  94.9495029  34.5870948   0.9992629
  95.3677082  34.5761895   1.8602049  95.5464745  34.0937018   0.4367466
  58.9680624  37.8864646  13.6718833  58.8889170  37.2698665  12.9440260
  58.8485718  38.7472558  13.2706451  81.7094994  51.3809872  53.5814810
  81.4644718  52.2882318  53.3995485  81.1569977  50.8618784  52.9971027
  87.4932480  72.1163082  20.4565239  87.1997738  72.3242569  19.5694721
  87.1852779  71.2226439  20.6073666  54.4302416  17.8009212  83.1237698
  55.0216198  17.7236843  83.8724613  54.8087645  17.2253501  82.4591827
  59.8129463  18.9260006  34.7705579  58.8731003  18.7822521  34.8812938
  60.0093365  18.5694599  33.9042211  32.5327969  44.1679525  11.4021504
  31.6775513  44.4135427  11.7549598  32.5815368  43.2205772  11.5299523
  92.8662395  24.9291730  23.0399919  93.8218689  24.8812246  23.0131865
  92.6565933  25.0120854  23.9702630 106.3423061  41.5233278  92.1094704
 107.1807575  41.9486570  91.9297123 105.8584595  42.1603012  92.6351929
  36.7036390  14.6835434   6.6291690  37.1224499  15.3685439   6.1080134
  37.1550560  13.8788950   6.3742274  82.7335262  97.8372860  87.4528885
  83.1077480  97.7997017  88.3331013  83.3166599  98.4225368  86.9694996
 103.7566566  97.9815483  82.8536415 104.0563297  98.7110043  83.3961487
 103.5364723  97.2919559  83.4799004  80.3040504 108.2187271  77.7889156
  81.1668396 108.4372902  78.1411171  79.9078655 107.6583958  78.4562302
  73.9948797  11.3974154  32.9531646  74.2064333  10.7709229  32.2610760
  74.4889593  11.0904229  33.7133455  97.7663486 108.9911764  93.2480240
  97.7427928 108.7075311  92.3341179  98.1849520 108.2667087  93.7129402
  24.4438672  14.1156590  82.0091820  24.4410086  14.1519403  82.9656887
  24.6958852  14.9979961  81.7367840  89.6834278  90.9580040  70.3583050
  89.8598385  90.0383949  70.1597166  88.7288284  91.0271263  70.3446865
  61.3818216  51.2329960   4.0595365  60.5600929  50.7959986   3.8358665
  61.5970087  50.9059191   4.9330050  57.6873064  80.2564907  12.1503007
  56.9923449  80.0167942  12.7633250  58.3472300  79.5713282  12.2565401
  25.8957839  19.1272283  90.1152992  26.5391994  19.7760308  90.4004383
  25.8813357  19.2073500  89.1615677  31.4761305  92.9238033  75.8548307
  32.3852229  92.9951286  76.1458540  30.9677815  92.8835583  76.6648865
   7.8796500   9.9651319  90.5210018   8.8085192   9.7582936  90.6242085
   7.4877161   9.1531140  90.1996803  78.7799454  45.7531595  36.8504930
  78.4376192  44.9814224  37.3015618  79.6245861  45.9200478  37.2687769
  70.1559353  30.8698153  48.6751652  69.5858717  31.1398029  47.9551888
  70.9939957  31.2930632  48.4887457  45.0164413  69.9523830   1.0201699
  44.1095209  70.1256609   1.2725595  45.4172897  70.8193064   0.9569880
  64.8410177  93.1365395   4.0032399  64.4016409  93.9727592   4.1578883
  64.8646069  92.7158260   4.8627010  55.2617168  67.8325033  31.8260312
  55.4380608  68.0499411  32.7413750  55.7076550  66.9968224  31.6881704
  11.6394627 100.2487278  91.9419098  11.7236030 100.9234905  92.6155949
  11.4503813  99.4465351  92.4286938  70.2368164  90.9249973  53.3034420
  69.5607948  91.4887333  53.6795139  70.8706665  91.5326500  52.9223537
  79.0828705  86.1184883   7.4847096  79.0639877  85.7372761   6.6068989
  78.1951094  85.9924507   7.8197128  29.2414594  27.3076415  74.2109632
  29.2950058  26.6584730  73.5095787  28.3993888  27.1359348  74.6324682
  30.3042412  22.2632074  91.2046242  30.6100202  22.8536654  90.5160809
  29.5464110  22.7088547  91.5832043  24.3971062  25.4693389  21.5722656
  24.2618799  25.9941053  22.3612928  23.5183668  25.3453827  21.2135434
  41.2338257  34.8958707  17.9144001  40.5916357  34.4436145  18.4614694
  42.0758247  34.7097945  18.3299053  95.2273941  23.4681821  76.0044098
  95.3489590  24.1049886  75.3001881  94.4741726  22.9462123  75.7279444
 112.1281242  24.2224979  88.7068176 111.4572716  24.8811054  88.5267353
 111.8711281  23.8423181  89.5468521  86.7352390  88.0866909  92.4489880
  86.6891003  88.8748074  92.9902554  86.3263988  87.4053192  92.9826736
  67.5619745  45.2539158  31.9937944  67.3219156  45.4312706  32.9032707
  68.4050608  44.8044014  32.0519090 101.1671543  91.3093567  93.6381340
 100.3706360  91.8389416  93.6746120 101.4958286  91.4321423  92.7475548
 103.9031029  91.1955261  77.9659605 103.8036156  91.2281895  78.9174175
 103.0065823  91.1594582  77.6325035  80.1772881  85.8009243  85.4529667
  80.0738716  86.7209244  85.6961250  81.0045052  85.7717609  84.9722481
 108.8655949 104.1833973  93.6777401 108.0216122 103.7320709  93.6630726
 109.2059135 104.0838623  92.7886295  39.9361944  41.1217499   8.7249017
  40.8512831  41.2441969   8.9775974  39.6890903  40.2847385   9.1180706
  81.5890408  44.8107624  10.3725743  81.2546444  44.3876219  11.1633730
  82.4234962  45.1951504  10.6412005  55.0566530  41.5147114  24.7692657
  55.2960873  41.0587454  23.9624190  55.8690596  41.9287062  25.0605345
  59.1429567  56.3143969  12.1505737  59.3316841  55.4825830  12.5849688
  58.5095835  56.0902643  11.4687872  21.5632129   3.8457415  67.9521179
  22.3631382   3.3620882  68.1581068  21.2373734   3.4389171  67.1492767
  47.5702763  48.4419489  29.7776556  47.8019667  48.1965017  30.6733704
  48.4081078  48.4849072  29.3167591  90.1231670  79.7245073  80.4896259
  90.7327461  80.4464340  80.6428051  89.3498039  80.1407242  80.1089382
  84.5748520  41.8946028  25.5001068  84.4267368  41.6508389  26.4138222
  83.7281990  42.2254658  25.2002215  67.0193930  87.5723124  94.6681208
  66.5559907  86.9675756  95.2475897  67.8402682  87.1250964  94.4622180
 112.8594875  89.2311192  80.2346230 112.9327583  88.3413982  79.8892689
 112.5517368  89.7515011  79.4925213  33.5641670  64.1613245   6.3998359
  33.1261873  65.0090456   6.4758235  33.5935616  63.9904499   5.4584700
  15.2193260   6.1898571  73.6505032  14.4343495   6.3287300  73.1206417
  15.9074974   6.6694582  73.1893778  81.0225296  92.0034790  89.3955231
  81.8768406  92.2432899  89.7545147  80.7410908  92.7783203  88.9090633
  97.2849369   3.4087583  35.1113415  96.8690681   4.2646176  35.2152181
  97.9016876   3.5282251  34.3891406  48.7639189  32.0235753  23.1230187
  49.4609737  31.3774967  23.0093312  48.5480213  31.9815683  24.0546083
  93.9017391  87.8596497  54.9645567  94.0385246  87.4346733  55.8112669
  94.7764015  87.9133224  54.5794344  98.7840557  90.4694653  60.1705456
  99.0480900  90.4818249  59.2505646  97.8879547  90.8059311  60.1670837
  86.9928551 106.6940594  69.4769573  87.3302174 107.3526955  68.8698196
  87.2234917 105.8567905  69.0744400  34.0328789  91.2944603  61.9574833
  34.7930098  91.4780998  61.4054728  33.3554316  91.8906116  61.6382551
  64.0233946  66.3019228  29.9081159  63.6449909  66.0886431  29.0551472
  63.3573151  66.0313225  30.5400515 106.7510223  90.7857704  89.6967793
 106.4523697  91.1933994  90.5097198 107.4828625  91.3319016  89.4097710
 108.4769917  46.5363550  12.6713657 107.5976849  46.9139338  12.6934695
 108.4970188  46.0230875  11.8636620  26.2764668  26.7363977  80.5438709
  26.7548633  27.5602937  80.6364155  26.7586517  26.2535477  79.8726130
   2.9124346  35.9609747  85.7048512   3.3545619  35.3111959  85.1584530
   2.9975054  35.6222725  86.5960693  50.3130674  88.8433933  16.8821263
  50.7387590  88.5852814  17.6996827  50.2749586  89.7989559  16.9232285
  71.1347818  78.6341715  37.4443412  70.6439972  78.3899164  38.2290053
  70.5062580  78.5374355  36.7289209 109.4060707  95.5444908  76.2457895
 109.6428299  95.2514839  77.1257496 110.2397060  95.5964661  75.7782650
 107.5825214  11.5482616  73.8455009 107.8061390  12.4520397  74.0677929
 106.6541100  11.4703000  74.0650749  13.3348358  61.6619921  88.8264942
  13.2817817  61.8121767  87.8826427  13.5672748  62.5155163  89.1921425
 101.9375801  47.1290350  10.0393391 101.3389969  46.3820982  10.0425529
 101.3798141  47.8837681  10.2277660  44.4241285   1.0733263  52.0070648
  44.6815968   0.5296307  52.7516031  45.1934671   1.0794611  51.4375782
  34.0135670  27.1928334  60.1661587  33.2292318  26.8114972  59.7716522
  34.6751189  26.5044594  60.0974226  32.3119950  53.2248831  74.3392754
  31.9175601  52.4523926  74.7441339  32.5611210  52.9345989  73.4618330
   6.9464236  43.0283165  87.4660206   7.8273880  43.3953428  87.5396824
   7.0883965  42.0980597  87.2908115  34.5429873  76.7841101  84.9391079
  33.7824225  76.3528919  85.3287601  35.2553582  76.6169214  85.5562019
  60.7084370 101.0229778   0.2091809  60.5729389 100.9675503   1.1551192
  61.6299295 101.2634277   0.1129057  35.7091951  12.3829305  65.9095860
  36.1105132  11.5172422  65.8337021  35.7262206  12.5734401  66.8474817
 110.1195332  77.2543369   0.3706420 110.6971642  77.5412522  -0.3366410
 110.4743859  76.4074646   0.6410468  45.5753613  24.8066401  73.9777565
  46.3624430  25.1990938  74.3555355  45.6924486  23.8651848  74.1049719
  82.5901413  47.9790401   0.4543605  82.8373909  47.7939892  -0.4516513
  82.0221901  48.7472820   0.3955005  55.1103544  70.1306391  13.7041819
  55.1711893  71.0844135  13.6508632  55.5547857  69.9076414  14.5220959
   6.1375582 103.7493515  87.8363991   5.9015828 104.3770981  87.1534061
   5.7991320 102.9119778  87.5193596  92.1948719 107.8267956  76.6390467
  92.3951817 108.6657047  76.2239170  93.0417442 107.3863029  76.7097807
  92.2340438   0.1050461  91.0596561  91.8976733   1.0011853  91.0651588
  91.4517304  -0.4441081  91.0082340 114.2467785  24.7143388  67.1371508
 114.6953869  25.5567789  67.2098064 114.9319744  24.0640163  67.2914934
  10.5126262  52.4966478  55.7883263   9.8949915  53.0746031  56.2363529
   9.9863100  52.0532560  55.1230240  61.0231829  83.0397034  24.1834617
  60.8295298  82.4595165  23.4471798  61.4335442  83.8061428  23.7829566
  17.5576746  44.7599077  83.5496426  18.3690047  44.6166515  84.0369320
  17.0660222  43.9458609  83.6584377  71.1520815  54.7050619  36.0534763
  71.7130518  53.9954805  36.3665843  70.4123306  54.7113657  36.6608977
  47.2144890  69.8669338  23.1931329  48.0784416  70.2779722  23.1636977
  46.9042873  70.0250387  24.0847659  42.8246927  87.0921135  13.5101295
  43.6131525  87.2423744  14.0316522  42.1770191  86.7769241  14.1405284
  77.3052788  36.3573194  22.7370763  76.6147518  35.7157278  22.9036975
  77.2640371  36.9532728  23.4849882  84.8167706  75.1614714  25.9445763
  85.5657387  74.5715332  26.0297632  84.7543621  75.5938482  26.7962718
  13.8547325   2.0018843  88.3234692  14.4061267   2.2631975  87.5859642
  13.0440485   1.6931774  87.9188347  70.4515502  66.3718103   0.1607574
  70.5072066  67.2578083   0.5187286  69.6509740  66.3753294  -0.3639256
  39.4960642   7.7565205  93.1975651  40.0088072   8.5473895  93.0306721
  40.1495314   7.0820743  93.3828545  97.6580238  12.0984983  91.1571503
  98.5464001  11.7454922  91.1081505  97.2498608  11.8352711  90.3323174
  33.5911992   4.9317039  94.9990623  33.1337073   5.1005281  94.1753908
  33.1531194   4.1623987  95.3630476  66.3891745  48.6116266   1.2294406
  65.4895735  48.2862329   1.2620635  66.3659573  49.3153620   0.5810208
   6.7189980  87.2590637  78.3932066   6.3993424  87.7778912  79.1313553
   7.6643968  87.4087620  78.3867979  20.7352853  34.3257332  86.3887501
  19.8434973  34.0623641  86.6158676  21.1390710  34.5515776  87.2267151
  28.7200832  11.6148651  70.9117365  28.9126086  12.0706713  70.0923443
  29.5617461  11.5723395  71.3656378  76.7954350  67.1342611  32.9583430
  77.6902628  67.4578238  32.8543258  76.7300701  66.9044447  33.8852429
   8.6550581  67.3772717  64.1236639   8.6392123  67.2149372  63.1804609
   8.0157357  68.0770683  64.2570257  43.2309580  40.7058859  90.2054882
  43.0524111  41.0670662  91.0737610  42.8907251  41.3628912  89.5981789
   5.4601127  47.6170301  91.4904213   5.2116001  47.4137974  92.3921776
   6.2606972  48.1350899  91.5735722  76.4368582  82.4686623   8.3419400
  76.0882998  81.7968750   7.7559090  76.9313478  81.9796371   8.9996350
  55.2961826  95.2220631   2.0964627  55.9995794  95.8021927   1.8050495
  54.5040083  95.5913067   1.7061439  50.3218985  61.8680048   7.9161298
  51.2429428  61.7062235   8.1204349  50.3425694  62.5296068   7.2246897
  65.7889414  76.6812420  36.0291553  66.2564564  76.8595839  35.2131557
  66.2752867  75.9616327  36.4314818  28.1780076  28.2549024  87.0222950
  27.4051785  28.7254691  86.7099857  28.4496784  28.7336111  87.8054047
  45.4679251  13.2687736  94.7134781  45.1791954  12.3575759  94.7643185
  45.3529644  13.5054612  93.7931538   6.1287785  82.5656605  53.6176062
   5.4399073  83.1582355  53.3167124   6.6245019  83.0789852  54.2555618
  82.8870773 103.2616997  85.9472466  83.2529831 104.0730667  86.2994289
  83.6332417 102.6642132  85.8975410  31.3043594  83.3787823   9.8145902
  32.0275354  83.9962292   9.7050059  31.2756228  82.8946781   8.9893383
  33.9420748  45.7541895  79.6997690  33.0772471  45.7184124  80.1084518
  33.7747836  45.5949306  78.7708521  80.0551414  88.8223457   1.2048364
  80.9625530  88.7264156   0.9156349  79.5663834  89.0069294   0.4027920
  21.0225129  22.2477460  46.6008186  21.3526464  23.0695081  46.9640732
  21.7099285  21.9576502  46.0012054  34.7088456  40.6958342  73.3900023
  34.5386672  39.9605131  73.9787102  34.0539694  40.6050062  72.6978207
  40.3417683   5.8577907  58.4803343  40.0740862   6.7639226  58.3270311
  40.2663898   5.4375672  57.6236200  65.4951191  31.3562751  50.6191683
  65.8257103  31.5546465  49.7430468  65.1916552  32.1988487  50.9571171
  44.4259313  26.7911495  95.0289166  43.6665204  26.5341152  94.5059948
  44.9988511  26.0245289  95.0121553 110.1744080  90.2111435  74.0060139
 109.5988178  90.9673977  73.8919640 109.6906185  89.6279907  74.5909166
  57.5088596  82.9684544   1.1722791  56.8008852  82.7562618   0.5640193
  58.1478453  82.2662544   1.0504104  19.5774460  21.8873715  77.7910233
  20.1007724  22.0830083  77.0137930  19.2945933  22.7439594  78.1111526
  89.7730160  69.6475649  49.4791317  89.1895103  69.5315313  50.2289867
  89.5066261  68.9671659  48.8608074  44.7117996  63.6627388   6.4369160
  43.9656687  64.0482426   5.9776664  45.1845884  64.4128036   6.7976147
  14.1567981  24.4470739  75.6452894  13.4870028  23.9540172  75.1714706
  14.5512581  23.8069558  76.2376404  22.0023966   6.8887728  89.7581100
  21.4749026   7.3033500  90.4408264  21.4089656   6.8108577  89.0111160
  11.7047548  25.2963972  86.9715595  11.6699803  24.5440030  87.5622559
  12.3321986  25.0411439  86.2952518  12.1135151  23.0898929  74.5731544
  11.9888258  22.5358033  73.8026524  11.3086605  22.9805350  75.0795937
  74.2987823  77.3601103  34.7352552  75.2081251  77.6463175  34.6491241
  73.8119030  78.1625414  34.9231100  65.0397062 107.9614449  11.7172754
  65.7500458 108.5021973  12.0625699  64.7608948 107.4283314  12.4617803
  25.9896541  16.4280832  86.6769886  26.6137338  16.1739039  85.9971714
  26.3118577  17.2716022  86.9946289 108.2373905  16.2224734  60.3472900
 108.9529610  15.6638336  60.6507778 108.3636570  17.0483673  60.8143950
   6.4198965  22.7555966  67.8516436   6.4974630  22.3879981  68.7320328
   5.9331381  22.0952773  67.3584080  64.0732479 105.2072620  87.1798420
  63.8036060 104.6308708  86.4647865  63.9857721 106.0905170  86.8214703
  28.9770555   8.6229461  84.8410702  29.1797853   8.5335135  85.7722664
  29.4947934   7.9389250  84.4164562  38.2985687  17.2523916  91.0238934
  37.5714970  17.1395504  91.6361523  37.9816365  17.8977871  90.3920269
  17.0480204  15.1341462  92.7601719  16.5575933  15.3775132  93.5453415
  17.5499618  15.9184861  92.5385952 101.4071083   8.4403467  86.1118603
 101.0329437   7.7576244  85.5549812 101.5674686   8.0052328  86.9492340
  25.4096651   0.4836782  87.1194458  25.6453252   1.1736732  86.4992809
  26.0373163   0.5807140  87.8355980  48.9367247   3.8581267  59.3609238
  49.7630787   3.5667139  58.9756346  49.0646219   4.7927281  59.5233870
  99.6304321  61.9793081   4.5467070  99.5525360  61.5295362   3.7053591
 100.2567005  61.4522839   5.0429571  98.9366627  48.1915379   5.4170275
  99.0772533  47.6554108   6.1974341  98.7172222  49.0584707   5.7583570
  32.1028900  22.8997970  93.7386513  31.2781549  22.4248505  93.8409519
  32.2031546  23.0045962  92.7925014  31.9605184  37.7297592  88.4800911
  32.0151734  38.6478233  88.2147503  31.5767431  37.2845411  87.7246189
   3.6338204 107.3340034  83.1808281   2.8806138 107.2995377  82.5911522
   3.2735041 107.6438236  84.0117455  24.1932106   5.9250295  70.9319592
  24.1877413   6.8704391  71.0816383  25.1046348   5.7209736  70.7224417
  67.8004980  35.7169986  14.3927014  67.0095682  35.1838565  14.4728172
  68.2549477  35.5981588  15.2267182  20.7193494  28.2043219  83.4302902
  20.7194114  27.8786826  84.3303967  20.9703898  29.1246963  83.5085487
  81.3554955  71.4279366  15.2979004  81.1849594  71.3876343  16.2389243
  82.3068047  71.5094757  15.2301586  91.9426632  80.7792568  10.0855410
  91.1602783  80.6155777  10.6121576  92.5811005  80.1389980  10.3997135
  55.7273197  65.1379681   6.6244483  55.1635551  65.7262611   6.1221397
  56.3300037  64.7727299   5.9766817  15.3183663  21.9968534  92.6821804
  14.6575058  22.0447135  91.9913769  15.3534400  21.0693765  92.9162502
 112.9892063  92.6406574  79.6907520 112.3880196  92.2300434  80.3122044
 112.9853630  92.0567226  78.9323044   4.2940593  18.6617923  88.5906219
   4.8827431  19.3923593  88.7802410   4.0045217  18.3579957  89.4509125
 109.7038078  18.8896394  80.3175259 110.3326416  18.8361669  79.5978451
 110.1824474  19.3267810  81.0218239  27.3190856   0.9102359  71.7627430
  26.9171047   1.7357789  72.0331526  27.4996233   1.0260005  70.8298779
  23.8037872  21.3305616  88.5261440  24.7100139  21.5010047  88.2693768
  23.5519862  20.5592322  88.0183315  72.8484678  88.1904411  78.6404991
  73.5521030  88.8112640  78.4515381  72.8984118  88.0524540  79.5863819
  71.2140226 102.2414207  94.5053577  71.4036512 102.1407413  95.4381657
  71.3660574 103.1698418  94.3288708 105.6422234 102.0922184  86.1196899
 105.3736782 102.0844460  85.2009678 105.5945301 103.0134010  86.3753796
  81.6895580  75.2809048  15.4346228  81.6081619  76.1967802  15.1685739
  82.0955753  75.3182364  16.3006389  71.0874176  73.0326223  14.3722463
  71.4994478  72.3174572  13.8874722  71.8207979  73.5457659  14.7114670
  50.9957695  62.3573208  26.1365032  50.6227970  61.5300894  25.8318496
  50.2598810  62.9693890  26.1279678   6.7479974  29.1621089  71.7505693
   6.3347614  29.9790382  71.4711142   7.6593673  29.4005251  71.9202566
  37.7034616  19.6552789  79.7275066  37.7061939  19.4894338  80.6702232
  37.0801044  20.3724837  79.6122932  47.8886366  14.6207154  93.1560040
  48.0082226  15.5347776  92.8982735  48.4028864  14.5287716  93.9580727
  74.8692703  49.2620468  36.7547727  75.1399565  48.8200283  35.9500480
  73.9362526  49.4358921  36.6303349  80.7704639  88.7756729  11.1944079
  81.7269993  88.7926960  11.2257707  80.4965687  89.2155552  11.9992137
  20.5118251  39.7096229  79.3867207  21.0753608  39.0016222  79.6988010
  20.7068300  39.7766280  78.4519911 112.9411411 102.5050640  59.3006039
 113.0854511 102.0928574  58.4488487 113.0860233 101.8024731  59.9343300
  77.1419430  62.7877569  14.9733055  76.8337679  63.4930754  14.4042802
  77.2548962  63.2021809  15.8287156 105.2900314  96.6536045  90.1556015
 106.1690807  96.3223553  89.9718475 104.7308254  95.8772373  90.1276398
  52.4301624  32.2738671  25.4464555  52.6714611  31.8358779  26.2626481
  53.2264090  32.7307153  25.1753163  86.7820740  96.9044018  80.2972126
  85.9115219  97.1542168  79.9874449  86.6602612  96.7160797  81.2277699
  12.4052978  23.9918232  84.2324257  11.5579891  24.4321275  84.1658497
  12.2143984  23.0743122  84.0375710 106.1421108  29.1810584  86.1129093
 106.4244747  29.4587040  85.2414703 106.4093494  28.2637143  86.1703205
  35.4847765  13.2354438  63.2594490  35.6472516  12.8748906  64.1311359
  35.5146050  12.4764729  62.6769495  16.9640481  75.6051350  94.3472862
  16.9710279  75.1961613  95.2126884  16.9257271  76.5445995  94.5266533
  15.6725383   1.0147474  58.8518620  15.1960862   1.4232743  59.5745897
  16.0654211   1.7483899  58.3789539  96.0611455 109.5377464  38.2917714
  96.1838083 110.4819644  38.1935978  96.7914383 109.1499352  37.8095818
  85.3593826  90.5534077  67.8537416  85.6955338  90.3168011  68.7181759
  85.4719162  91.5026951  67.8046036  11.6569960  43.6714220  86.4483261
  11.8359911  42.7371693  86.3417149  12.5222349  44.0803242  86.4681721
  73.1008196 100.5607796  53.8943195  73.9866829 100.5034542  54.2523527
  72.7365255  99.6838665  54.0149450 108.2661915  89.8413944  61.4435244
 108.6876106  89.9781990  60.5950451 108.6314583  89.0159512  61.7620516
  26.0035229  57.9450893  65.9417820  26.3433051  57.0670128  65.7692671
  26.5895367  58.5278320  65.4588366  23.7134957  86.9672966  53.6246109
  23.8677430  87.8884888  53.4152269  23.0168509  86.9842243  54.2808342
  51.6013193   5.2225924  40.6411886  51.8896627   5.9950161  41.1274481
  51.6856527   4.5015556  41.2650681  73.2371712  76.3138151  13.1115913
  73.5372686  76.0179663  13.9710367  72.2823906  76.3175821  13.1795216
  83.3726692  68.7305260  12.6125777  84.1102028  68.9565992  12.0458639
  83.1603527  69.5462275  13.0662119  45.3716946  78.1315517  18.5187876
  45.3218508  77.2862053  18.9650309  45.6111050  78.7520361  19.2071998
   6.3497317  45.3460503  48.1635475   7.2699136  45.0885582  48.2200575
   6.3078123  45.9184980  47.3975372  82.2730541  69.9317551  51.4631701
  82.0028019  69.2795229  52.1095371  83.1724262  69.6906757  51.2412500
   4.9335706  30.6267810  60.7283497   5.4076028  30.6935573  61.5572453
   4.1996425  30.0424838  60.9185600 105.0951290  72.4604654  58.5487080
 104.6338081  72.9373407  59.2386341 105.4971218  71.7174482  58.9987803
  10.2139843  76.4035273   7.9038209  10.0810587  77.3138380   8.1681991
   9.5169365  76.2339401   7.2701037  93.1186581  54.6825457  50.3960371
  93.9828396  54.4042397  50.6992960  92.6224232  53.8688326  50.3073740
 100.6253242  95.0178719  28.7419629 100.1317978  94.5664883  29.4267488
 101.5215302  94.6966648  28.8413405  23.6787367   9.5519245  28.9720154
  24.0225244   8.7597924  29.3850160  24.1920638  10.2635586  29.3545127
   9.7892427  70.3295279  47.7736568  10.3532863  70.8464718  47.1984529
  10.3687644  69.6617794  48.1403923  47.4288654  25.0223732  28.1378412
  46.9125271  25.1162624  27.3373365  47.2661161  25.8306885  28.6240196
   4.7335529  56.5249443  33.7812996   4.5287648  55.9366751  34.5080948
   5.1098090  55.9550333  33.1105828  58.3963776  14.5481992  51.4572334
  59.2773533  14.7882771  51.1700392  58.2533407  13.6766613  51.0881901
 107.1314335  72.8114319  40.5156708 106.8995857  72.6386547  41.4281559
 106.6726017  72.1335554  40.0194931 111.0493088  57.9806137  14.3995357
 110.8088493  57.8607893  15.3182578 110.4484272  57.4116039  13.9185023
  34.2661572  86.1212158  39.2440915  34.2660356  85.8008003  40.1460695
  34.6398067  87.0005417  39.3023324  67.2886229  73.4102392  34.0056348
  66.6775417  73.8100338  33.3867860  68.1530952  73.5759258  33.6295152
  11.7893040  95.4168606   9.6657723  11.3322866  96.2429333   9.8238140
  12.1016479  95.4847527   8.7635171  33.0242538 100.9872341  35.4728627
  33.7921357 101.5571213  35.5155134  32.2966433 101.5795422  35.2831554
  69.9772120 105.0053406  59.0132475  70.8891249 105.2041435  59.2256784
  70.0305414 104.3285465  58.3384562 112.9932117 103.1595421   9.6416581
 113.9073753 103.0368423   9.8975629 112.5054932 102.5503635  10.1959658
  77.3902321  70.5674505   4.6786028  78.0976248  70.4594421   5.3143418
  76.7837048  69.8524761   4.8713982  28.3375335  67.7297258  10.1678610
  28.8728619  68.3892536   9.7266358  27.6266694  68.2284927  10.5705214
   1.2568416  92.8423405  51.3584661   1.7657410  92.7946663  52.1677780
   1.8091586  92.4165630  50.7028055   9.5316833  75.0628519  36.9856501
   8.9339715  74.7625065  37.6703143   9.6054268  76.0063696  37.1290731
 114.6545887  97.7146149  47.6274300 114.8917484  96.9511223  48.1538057
 113.7288857  97.5851440  47.4211645  30.2527618  81.1158371  18.3795071
  30.4908466  80.6258678  17.5924361  30.9407520  80.9043884  19.0105331
  53.2910395  20.3532648  48.7738037  53.5284376  19.4583106  48.5310459
  52.8412533  20.6992197  48.0029345  37.1068001  12.1531045   1.3822855
  37.2605824  11.5860200   2.1379298  37.9824281  12.3573852   1.0539944
  97.1464539  69.1282654  49.2147112  98.0959702  69.2428827  49.2534971
  96.8483353  69.2951488  50.1088619  72.0886755  30.4527831  87.5487328
  72.5408697  30.6807590  86.7364597  71.7430067  31.2847733  87.8720570
  16.8699014 108.6481190  36.4618731  17.1878743 108.1469440  35.7109046
  16.3442659 109.3492413  36.0766888  10.6757617  71.7927122  36.8536925
  11.0589314  72.4013710  37.4853110  10.5330980  72.3209047  36.0682678
 108.3265495  92.2727489  37.7806282 107.9007053  91.5546513  37.3124266
 107.8107738  93.0463028  37.5529814  12.8031945 103.9396381  25.7943153
  12.2989845 103.1282234  25.8544087  13.7135196 103.6645889  25.9033322
   8.7252265 105.2200794  46.2671328   8.3794439 105.7262421  47.0022917
   8.4328759 104.3241405  46.4346409  54.4473219  41.0150051  90.9568501
  54.7145224  40.4568148  90.2266026  55.1255465  41.6888189  91.0039139
  76.4908123  21.5278673  17.3736072  76.6139221  21.7347074  18.3000481
  77.3297977  21.1593843  17.0969236 113.5219002  46.8993950  33.3977985
 114.0868092  46.1327410  33.3010674 114.0911388  47.6429129  33.1993461
 103.9493084  69.5673752  19.5601749 103.3443642  69.0150833  20.0553918
 103.3835030  70.1740742  19.0826654  92.5502968  71.8999243  46.7286348
  91.9510460  71.1537075  46.7116070  93.1932449  71.7063999  46.0464287
 102.3684788 101.9748116  38.6811948 102.8334904 101.3956261  38.0774164
 102.8015995 102.8225422  38.5812759  13.5766959  68.4857941  55.5205870
  13.0445862  67.6916885  55.5704832  14.2111206  68.3940506  56.2314463
 100.9625435  24.0918589  83.2835484 100.1906204  23.7401795  83.7270451
 100.9912205  25.0119042  83.5460949  21.7191315  76.1090040   1.9816780
  21.3297462  75.2404833   1.8802851  21.0750866  76.7061472   1.6010785
  15.5797446  94.3093777  55.3407860  15.5052555  94.4306564  54.3942261
  14.8260260  93.7668705  55.5727911  14.0275955  61.6666842  29.2847371
  13.4495974  61.8341494  28.5403538  14.8737288  61.4580774  28.8887882
  33.2640243 105.9817219  28.1429529  32.8631234 106.5806770  28.7728453
  32.5883484 105.3253460  27.9730844  90.8897495  51.7723513  34.5684195
  90.4003811  51.4346886  33.8182640  91.8084049  51.6404963  34.3340898
 115.6237662  84.6143341  31.4938641 116.3759487  84.0490150  31.3181877
 115.8724423  85.4639149  31.1297011   4.2797408  77.2105742  56.4958620
   3.9245245  77.5125313  55.6598759   4.2378911  76.2557507  56.4429998
   3.2582477 106.1151981  12.3440540   3.3817169 107.0571232  12.4613869
   3.8439640 105.8848667  11.6228652   3.2167915  53.6707401  91.6610527
   3.0130410  53.1004477  92.4023151   4.1604641  53.5716867  91.5349483
  65.3294230  43.9924955   4.2534965  65.8160734  44.5496988   4.8608914
  64.5201874  43.7806320   4.7187716  36.5911579   3.3607766  53.3636761
  37.1982121   2.6280919  53.4680367  35.8148623   3.1011692  53.8598633
  96.0758495 105.3922844  11.5176988  96.5395069 105.5226135  12.3449075
  95.1589680 105.2860165  11.7712033  70.3007078  62.7184486  26.8484545
  70.8686447  62.0997286  27.3076558  69.6187878  62.1725416  26.4570427
 106.5579605  68.2808208  56.4252615 107.1166706  68.8729048  56.9287634
 105.7976627  68.1328106  56.9876385   7.5727308  89.5823002   9.5875764
   8.1690550  89.4119930  10.3167009   6.8709004  88.9407158   9.6972799
  12.4228466  81.0227299  81.7167950  13.1286752  81.6185665  81.9678307
  12.8562033  80.1791191  81.5874004  60.2684259  90.6372547  13.7020528
  60.2974606  91.5734673  13.8992786  61.0138798  90.2692986  14.1765428
  13.3230698  50.9377527  60.7798481  13.1199968  50.7888842  61.7033386
  13.7330234  51.8025208  60.7611465  41.4061022 105.3707790  81.6157722
  40.8244896 105.2828026  80.8606434  42.2714329 105.1367092  81.2801552
  22.0627999  82.0090675  24.0827632  21.6016650  81.1702633  24.0818691
  21.6646552  82.5005054  24.8012352  16.7104101  83.8665962  50.8697605
  16.4382732  84.7817421  50.8014297  16.5466058  83.5024166  49.9998331
   2.6867828  98.5053158  36.7490125   1.9076487  97.9927540  36.5334725
   2.3483895  99.3713474  36.9764328 101.1742401  64.8668671  31.3157701
 102.0385647  64.4607973  31.3811207 100.6247520  64.1965008  30.9096932
  11.3866007  62.6289654  40.7259655  10.8590329  61.8388081  40.6095552
  11.1287248  62.9648161  41.5844202   9.5104802  66.7570162  38.8283706
   9.2254978  66.1165142  38.1766248   8.7523478  67.3285866  38.9499235
  24.3566656  72.6214981  28.9626694  23.8626003  72.0473766  29.5479155
  25.2662373  72.3409033  29.0635300   8.5024154  78.3527613  24.2682552
   8.5706037  77.9729795  23.3922720   8.2313442  77.6230288  24.8252463
  36.2823057  87.7466583  23.6601973  36.2373090  88.0540180  24.5655894
  37.1842504  87.9223824  23.3921528  19.5651364  12.0796168  48.5248709
  19.4979751  12.4173880  49.4179726  19.7991264  12.8430712  47.9970264
  18.8690877  47.3234844  15.7214022  18.8572359  48.2708788  15.5852509
  19.6321213  47.1711588  16.2789035  51.3679028  19.4550550  41.2578773
  51.8445587  19.0176046  40.5524206  50.4868841  19.5850635  40.9069633
 107.5075626  91.8202782  41.5436411 107.1967220  92.2016144  42.3647261
 106.8257236  92.0343781  40.9068584  98.0557251  97.0716000  66.7196083
  98.3669472  96.4816093  67.4061108  97.1044159  97.0812798  66.8252468
 110.0322437  93.1563663  10.2786863 110.6290627  93.5110760  10.9376359
 109.8553467  93.8934708   9.6942067 103.3301926  65.4170942  27.7730966
 103.5033894  65.0597954  26.9021392 102.4405003  65.1291704  27.9775214
  17.6727569  72.8046417  31.6362000  17.8289747  73.7328720  31.4623785
  17.5736105  72.4119329  30.7689166  16.4245868  72.0011663  16.4682412
  16.1248755  71.1206961  16.6944599  17.3796690  71.9377327  16.4732671
  95.1972008 101.4065075  26.9569397  96.0511875 101.7983437  27.1396875
  95.1559734 101.3566685  26.0019279   8.3271384 103.8468933  17.6301038
   7.3938704 103.7600136  17.8242552   8.5640728 103.0167198  17.2167075
  33.4026670  96.1062145   1.0438985  33.9805317  96.5357685   1.6745996
  33.0584311  96.8213081   0.5087598  88.0635357  92.9297352  72.7454376
  89.0109730  92.8076363  72.8060627  87.9539490  93.6473656  72.1215582
  83.2842731  63.0084515  27.0726275  83.8829803  63.1783199  26.3453555
  82.4123859  63.0499840  26.6797996  30.3860950 101.9369984  63.6870193
  31.0466480 101.5108013  64.2331553  29.8923397 101.2139606  63.3001804
  51.8293953  21.2250495  61.1103582  52.6758385  21.4156508  61.5146399
  51.4978933  22.0795774  60.8344603  63.9172697  82.0853996  45.7775354
  64.6374702  82.5504017  46.2033367  64.1799116  81.1652088  45.7997894
  17.8015900  60.8319950  68.8063908  16.8499768  60.7763386  68.7194014
  17.9402637  61.4210796  69.5479965  32.3524570   3.8878733  74.7933245
  32.1911335   3.5498607  75.6742096  33.2908487   3.7588906  74.6554232
  91.5906143  42.6631927  88.6263847  91.5957069  42.5080490  89.5709133
  92.1052361  41.9427681  88.2625484  15.0597787  99.0721893  55.0921106
  14.1486561  99.2539120  54.8617554  15.5506766  99.2568493  54.2913914
  15.2044415  91.7938900  26.4828634  14.4052076  92.2690392  26.7102289
  15.1242292  90.9572601  26.9409490  96.1421394  50.6004095  91.2390423
  95.7161999  49.7892761  90.9617805  97.0785522  50.4179907  91.1610317
  20.1525521 102.4790478  25.8485317  19.3805969 102.5569248  26.4091158
  20.8609033 102.8689384  26.3608408  45.6776333  12.8955996  33.9582396
  46.4662266  12.7479386  33.4361815  45.6012249  13.8481998  34.0125322
   4.2987257  86.6963577  25.1796341   5.2112204  86.9384193  25.0215554
   3.8203597  87.5243282  25.1364827  20.4108834  78.8415384  51.6383553
  20.6616592  79.5352173  51.0283089  20.3988647  79.2686558  52.4948931
   1.9475739  94.0970898  61.6284227   2.6203951  94.2504215  62.2917700
   1.9423434  93.1475639  61.5075874  22.6575232  60.3216410  11.7028558
  23.3676457  59.8737717  12.1626103  22.1783304  59.6204758  11.2613010
  52.2307777   3.8776714  58.6422110  52.0824099   4.5147586  59.3410254
  52.4682808   3.0711836  59.0998173  69.1961813  91.4665127  17.0875442
  68.4079552  90.9511948  16.9161201  69.9127388  90.9260082  16.7549133
  14.7291851 109.1347218  20.1128149  14.1217220 109.7914314  19.7722960
  14.1935265 108.5883427  20.6879425   1.9794698  68.2752943  45.2309322
   2.5094333  67.4911118  45.0879860   2.1844873  68.5428953  46.1268044
  16.0419548 103.9514828  23.5121107  16.8559635 104.0930367  23.9954162
  16.2328780 104.2591953  22.6260591  16.4023077  64.3680954   1.8923262
  17.0860004  64.0767431   1.2890771  15.6598127  64.5822144   1.3274488
 113.3426189  87.7953148  62.8481007 113.0381870  88.4784794  62.2507429
 113.0717087  86.9763088  62.4333096   8.4528327  80.2342510  34.5981479
   7.8973162  81.0030746  34.4695401   9.3166083  80.5086613  34.2902231
  48.1941605  11.2100482  55.5433655  49.0114832  10.7409155  55.3756428
  47.5570488  10.7971859  54.9603844  64.4839239   9.6420699  57.9011202
  65.3550720   9.8456538  58.2415342  63.9278507  10.3494728  58.2276154
  95.8752918  65.0671387  30.4275703  95.4691410  65.9300375  30.3458452
  95.4327011  64.6638680  31.1743760  13.8827693  87.6418877  43.4799719
  13.9150608  87.8962612  42.5577593  12.9526818  87.5013733  43.6572456
  20.4485250  77.6286268  46.0968685  20.9951544  76.8439817  46.0549116
  20.7105231  78.0598402  46.9102859  19.4833672  89.1106319  18.6137986
  19.1629457  89.0551376  19.5140672  18.8444197  89.6650410  18.1659031
  54.1797686   8.7902260  16.1444032  53.9094687   8.8357061  17.0615196
  55.1335049   8.7166506  16.1791623 106.7554569  75.6499767  14.1469061
 106.4396477  75.6350994  15.0503862 106.2702847  76.3651371  13.7353408
   8.9718336  88.5694981  25.0971222   9.5104080  89.2887115  25.4271173
   9.5972651  87.8712273  24.9034810 114.9209785 107.5447273  24.1141701
 115.1030922 108.1591415  24.8251915 115.0269318 106.6803646  24.5115161
  22.8489089 108.4566593  49.0845108  23.2185483 107.7951622  48.4996796
  23.5070372 108.5638428  49.7712469 106.3714123  86.8549538  24.8865843
 107.2969913  87.0846081  24.8041892 106.2287045  86.7700386  25.8292699
  19.9584365  62.1264935  23.1622410  20.0171614  61.3935614  22.5493836
  19.4065607  62.7685213  22.7156234   8.1686419  96.6806507  48.0592966
   8.1950706  95.8138561  47.6540756   7.4271423  97.1181202  47.6409292
  47.9335880  18.1130135  21.9709396  48.8887787  18.0702221  21.9261360
  47.6389742  17.2801900  21.6023755  66.1670256 103.5805988  47.7008295
  67.0056295 103.2016277  47.4374723  65.6708193 102.8421402  48.0539370
  14.8879838  11.9918072  14.3003488  15.3149927  11.1519659  14.1313457
  14.9420393  12.1012259  15.2497363  67.9433441   4.7248590  34.4514441
  67.9770613   5.4058981  33.7796688  68.3251047   5.1348907  35.2275658
  37.0670128 108.0516815  56.6133404  36.5016270 107.3883724  57.0090532
  36.5717316 108.8669109  56.6928577  62.3975325  12.6211083  41.0568190
  62.5552654  11.6893053  40.9048462  62.2531652  12.6887763  42.0006466
  71.3861322  16.5122390  33.0068231  72.2504997  16.1836326  33.2540345
  70.7725430  15.8911836  33.3992934  26.8946481  72.7499771  25.6835079
  27.3073459  73.5447979  26.0214067  27.2666264  72.6404333  24.8083711
  15.6479752  48.0570078  52.0956469  15.2719200  48.7592936  52.6263189
  14.9045026  47.6989985  51.6105604  14.0733588  62.7804565  34.5154142
  14.1858137  62.9082918  33.5734773  13.3539498  62.1532059  34.5877910
  19.9734664  91.0816288  85.2565289  19.1620338  90.9953499  84.7561741
  19.6868408  91.3170910  86.1389351  24.0699866 110.0705146   3.7880868
  23.5103467 109.2940509   3.7763605  24.9389842 109.7360897   4.0099713
   3.1450927  69.1515160  83.7421894   2.5544345  69.4855070  83.0670643
   2.8427634  69.5649767  84.5508194  20.1071191  50.2254152  80.4888630
  19.6454477  49.5949364  79.9360657  20.5044174  49.6935272  81.1784172
 116.4390564  76.6590738  10.5367351 115.5723763  76.6383123  10.1309597
 116.4207649  77.4318647  11.1012661 104.0323353  86.6653538  43.8003635
 104.1595459  85.9172726  44.3838167 104.8764706  87.1166515  43.8020134
 113.8360596  95.2174664  60.0128651 112.9248047  94.9336529  60.0856876
 114.0562248  95.5423737  60.8859015 100.5612469  97.1043491  35.1377654
 101.4180470  96.7747498  35.4088664 100.0290585  96.3178158  35.0178289
  38.5954285 101.5219975  22.1294332  37.9424238 101.9338417  22.6952934
  38.9854789 100.8372498  22.6727772  51.7406273   0.2564872  39.7328734
  52.0701838   0.5812495  38.8949275  52.4278879  -0.3296827  40.0495863
  79.0502071   2.1878785  36.6400504  79.9840546   2.0338202  36.4971304
  78.9648581   3.1410772  36.6590309  51.1578465  11.2639678  34.7533298
  50.6843758  10.6143057  34.2337132  50.5112886  11.9476044  34.9289393
  97.1791935  94.0831089  61.6047049  97.0572758  95.0273418  61.7036629
  96.3495541  93.7029266  61.8934727  24.3356442 104.8532963  48.7138987
  23.4766650 104.4321346  48.6821461  24.5249009 104.9412251  49.6480751
  49.2958069   3.5935125  25.7109380  48.8968420   4.4112030  25.4135537
  49.4661093   3.1036353  24.9064207 111.1216354  79.2995071  39.5558667
 111.7233372  79.7865629  38.9928627 110.7174778  79.9677992  40.1092863
 108.1628418  77.4655056  43.9146423 108.1429100  76.8095875  43.2177877
 109.0893364  77.6867723  44.0088701  96.2276745  94.4576454  32.2316194
  96.7047215  95.2754211  32.3727083  96.5825272  94.1115761  31.4127493
  17.6933908  87.3685551  11.8579304  17.3767483  87.0015621  11.0325325
  18.6471927  87.3333263  11.7854524 115.2005863  39.0936470  93.5605621
 114.5139503  39.7589350  93.6069202 114.8465538  38.4244657  92.9748249
   8.4989154  98.2744694  58.1718874   8.0939180  98.9975166  57.6929092
   8.9634377  97.7734756  57.5014782  90.9466743   5.7268113  13.9919400
  90.0952625   5.6698668  13.5582590  91.5471363   6.0139745  13.3040321
  21.1655974  63.3837795  62.9926586  21.8248844  62.7632809  63.3033800
  21.1874318  63.2991314  62.0394564  23.5933113  85.6956959  20.3191733
  22.9669333  86.3506031  20.0109887  24.0088201  86.1011696  21.0802102
 115.5637360  79.7100925  11.5070498 114.6999836  79.8483276  11.8957198
 116.1175728  80.3786373  11.9102144   0.6463873  49.4044495  41.6869688
   0.9042752  50.2515459  41.3234425   1.1704604  49.3158865  42.4830437
  53.2335186  10.6267273  36.3257194  53.2372379  11.3336849  36.9710326
  52.4890184  10.8248758  35.7576632  11.0648084 105.4543781  53.6935186
  11.5509617 104.8061752  53.1838894  10.9085059 106.1727619  53.0805588
  29.2115688  93.8023853  39.3911529  29.0456843  94.3963337  40.1232338
  29.8147011  93.1487274  39.7449732 110.7855320 100.7457829  29.3670106
 110.4362583 100.3881359  28.5507226 110.0265121 100.8035374  29.9473381
  15.0160873  72.4007893  38.6627197  14.8139584  73.2708073  38.3185625
  15.0729215  72.5252390  39.6100926  13.6735320  99.2590427  43.9723969
  13.6391056 100.0367355  43.4153986  13.8589883  98.5399246  43.3684921
  98.1924534  81.0522270  53.4985113  98.6365986  80.7936764  54.3060493
  97.2606850  81.0102463  53.7136316  66.4032793  24.5050001  63.9482212
  65.5215311  24.8408675  63.7871504  66.3819170  23.6073184  63.6166430
  50.7986546  91.4547539  34.2151856  50.5127287  91.0983658  35.0562906
  50.5899000  90.7688427  33.5810137 114.4582367  95.0132942  24.5894790
 114.6778393  94.4288349  25.3150296 113.9259720  94.4765663  24.0022421
  92.7466965  46.1774015  90.7729626  93.6831665  46.0046625  90.6758881
  92.4269104  46.2749863  89.8760509  17.6616681  63.0592155  41.0874653
  18.4683895  63.0153513  40.5741358  17.8543973  62.5579166  41.8797970
 108.9566612  73.1312418  27.0525122 108.3328438  73.5933971  27.6124167
 109.6313286  72.8167582  27.6543093  39.4578576 104.7389412  40.4831600
  40.1012039 104.8413754  41.1844730  38.6870313 104.3729019  40.9168339
  22.5893354  11.3940394  54.9567699  22.0870042  10.7154560  55.4077911
  22.2349763  12.2173905  55.2925587  48.6670780  16.2191367  24.7822857
  48.4775686  15.4258525  24.2812681  49.1979456  16.7540455  24.1921329
  12.4950337  74.6744251   4.5401347  12.4598336  75.3000212   5.2637517
  12.5725877  75.2186775   3.7565508 109.6362495  63.8773108  57.8635597
 110.4614258  63.5412264  57.5137520 108.9651108  63.3164930  57.4745989
   7.5625175  54.5962954  13.5915804   7.6760304  54.4879103  12.6473343
   6.7561626  55.1045895  13.6790991  88.2967472  55.7198763  30.4924870
  88.0493450  54.9297142  30.0122070  87.7228928  55.7240534  31.2585783
  86.0766602  65.7173681  26.8067884  86.8686295  65.8335733  27.3316932
  85.3655434  66.0052729  27.3792005  83.3275700   3.7424064  83.8191700
  83.9674282   3.7183309  83.1076717  83.2380295   4.6719286  84.0294170
  94.9226284  89.3366909   4.8303559  94.9227238  88.3826923   4.9085367
  93.9960384  89.5768452   4.8296195 101.3803196 109.5009422  30.7043219
 100.4935932 109.8163223  30.8789420 101.8577003 109.6660519  31.5173841
  12.3213434  49.7003794  35.5563569  12.8581810  50.0100946  36.2858200
  12.9152584  49.6987152  34.8056936  19.5627022  85.3034210  11.5136051
  19.1223109  85.1608944  12.3514450  19.5899546  84.4373131  11.1069643
  14.3109953  94.6879864  10.2630234  13.4603763  95.1193810  10.1819050
  14.1754293  94.0145779  10.9296405 109.6332455  36.6154552  27.5333405
 108.7407970  36.9031715  27.3410559 110.1907253  37.2972465  27.1583581
   7.8756869  51.7635822  43.1665421   8.3324081  52.1389914  43.9193392
   7.6078624  52.5213242  42.6466084  98.4010124  95.3497982  10.9722424
  98.0156040  95.3806114  10.0966036  99.3150616  95.6016064  10.8406079
 104.1866398  92.4568462  22.6681089 103.2750607  92.6506519  22.4496984
 104.6799660  93.1978798  22.3163438   9.9313265  31.1662936  24.7428250
  10.4627573  31.2970591  25.5281377   9.0897524  30.8515024  25.0728106
  99.4434261  51.6002941  34.9788022  99.5193386  51.1999035  35.8449173
 100.3177738  51.9446325  34.7966480  95.6671429  63.8034630  49.4821548
  95.6936264  63.0980968  50.1286745  94.7387123  64.0234184  49.4055557
 102.6852989  48.5914803   2.4268715 102.0825577  49.2703676   2.7302593
 103.2547569  48.4238052   3.1777582 113.1947803  58.3441448  22.5151062
 113.6965370  58.0586243  21.7515898 112.2815514  58.2999992  22.2317457
  13.1762874  79.2990112  16.4607656  13.0625093  79.5469236  15.5432546
  13.4054434  78.3701181  16.4312351   9.2372692  64.1858625  13.1076932
   8.8327801  63.5794687  12.4872851   9.1106898  65.0497532  12.7153790
 103.2387352 101.8367672  22.5051522 102.2817898 101.8199158  22.5190973
 103.4644890 101.8521500  21.5750813  28.8432479  43.6829185  40.1894379
  29.3374443  43.8692236  39.3911314  28.3810425  44.4989634  40.3809357
   4.2578346  99.2962933  82.6550388   5.0813037  99.0762711  82.2194767
   4.0760463 100.1959229  82.3832798 111.2659454  43.6415339  44.1872120
 111.2563324  43.5665846  45.1414251 111.9943810  44.2338657  44.0008116
  92.6979733  92.8768063   4.8468068  92.1951962  92.1931076   4.4040808
  92.1230698  93.1798077   5.5495930  55.4426765 107.8640461  90.6048012
  56.1138678 107.8417778  89.9227142  55.1408958 108.7723827  90.6142902
  93.0740261  16.6074300  90.6152058  93.3617210  15.7160735  90.8125496
  93.8156605  17.1590841  90.8639622  17.4351525  36.7712784  15.2824879
  17.1493900  35.9717703  15.7244813  17.2476530  37.4709630  15.9082019
 113.3476639  54.8924112  42.4686861 112.5330162  54.4203997  42.6412725
 113.3022022  55.1167679  41.5392637  44.2081547  90.4173470  18.0711472
  44.7101402  90.8784103  17.3990834  43.2979631  90.6568432  17.8967273
 114.0688801  54.0998602  10.2537894 113.3876801  53.4592819  10.4583871
 114.8684978  53.7255144  10.6235206   6.7013353  77.6802158  13.8366854
   6.2230402  76.8575811  13.7330365   6.1015451  78.3492184  13.5066617
  34.2684942 100.0124526  94.8508586  35.0811678 100.3833270  94.5069915
  34.5143705  99.6411062  95.6981356   3.3063528  64.5482731  20.1888227
   4.1013002  65.0246334  20.4283500   3.3035696  64.5529461  19.2316389
  30.8688521  47.3064375  11.6406238  30.9088039  47.2822380  12.5966835
  30.5074430  46.4549828  11.3943768  25.0151849  73.8462353   9.6696728
  24.3728733  74.5529985   9.6052474  24.7594810  73.2271385   8.9858818
  79.7151947  90.2184772  50.5178785  80.3578186  90.4181957  49.8371601
  80.2411461  89.9787903  51.2808704  61.9871092  20.7658792  83.1019497
  62.0113802  20.9745693  82.1680927  61.4618254  19.9674702  83.1553745
  15.7563972  98.6800289  24.6883798  15.5379438  98.7453365  25.6180286
  15.8074200  99.5880985  24.3899727   6.6906315  79.3852901  32.4948478
   7.2386986  79.6297979  31.7491460   7.3007119  79.3211174  33.2296371
 107.3243427  55.4893637   8.0937159 108.1031990  55.6489801   7.5606722
 106.5995407  55.8221436   7.5644201   9.2092228  77.4436712  27.3890281
   9.1141856  77.9280090  28.2091618   8.9840782  76.5414858  27.6161909
  14.1394067  83.3299637  15.7600474  13.5586679  83.0423927  15.0555778
  13.8902557  82.7910519  16.5108645  14.8594618  71.4030933   1.3307559
  15.1432645  71.4020538   0.4165969  14.8317921  72.3290062   1.5719034
  21.0417390  45.0160170   3.3352301  20.8067250  45.9426022   3.2857943
  21.8509912  44.9468184   2.8287190   6.2392044  73.4404516   2.9864857
   5.7229155  73.7578964   2.2456050   6.4298087  72.5273085   2.7718475
 111.7814922  28.6319661  75.9460449 111.0461617  28.7277651  75.3407812
 112.1423149  27.7674127  75.7496214  19.5032263  82.3849487  19.3691945
  19.7935212  81.5831184  19.8039734  18.5474885  82.3373508  19.3922484
  94.8756886  54.0592861  42.7646065  94.5009995  53.3561087  42.2341585
  94.1190529  54.4821930  43.1706572 115.1398468  61.1923265   1.3237549
 114.6929169  60.5682516   1.8956111 115.0078964  62.0411444   1.7460436
  30.5770731  33.2221293   6.6320682  31.2335396  33.5004330   7.2706848
  29.8897862  32.8129840   7.1578711  88.2263184 108.9682961  11.6280878
  87.8920174 108.8952923  12.5220358  88.6460876 108.1246853  11.4597178
   8.2028013  88.7718582  14.3340516   8.5549921  89.1469765  13.5269082
   8.0363160  89.5279980  14.8968637 105.7715225  62.2601461  19.8761117
 104.8537350  62.5119686  19.7737825 106.2635040  63.0456638  19.6370399
  22.5476813  45.4170799  32.7974296  22.2529888  44.7562456  33.4240770
  23.4648204  45.1984167  32.6322842   6.6363227  67.5095940  49.8130465
   6.5377533  68.4250593  49.5514297   6.2377125  67.0121765  49.0989637
  51.8208122  86.5357494  90.9270954  51.4180517  87.4037075  90.9012413
  51.2541342  85.9923458  90.3795433  28.7222672  71.4491415  20.5457902
  29.6190786  71.7001009  20.3244758  28.2939124  71.3200951  19.6995687
  88.3112621  10.5961418  92.5633144  88.0399895   9.7734928  92.1560192
  88.5849571  10.3474557  93.4461975  84.6096897  10.2172101  41.7493820
  84.2112350  10.3632116  42.6073742  85.5302048  10.4503202  41.8700027
 109.5427608  82.1764088  20.5991077 109.6615124  81.3170815  20.1945233
 108.6334610  82.1767616  20.8981180 116.5001005  66.1859512  23.3353305
 116.7649290  65.3514910  23.7223291 115.5461063  66.1317444  23.2788658
  42.2198677  66.9195557   9.2668700  42.6531982  66.0869217   9.0793079
  41.3042974  66.6844702   9.4175166 112.2764301  98.1842041  12.4966669
 111.6165352  98.2499504  11.8064141 113.0051899  98.7197781  12.1831155
   4.3978041  52.9971123  24.2615747   3.5704762  53.1742001  23.8139129
   4.6265417  52.1056986  23.9983416  91.7479897  70.7318306  70.8073378
  90.9982872  70.1375151  70.8383322  92.3937798  70.2748537  70.2684879
 104.6628284  59.2064714  24.5899296 105.1748848  60.0151634  24.5831847
 105.2526188  58.5464811  24.2255259  90.0897312  74.3325281   1.3929832
  90.9200954  74.2499733   1.8619387  89.4285297  74.3810749   2.0834115
 108.5994530  76.9985533  16.6364145 108.0470848  76.2952614  16.9777477
 107.9888630  77.7094412  16.4413810  98.3292007  69.1025639  55.1397085
  98.5052395  69.2960405  56.0604763  97.7570152  69.8134327  54.8507452
  21.0901570  37.7972603  17.7128673  21.4858794  38.1295896  16.9071424
  20.5574846  37.0542288  17.4293208  56.9598913 104.8538113  90.0888824
  57.1731424 105.3137112  89.2769432  56.8817186 103.9354515  89.8305321
  86.9162941  75.1763868  70.9532166  87.0737553  75.2053118  70.0094986
  87.3625278  75.9514570  71.2943602 111.5076351  53.3627176  33.9882421
 111.2378883  53.3468533  34.9065089 112.0782948  54.1281271  33.9194345
 109.9524498  69.8902941  70.0943375 110.2640629  69.1908932  70.6687641
 110.7242584  70.4348993  69.9396181  35.9118986  45.9250593   4.4990602
  35.2451634  45.2530003   4.3575114  36.7426586  45.4731226   4.3513495
  99.7868443  65.6245518  16.8471146  99.7859669  64.6795273  16.9992864
  99.9898243  65.7170725  15.9162700 113.2094860  16.5787244  75.2346420
 113.7976074  16.1999393  75.8879900 113.7880898  16.8594921  74.5256805
   3.0996224  68.3283424   6.8351096   3.1030959  67.4073124   7.0957339
   3.9470381  68.6633778   7.1281457 101.6928768  94.9018192  13.1632662
 100.9698486  95.3906536  12.7701879 101.6044712  95.0581074  14.1034746
  36.6688585 109.0551662  77.4040651  35.7959414 108.9489651  77.0259523
  37.1262717 108.2441235  77.1821976  78.7871456  96.3502979  37.0220113
  79.1352272  95.4591942  37.0536423  79.5283842  96.8871689  36.7417073
  92.1611691  67.7191353  90.4784966  92.9132938  68.0548286  89.9907875
  91.9649792  68.4042120  91.1175632 100.6854630  85.1520157   6.5469396
 100.9995079  86.0151577   6.8163890 100.8340836  85.1274204   5.6016690
 104.4421291  82.1289825  55.9645033 104.0848827  81.6906548  56.7368174
 105.2046967  81.6036034  55.7222128  83.5192204   2.3036173  60.7064295
  83.7550831   1.5875414  60.1166582  83.0115891   1.8843246  61.4012289
 104.2761517 102.4030399  19.8643053 104.6716213 101.7028904  19.3450534
 104.2359543 103.1503582  19.2675388  36.6916203   2.2283036  23.5990572
  35.8508730   1.7707843  23.5917020  37.1706510   1.8610652  22.8561592
  41.0099554  80.2228546  25.8415365  40.2852058  80.8316612  25.9841061
  40.5884838  79.4096518  25.5635095  95.3771877  72.0440674  10.8068383
  95.6376553  72.8867340  10.4349470  94.9319363  71.5930510  10.0895059
  91.8532658  21.3111734  89.5528603  92.0955944  22.1979237  89.2860603
  91.7536354  20.8323026  88.7300682  99.2272568  23.1160665  79.5065069
  99.5613098  22.4059725  78.9584064  99.9562359  23.7332010  79.5695448
  50.8983946  70.9364843   8.7970531  51.3861847  71.4826107   9.4135290
  50.6284142  71.5395880   8.1045133  32.2944045  75.8459759   3.1047460
  32.7452946  76.1117840   2.3033252  32.0965719  76.6686201   3.5523564
   7.9659343  46.2026978  25.4682422   7.1288717  45.7748413  25.2879667
   8.1940532  46.6382742  24.6469808  26.4862919  94.8045063  29.5265126
  27.4071383  95.0647354  29.5500803  26.2231636  94.9370956  28.6157894
  10.3143942  58.2366276  30.3437471  10.3724658  58.6369276  29.4762111
  11.1712015  58.3968306  30.7392859  -0.3060569  84.4610405  15.3056085
   0.3381882  84.4419384  16.0132825   0.1736508  84.8098946  14.5543385
  60.7903194  11.2214530  83.6655807  60.2421427  10.6754208  84.2291260
  60.1689196  11.7635143  83.1795216  43.7942266  49.9287224  32.0862770
  44.6818352  50.2825165  32.0295858  43.8280535  49.1152048  31.5830159
  93.1832695 100.5705738  33.3895683  93.3850193 101.1564732  32.6600099
  94.0072250 100.1170635  33.5674620 115.5703735  92.8356934  21.8100643
 115.3332806  93.7528038  21.6725349 114.8060608  92.3432446  21.5108085
  24.8105741  84.3572044  34.1509628  25.6749463  84.3756866  34.5617533
  24.3429160  85.0942612  34.5437455   1.8664971  31.7421412  94.2809582
   2.1671292  32.0971680  95.1175022   1.8878096  30.7928777  94.4021034
 115.5633369  97.8061962   4.1383260 115.7686478  98.6588860   4.5217362
 115.9792085  97.1737385   4.7242308  23.5331488  56.6892052  10.0000334
  23.8616610  55.7946444  10.0898504  22.5860572  56.5881443   9.9049854
 109.8119354  48.2500792  32.9379463 110.2991962  48.8632011  32.3875952
 109.5678997  47.5386477  32.3458791   8.8593996 105.7689762  12.7861094
   9.4146919 106.5003395  12.5159526   8.1069887 106.1829472  13.2088864
 114.0697384  27.7815461  87.4452305 113.1163216  27.8562212  87.4857330
 114.2688274  26.9857144  87.9384327  31.5837646  54.9948025  10.8982873
  31.6827559  54.2655039  10.2862763  31.6851187  54.5972013  11.7630839
  32.7599978  85.9046841  16.0475755  32.2958803  86.5036583  15.4627144
  32.3027205  85.9849548  16.8846464 105.1764488  64.4620752   1.7101608
 104.5190144  65.1553392   1.6519094 106.0084152  64.9275589   1.7961009
   8.7630123  36.4348316  20.8223510   8.6970758  36.0277104  19.9585581
   8.8327283  35.6982207  21.4296174  99.2444515  36.3806558  81.9510937
  99.1639233  35.4676461  81.6751194  99.9149132  36.7469335  81.3744164
  23.5644817  78.1006575  39.0172911  24.1375875  78.1613255  39.7815561
  24.0495038  78.5399818  38.3187366  41.5087271 105.0633812  42.2986603
  42.0754051 104.3357754  42.5549793  42.0754719 105.6389332  41.7850733
  41.2299681  84.7351456  24.2725039  42.0471287  84.5606995  23.8055444
  41.2438488  84.1298389  25.0138855   8.4598142  88.8666248  75.5492735
   8.8044238  88.8179684  76.4409637   8.9150769  89.6116066  75.1568747
   5.7709020  59.2733526  17.9574263   5.0986093  59.5066738  18.5975933
   6.5311223  59.0307999  18.4860730 104.1509819  44.9338102  30.1694989
 103.9678764  44.9494648  31.1088943 103.8279533  44.0816689  29.8766828
 110.4913044  56.7706537  41.3689709 109.9133873  56.0497475  41.6190338
 110.5518627  57.3129225  42.1554232 105.8227825  73.8723898  25.9057975
 106.6517925  73.4030676  25.9990811 105.3661823  73.4141064  25.2002978
  30.1401758  65.4004812  13.9506841  30.2933216  66.1757803  13.4106004
  30.3520060  65.6827545  14.8404491 107.0120239  41.6840839  68.8752460
 106.1279106  41.5791988  69.2267895 107.3812389  40.8010530  68.8881969
  35.4913712  70.2069902  14.1858029  35.2446103  71.1270761  14.0920937
  35.9065843  69.9843121  13.3525884   4.4116786  50.6520128  33.5242224
   4.3989125  51.5299463  33.9054060   5.1219988  50.2024460  33.9820027
  23.2899356  78.0856705  25.8468223  24.1873312  77.7534580  25.8702898
  22.9337955  77.7554750  25.0219774 102.5990677  22.8356934  18.2789648
 102.0210552  22.8482485  17.5160849 102.4341202  23.6700201  18.7181926
   2.2907630  82.0318794  16.3398504   2.2645527  81.7232323  17.2455454
   1.8749328  81.3321114  15.8362162  29.4310403  77.0835114   6.5795767
  28.6852527  77.3989391   7.0900059  29.6521473  76.2401485   6.9746512
  33.7825036  56.4083481  10.4468834  33.0750060  55.9449720  10.8951676
  34.0170407  57.1205759  11.0418260 114.6279430  82.2925568  43.8235283
 115.0531387  81.6162014  43.2962942 114.8333931  83.1117916  43.3731031
  24.7914767 104.1231346  24.4745970  24.8907256 103.1724072  24.5245957
  25.6312037 104.4341469  24.1364264 104.2724609  17.2054482  82.5249577
 103.4724045  17.4601805  82.9845905 104.9487400  17.7789378  82.8854942
  51.0764694  85.7048416  23.8448977  51.2787342  86.6191864  24.0431142
  51.0814762  85.2683258  24.6967554 107.0580578  26.6519260  86.4011002
 107.0615005  26.2310362  87.2607899 107.7830887  26.2409377  85.9302998
   8.1804323  88.5566616  43.9087677   8.2778490  88.9820862  44.7606802
   9.0764141  88.3596134  43.6356020  11.9727099  85.4713058  16.1845458
  11.3196325  84.8739719  16.5491211  11.5310371  86.3199997  16.1550534
  15.8661985  66.2755203  30.1835299  15.0020838  65.8643723  30.1612401
  16.3104045  65.8594847  30.9223318  69.7579670   6.9493759  19.4247556
  70.6252813   7.2959590  19.2152989  69.8685026   5.9988040  19.4041371
  12.2341216  70.2482843  50.7524061  12.4592090  69.3290377  50.8957624
  12.1065867  70.6036282  51.6320086  27.9915881 100.4466724  65.3391552
  28.2486105 100.1874256  64.4543076  27.1279860 100.0528049  65.4627991
  93.7148666  69.0380001  12.7979875  93.7139893  69.6165419  13.5605597
  93.8711262  68.1655455  13.1594348   1.1473784  94.8366451  66.8076086
   0.7986241  95.7274342  66.7744112   1.6815698  94.8180103  67.6016665
 111.1082649  80.7456207  22.8039122 110.3463936  80.6742382  23.3789587
 110.7423592  80.9696674  21.9482565   7.2486037 109.5054626   4.9369416
   8.1168681 109.3735313   4.5562270   6.9154662 108.6205769   5.0860053
  13.4773314  61.0345602  53.3838892  13.6932969  60.1040125  53.3233404
  13.1996524  61.2740183  52.4996996 114.6652794  84.4383526  40.4698849
 114.8699665  84.6250153  41.3861227 115.2233887  83.6933899  40.2467537
 107.6112652  75.2528524  32.9411602 107.1553135  74.4291925  33.1141591
 108.0836010  75.4401112  33.7523723  82.3324966   8.6858124  89.7879219
  82.4194145   7.7325833  89.7824764  81.7880249   8.8723040  90.5527782
  26.4394569  80.9036064  14.9937057  27.1838045  81.1388016  14.4397545
  26.3403678  81.6460800  15.5896533  64.8792124  26.2027097  79.8868847
  64.7408056  26.5915132  79.0232277  65.6439066  26.6605830  80.2359200
   5.5306643  76.4451122   2.8899941   6.4532691  76.5781879   2.6724553
   5.2345800  75.7724905   2.2766897  22.8960681  72.4258041  13.6389077
  22.9326057  72.5330114  12.6884329  23.7096977  72.8181267  13.9556444
 113.9452457 107.0645618   5.5126947 113.6690903 106.1682606   5.7040358
 114.8563385 106.9796562   5.2317381 104.7800922  88.8763714  39.6587682
 104.6197510  88.7378216  38.7253213 104.1746330  89.5758247  39.9045634
  51.0397053 102.8189087  19.3074226  50.4231024 103.5190487  19.0933204
  51.2207842 102.9361153  20.2400017  18.1186652  76.8930864  14.3932450
  18.1463945  75.9717321  14.1352272  17.5597763  76.9075155  15.1702046
 101.9085503  72.8349543  56.6930246 101.7267609  71.9284916  56.4450216
 101.3684082  73.3582115  56.1008406  39.1537857 109.4180775  18.3701324
  39.1425657 108.5425568  17.9834020  38.2316566 109.6240711  18.5233462
 108.4133339  12.3401976  85.2709293 107.9095840  12.6103139  84.5031357
 107.8090096  12.4508476  86.0049534   5.2092445  53.9142799  80.9447289
   4.8880461  54.6823215  80.4723167   6.1511368  53.9049625  80.7744789
  28.9968729  95.6141758  68.1205273  28.1274390  95.4688072  68.4936047
  29.5525169  94.9615288  68.5466051  31.5525103 105.9587574  54.7821522
  30.6429505 105.6637383  54.8256922  31.5566683 106.7924404  55.2524519
  24.9065685  12.4516690  90.0994396  25.4034781  13.2646906  90.0082874
  24.9305272  12.2601485  91.0369778   2.9442647  51.6808081  37.1932769
   3.5305265  50.9552908  37.4081016   2.1528830  51.5083647  37.7033830
  40.7046127  96.2715149  22.3882985  41.2599277  96.5794849  21.6720486
  40.9741306  95.3635693  22.5269508  97.9929733  49.5243835  13.1037807
  98.8710213  49.7710514  13.3943343  97.8749084  48.6319590  13.4291553
  10.1399744  51.0723495  32.0139265  10.9214473  51.6200209  32.0886588
   9.7228014  51.3598204  31.2017941 100.8935547  74.6405363  18.4142113
 101.2929344  74.3357515  17.5994527 100.2271748  75.2680492  18.1342077
  22.3142457  94.0151024  55.5355501  22.7344489  94.1001225  56.3913727
  22.8345847  94.5723820  54.9568224  12.7600026  46.8094349  24.6956015
  11.9143414  46.9557667  25.1194811  12.9313743  45.8758116  24.8189402
  23.2444334  83.0036068  16.9501066  23.0788779  83.5260868  17.7348602
  22.4343133  83.0677891  16.4443207  22.4144983  89.9006081  49.5753765
  21.6314054  90.3827190  49.3097401  23.1266093  90.3117943  49.0854168
   0.9235518  47.6756048  67.4887466   0.2628687  47.1664858  67.0191431
   1.6426128  47.0603323  67.6323509  20.2343512  97.9286480  12.3294544
  20.0141096  97.3042297  11.6382015  20.2890873  98.7726593  11.8812644
  37.7032876  93.7244415  25.3665638  37.5916576  92.7929115  25.1767468
  38.6511040  93.8580322  25.3613210  38.3934283  80.7743454  11.6919959
  38.3049464  81.6389656  12.0930302  38.1752515  80.1612663  12.3939693
 106.1890602  67.8560448  22.2013164 106.9619274  68.1345034  21.7100310
 105.7203674  67.2755814  21.6016340   9.2288297  93.2636642  25.2279997
   9.6187145  93.6151409  26.0284305   8.8107592  94.0185452  24.8137474
  89.1558647  72.2360420  49.1386366  89.6164989  71.4070415  49.0089941
  89.1493130  72.6443386  48.2729101  12.4324572  75.6539631   1.9607532
  11.8736398  75.0083780   1.5281150  11.9061780  76.4533234   1.9776249
  27.7753305  61.4245033  27.4965072  27.3790359  61.2065411  28.3401155
  27.2347546  60.9669352  26.8525815  90.1900387   2.1996610  61.4908648
  89.4602585   1.8411033  60.9857988  90.9047031   1.5778610  61.3535833
  94.8169136  95.0516129  25.5613160  94.3456554  95.8739471  25.6951451
  94.6976662  94.8557186  24.6319938  78.1360960  87.0828056  20.8073473
  78.6365175  86.9316864  21.6092038  77.8966713  88.0088043  20.8453751
  21.0266113  99.4532585  65.3333044  21.1167836  98.6405563  64.8356867
  20.6903076  99.1761875  66.1855745  13.8344824  97.6633453  30.5485559
  14.1810131  96.8143845  30.8231616  14.4053292  98.3037376  30.9731340
  79.3142033  61.3658619  11.7495000  79.6546602  62.2604465  11.7435884
  79.3538809  61.0884380  10.8342433  30.8597946  83.0585003  22.4445796
  29.9970055  83.0425644  22.8587914  30.7670569  83.6791611  21.7217994
   1.2056573  90.8211994  36.5737033   1.7282027  91.1737251  37.2940540
   0.9052670  91.5938854  36.0952091  13.6426747  66.5613699  25.6272602
  12.9573464  66.3371897  24.9977374  14.4407296  66.1842871  25.2569294
  98.4646797  64.6249723  49.9574327  98.4540462  65.4245806  50.4834986
  97.5518608  64.4954109  49.7001171  17.7685177  92.1372700  14.1033316
  18.0119395  92.3421001  13.2005453  17.0473385  91.5132618  14.0212476
  35.9907627  95.7091522   5.3546888  35.3327227  95.6580830   6.0479492
  36.8271017  95.6169033   5.8110422  40.5607319  89.2071152  92.8860283
  41.3698149  88.9500618  93.3282185  40.7465649  89.0828323  91.9552994
  35.2601004  87.2759628  15.9854364  35.9488487  86.6510201  16.2119472
  34.4578362  86.7539978  15.9726465  28.5390472  99.6312523  10.8986807
  29.3590808  99.1536713  10.7733965  27.8675485  98.9498615  10.9307885
   6.4682668  12.5914872  88.1833935   6.2069428  12.0141530  88.9007664
   7.4155259  12.4729693  88.1134987 104.1143608  94.9129486   7.0251691
 103.9451027  95.6476212   6.4353889 104.7645283  94.3816853   6.5655226
  30.4775524  88.9907455  27.9771090  31.3292670  88.6907005  28.2945800
  30.5483508  88.9468479  27.0235395  14.5442569  80.4267883  51.1126947
  13.6308193  80.5701637  50.8650923  14.8652160  79.7826481  50.4815912
  28.0250502  64.3072224  27.7489114  28.6708403  64.3011475  27.0424056
  27.6847839  63.4127951  27.7700782 102.4932384  24.1908455  89.3527412
 101.8183517  23.8452482  88.7685108 102.0383453  24.8442745  89.8840904
  28.8180304  94.9385929  10.0949287  29.7730446  94.9851513  10.1397753
  28.5426712  95.8372593   9.9137729   0.7437035  81.8873882  47.4172163
   0.2131381  82.6812172  47.3496199   0.2893583  81.3501740  48.0662203
  13.9643788 103.7865829   0.2985612  13.8991225 103.1133366   0.9758390
  14.2203033 104.5783138   0.7717401  13.4061337  54.3544960  13.8442636
  13.9065623  54.8886061  13.2273912  12.9898012  53.6863995  13.2997072
  92.6929474  64.5159197   2.3684938  92.9165936  64.9673605   3.1823802
  92.9354000  65.1328707   1.6779736  15.7403803  43.5036898  44.1715574
  14.9623358  43.8708019  44.5912075  16.1306441  42.9413939  44.8406982
   5.2732104  83.7221622  24.2598248   5.3122926  82.7673912  24.2040229
   4.7936013  83.8953114  25.0699019  63.0289650   4.8539776  91.4960194
  62.9877663   4.7767144  92.4492073  62.2023821   4.4810626  91.1895466
   3.5185698  94.3502140  35.9550500   3.5452092  93.7310886  35.2255249
   2.5856352  94.4769669  36.1276722 103.3610058  44.9504280   5.8620191
 104.2118645  44.5535135   6.0484028 102.8080082  44.2166233   5.5937827
  15.8593082  79.6203709  55.5411959  16.2000656  80.5091095  55.6425142
  14.9657500  79.7416210  55.2201271  15.0998569  82.7427006  12.8279328
  15.4435229  83.2756424  12.1109247  15.2464771  83.2723618  13.6116409
  63.5720730  75.1515961  17.1858215  63.9255905  74.9598646  16.3172054
  62.8659678  75.7773352  17.0242596   0.5252201  12.8183150  56.1636782
   0.4290282  13.7630308  56.0433054   1.2206049  12.7294874  56.8154335
 102.6155281  28.7477732  90.3711224 103.0084229  29.6026564  90.1949406
 103.3018684  28.1184721  90.1494312  27.9668331  49.6534109  10.9344852
  27.0388126  49.4333076  11.0154927  28.0650091  49.9478245  10.0289953
  48.7378168   2.2324812  30.0240827  48.6578798   1.3187630  30.2978730
  49.6803808   2.3749849  29.9374962  87.0389557  75.1324654  30.6884241
  87.7892399  74.7791624  30.2104235  87.4223709  75.7406807  31.3203216
  48.0712461  92.4731445  15.1570165  48.7264395  92.4397469  14.4599962
  47.3724031  93.0229568  14.8026776  89.5019436  79.0649223   4.7599164
  90.1546097  78.4461546   5.0876170  90.0162983  79.7662592   4.3601665
 109.6553707  81.0726261  29.8137498 110.5144024  81.4168644  29.5692086
 109.4576645  80.4216671  29.1404009  92.6166248  10.3134859  94.4757557
  92.2184277   9.7448146  93.8167572  93.5184383  10.0009310  94.5484447
  23.9095402  46.8066072  64.8919201  23.1121469  46.3139677  64.6977425
  24.3259954  46.3180447  65.6019258  55.0096178  62.9167223  17.2172904
  54.2201138  62.5038195  16.8673968  54.7392225  63.8104391  17.4279833
  28.0222464  94.0310669  24.6895719  28.2121444  93.1069565  24.5277572
  28.8750505  94.4629860  24.6405363 109.9778652  78.6150217  36.7686391
 110.3481102  79.3680382  36.3080812 109.5406055  78.9924049  37.5319362
  14.6721327  62.8757524  31.7243290  15.3611016  62.3189831  31.3616133
  13.9276874  62.7495813  31.1360168  15.2153766  27.7955246  80.6422806
  15.4077196  28.3212042  81.4187527  15.0989151  28.4370875  79.9415255
  23.8808680  96.0131931  53.9260530  23.6997724  96.2641335  53.0202579
  24.5046902  96.6695786  54.2362833  13.8343549 103.6859608  30.0019670
  13.0033636 103.9896202  29.6366286  13.9926350 102.8459263  29.5712399
  34.8981309  82.5766373   2.8133237  34.6795774  83.1299877   3.5631701
  34.0904164  82.5372982   2.3011884  59.3169117   3.9968908  28.3025670
  59.2092848   4.6026224  29.0358734  59.4397068   3.1416056  28.7144399
  62.6355362   8.6985981  28.6176729  62.1378613   7.9307765  28.8987446
  62.0705986   9.1282552  27.9754305  83.7517738  64.5175791  37.2112322
  84.4632244  64.3994856  37.8406143  82.9568291  64.3301249  37.7103949
  12.4604511 101.8115044   8.1422329  12.3285353 101.2500954   8.9062005
  11.6853213 101.6644382   7.6002210  58.9467812 102.0261478  36.7326689
  59.4328833 102.5017548  36.0590696  59.5964479 101.8403053  37.4106312
  23.7952185  26.0107708  25.5099273  23.6197400  26.1802936  26.4355087
  23.5729384  25.0875998  25.3891730  43.5807848  95.2827263  50.4998255
  43.6828279  95.8801270  49.7589302  42.7415180  94.8494911  50.3443384
  42.4499559  90.6372833  21.1233735  42.9394436  91.1110115  20.4509068
  43.0773973  90.5167961  21.8361378  10.3842032  84.2303753  13.1554532
  10.9116054  83.8163757  13.8385963  10.4543257  83.6380959  12.4067807
  51.2837172  95.6435776  41.4767361  52.0592690  95.1076031  41.6425228
  50.5570126  95.1279163  41.8263483  19.0868986  85.1820850  20.6243324
  19.2480731  84.4220638  20.0652075  18.7820852  85.8615303  20.0229335
  53.0602551 100.9825993  21.3221407  53.8329458 100.6467152  21.7764091
  52.6495743 101.5737534  21.9531035  17.2265089 107.1172428  38.6123037
  17.1476495 107.7182484  37.8714848  16.6799438 106.3688278  38.3727860
  74.1499949  13.2888699  25.9321094  74.7602081  13.8095832  25.4098725
  74.5374489  12.4138021  25.9513140  19.2925203  76.5110111  52.7589989
  18.9266431  76.7178726  53.6189795  19.9823892  77.1617889  52.6293707
  49.4410419  14.9160957   4.3421885  49.6429014  15.3818727   5.1536918
  50.1209974  15.1964903   3.7295988  27.1397066  81.9198132  38.5862041
  26.2947607  81.8274021  38.1460261  27.3851252  81.0256100  38.8236761
 105.4339504  90.4410076  19.0082324 105.0072765  89.8143768  19.5926261
 106.3083744  90.0786209  18.8657796  37.7384329 107.1735382  35.0330400
  38.0062628 106.6739750  35.8043599  36.8365169 107.4351120  35.2184010
  34.2537141  93.3649540  36.4323974  33.6047316  93.3471203  37.1357703
  34.5573330  94.2724323  36.4096045  12.7974641  88.7438393  16.7313218
  13.0926955  88.7313080  17.6417696  11.8427527  88.7053776  16.7885661
 105.6673813  97.4356461  25.1425290 105.5908394  97.3712826  24.1905665
 106.5714169  97.7124500  25.2919602  28.3532000 109.3338871  34.6039176
  27.4644303 109.0249157  34.7795749  28.3668494 110.2291012  34.9424839
  43.8400650 105.7961273  31.2542176  43.1562185 105.8101368  30.5845928
  44.0765905 106.7158413  31.3742709  98.5678577  87.1382999  91.0512257
  98.0520725  87.8634834  90.6986427  98.2453728  86.3665199  90.5858135
  37.4453712  90.9197998  13.9678359  37.1508932  90.5836868  13.1213439
  37.7555823  91.8054485  13.7791002  22.9773617  87.3655415   4.1782114
  22.1659374  87.3267174   3.6719334  23.6120915  87.7646065   3.5831529
  17.8306997  73.9480734  38.8822556  18.1265104  74.7746229  38.5007596
  16.9812942  74.1546726  39.2722034   9.1688550  88.3324337  53.4001064
   9.3164802  89.2357922  53.1201458   9.2803770  87.8135490  52.6035213
  31.7589474  10.2262199  21.8063021  31.6804647   9.7076315  22.6070118
  32.5624418   9.9094981  21.3936067  13.5380995  98.6470509  46.6891050
  13.6321235  98.9782238  45.7959604  12.5934207  98.5530472  46.8114901
  33.5874081  69.3462896  16.0416567  34.1345716  69.8508739  15.4397941
  33.2954335  68.5941744  15.5265832  26.0658407  67.8326082  27.4972630
  26.4574909  67.3150730  26.7937040  26.3928318  68.7204313  27.3520637
  26.3301730  99.3424034  29.7035813  26.8183327  99.0202999  28.9458346
  26.9147062  99.9815845  30.1110053  33.4576035  91.4935398  31.6547990
  32.7123666  91.4375401  31.0567021  33.1087971  91.9303131  32.4318433
  36.2650084  88.8248920  36.6524172  35.3137326  88.8991928  36.5763521
  36.6001225  89.1926670  35.8346915  68.7431097   2.5878590  49.6877432
  69.4687939   2.4504332  49.0788698  68.1019926   3.0917355  49.1864300
   6.8407100  88.8209343  54.5921803   6.9977558  88.6773300  55.5254269
   7.6665485  88.5827255  54.1708946  61.7063093   5.6665611  38.7071753
  61.2400818   5.0270927  38.1687093  62.4577665   5.9260947  38.1740856
  71.7215824   2.7272949  40.9034157  72.1237612   2.4309863  41.7199230
  70.8750963   2.2811607  40.8776760 102.3753643  77.0568657  44.6643353
 103.0904102  76.6371965  45.1426888 102.1271706  76.4183092  43.9958477
  20.9765506 107.8942680  31.2978435  20.6154919 108.3094788  30.5146003
  20.3483939 107.2054195  31.5149474  11.9286358  74.5393372  16.9017613
  12.1533728  73.7279892  16.4463007  12.1681046  74.3761158  17.8140366
 112.6390553  56.3155985  82.7522278 113.0793762  55.4724550  82.8592682
 113.1497860  56.9222832  83.2882500  13.5383248  91.5974045  17.0866907
  13.5251164  90.7416725  16.6579914  14.3593252  91.6061401  17.5787425
  41.4143801 106.9456005  17.8122091  41.5815544 106.9117165  16.8703294
  41.9574547 107.6686859  18.1259930  27.2370577  85.3147602  30.2504063
  27.9849076  85.8894920  30.4136300  27.5965023  84.4299316  30.3145242
  52.5242376   1.2013935  37.1054482  52.0234394   0.7898965  36.4011025
  53.4314632   1.1749473  36.8013501  33.5919952  94.8030090  17.4059784
  32.7723002  94.3124771  17.4668860  33.4689903  95.3825760  16.6541779
   4.4066989 105.4051304  60.6390381   4.5596471 106.0655975  61.3147688
   4.4377792 105.8928680  59.8160076  54.1875029  94.9238491  34.1171479
  53.5645962  95.3966045  34.6691632  53.6403465  94.3834686  33.5471988
  84.6025181  48.4156322  23.3704948  84.0850925  48.5633945  22.5788713
  85.3195095  49.0468264  23.3092737  27.1951652  88.4689617   6.1736429
  27.3541832  89.2996883   6.6218007  26.3766098  88.1463146   6.5505981
  37.7113128 103.4870434  36.6029835  37.6512671 103.0582714  37.4566698
  38.6342001 103.4103775  36.3608360  16.6720164  85.4621601   1.1734740
  16.7726123  84.8837471   0.4174621  16.7635155  86.3444996   0.8138391
  32.3322248  29.1433454  27.2031379  32.9496098  29.7843552  26.8507504
  31.5851378  29.6657205  27.4950528  10.8379817  90.0628376  15.0278020
  11.4209020  89.6220493  14.4096220  10.3904223  89.3505573  15.4845095
   2.3720793  53.1849718  84.0706348   2.1548609  52.4956703  84.6982574
   3.2922542  53.3845043  84.2429638  32.5898457  92.2216034  46.3664198
  33.0830455  92.8901196  46.8418837  32.3615623  92.6381302  45.5353832
 110.5969524  47.3347187  77.0318937 111.3922596  47.5136662  77.5335789
 110.7114315  46.4395857  76.7127275  12.7058613  76.5034866  39.4219327
  12.5648272  75.9411335  40.1835728  11.9624412  77.1064138  39.4284296
   5.6077170  64.6047068  84.4364643   4.7501174  64.7943020  84.0559292
   5.5020112  63.7481213  84.8503780  49.9714661 109.7212410  22.7729225
  50.1538706 108.7938499  22.9242206  50.3489971 110.1664639  23.5315275
  34.9510241  83.1025314  12.0939279  34.4834423  83.2600212  12.9141700
  34.6808004  83.8212490  11.5223908   6.1076868 102.8694630  20.0901318
   5.5696952 103.5910892  19.7644639   6.0081398 102.1808720  19.4327474
  13.9088547  36.6664481  92.5803852  13.9624214  35.8027506  92.9895210
  13.9484978  36.4891624  91.6405773  25.4579401   2.1248969  41.8641520
  24.7955275   2.7973747  41.7053604  25.9474802   2.4450929  42.6218176
   0.4557309 105.0710392  59.9518919   1.1919598 105.1661491  59.3476105
   0.3275350 105.9481335  60.3131390  15.1812994  66.3539124  14.3453908
  16.0479975  66.7393827  14.4737589  14.7456026  66.4570379  15.1914191
  96.4067364  17.1589255  89.4338226  97.1987343  17.5918019  89.1150856
  96.6089725  16.2245262  89.3866062  60.4011917   9.3344700  39.7514677
  60.0376177   8.4519863  39.8240685  59.6684885   9.8712754  39.4494367
  27.3008585  77.9931974  18.4407878  27.5601649  78.3198833  17.5792372
  26.3440561  78.0176878  18.4282029  45.7007360  94.8909664  27.7012777
  45.5826712  95.5511284  28.3842683  45.5259275  94.0584278  28.1400990
  40.4976988  13.2324064  14.8082149  39.8814321  13.7094021  15.3640246
  41.1854076  13.8686919  14.6121883  73.0359125  17.2007024  16.3378429
  73.6580467  16.4831364  16.4573443  72.4453402  16.8936181  15.6499791
  77.6295948  74.3818903  23.3492446  78.2194948  74.5507956  24.0839028
  76.7576933  74.5777893  23.6922383   0.7149441  79.7161484  31.1743593
   0.5629319  80.5053234  31.6942883   0.8344339  79.0217829  31.8222880
   9.2919940  69.9587774  26.6316915   8.5756916  69.6908379  27.2073245
  10.0084329  70.1785326  27.2272205 109.0475082  70.8083248  90.4462624
 109.5319843  70.2080488  91.0129929 108.4185219  71.2331915  91.0294533
  75.4709053   7.9226118  35.7725167  76.4053679   8.1295496  35.7862210
  75.2390909   7.8005540  36.6931653 115.8380985 104.7767353  20.5148602
 115.3546715 105.6020641  20.4781127 116.4081860 104.8668671  21.2784767
   4.2016575  82.3550034  41.9692087   3.5550997  82.2420692  42.6659441
   3.6801949  82.5013065  41.1799669  23.2430100  99.4353294   7.3407865
  22.7423120  98.6262894   7.4455601  24.0652061  99.2695999   7.8020418
  37.3559952  73.7663174  15.7354474  37.9333663  73.4283161  16.4200127
  36.4861917  73.7681150  16.1350369  22.8008628  90.5885792  33.9317274
  22.5364017  91.3684273  33.4437346  23.6242914  90.8367920  34.3519497
  36.5625715  98.6746216  25.8872294  35.9548402  98.0663013  25.4667020
  37.3357034  98.1447697  26.0815549   0.1135646 105.0078583  44.4423723
   0.9958752 105.3783798  44.4206476   0.2513431 104.0678883  44.5594549
  32.5587702  70.1206398  10.9121835  33.2740808  70.7157707  10.6877291
  32.2669172  70.4119873  11.7759955  40.0565386  95.9293747  27.7175117
  40.8700466  95.4862595  27.4764848  40.3161001  96.5557766  28.3931446
  41.5984774  93.5436535  20.0163531  42.1162462  93.4196663  19.2208838
  40.7664633  93.9019585  19.7071540  13.2319748  84.8945236  23.1028867
  12.9500902  84.7422791  22.2008920  14.0793705  85.3315830  23.0184650
  53.5420322  15.7697046  32.4842834  54.2535591  16.0393655  33.0650091
  53.4781933  14.8226178  32.6074982  36.2809992  98.6221504  21.3877964
  36.2345862  99.5520306  21.6100264  36.8624783  98.2466221  22.0489311
  39.7745681 103.1713867  50.6861448  39.9667978 103.7211704  49.9265337
  40.0460911 103.6980724  51.4378786   2.4655211  15.6856751  92.2514153
   2.2578223  14.9832547  91.6352177   1.7644426  16.3259542  92.1299171
  21.5060520  91.5385532  38.5553646  21.9770575  90.7256699  38.3720803
  21.5784478  92.0449543  37.7463198  43.7696171  67.8066111  11.5859687
  44.6500254  67.4351072  11.6415977  43.3610582  67.3457813  10.8532012
   1.0266078  87.2663498  40.8482504   0.7956906  86.9043732  39.9927521
   0.9122218  88.2113075  40.7472754  24.5894074  87.3184299  31.4120817
  24.7607040  88.0049133  30.7673931  25.3033233  87.4001789  32.0444393
 115.4487174  79.8289967   8.5690188 116.3294755  80.1709175   8.7226051
 115.2061352  79.4119978   9.3957573 108.1327057  77.2569942  19.4340777
 108.4101391  77.3103189  18.5195208 107.3412418  76.7190456  19.4132900
   9.9407011  54.5016241   5.2623153  10.7030535  54.2248535   5.7706958
  10.2209210  54.4263315   4.3501532  60.5004787   2.1434812  35.1270151
  60.8268213   1.6144854  34.3990731  59.6513081   1.7574659  35.3417897
   2.7705655  58.7391758   8.4679472   2.9591897  58.7907362   9.4049609
   1.8152234  58.7076998   8.4173214  48.8069630 100.6441975  47.8102207
  48.8805580 100.2831554  48.6936617  49.2772770 101.4768505  47.8518152
  31.9298244  99.4131947  40.0771570  32.1444058  98.5683250  40.4726171
  32.4207187  99.4246292  39.2554998 111.2373352  99.5969486  21.5654516
 111.5445900 100.1033020  20.8134961 110.9855080  98.7500858  21.1971784
  44.2120361  80.0713158  65.6854391  44.2900562  80.0154781  66.6378164
  44.0866041  81.0038376  65.5096626  74.8190403  68.9109802  69.3479395
  75.5098772  69.5735264  69.3504477  74.2090082  69.2036009  68.6708355
 116.2348080  92.6386738  92.3612595 115.8719444  93.3731270  91.8661404
 116.0414505  92.8471470  93.2752514  16.2761033 101.7632389  42.7753305
  15.3369439 101.6621780  42.9302406  16.3524795 102.5888252  42.2969961
  28.0551720  93.5505199   7.2643661  28.2918787  94.0105247   8.0697179
  27.1442914  93.7983227   7.1058714  17.3058653  82.8959370  33.2390666
  16.3877761  83.0424404  33.0112934  17.7919114  83.4935760  32.6708961
  19.8086548  71.9988346  38.8456750  19.1990960  72.7368307  38.8517451
  19.6092784  71.5301704  38.0352235   3.1300062 105.8951378   8.7577170
   3.9439228 105.7574463   9.2422915   3.3730870 105.7691574   7.8405088
  41.4449406  79.7585106   2.2986391  40.9497595  80.5144215   1.9830048
  40.8307791  79.0269518   2.2364889  20.3617787  95.1749325  40.8800650
  21.0129046  94.9157906  40.2280617  19.5532966  94.7504425  40.5930185
  63.5403347   6.3333035  36.7665362  63.5198593   6.0144091  35.8642507
  64.3924952   6.0529464  37.1003747 116.6014671  77.6665497  15.6576347
 115.9781456  77.3128843  15.0231111 116.4054489  77.2012568  16.4708459
  11.2638319  91.6859722  35.3513908  11.5590775  92.3067474  34.6852875
  10.3882301  91.9898129  35.5906320  91.7275715  93.2202339  29.4031739
  91.2979507  92.8173351  28.6486363  91.5638447  94.1576290  29.2997003
  31.0585618   4.3870577  53.7350750  30.1494765   4.6154380  53.9290810
  31.1860824   4.6620905  52.8271484   9.1216749  75.2628040  16.8855774
  10.0116217  74.9424219  16.7386591   8.5844690  74.4712305  16.9181013
  18.4215510  78.2948542  33.2337070  18.3903694  77.4242830  32.8370070
  17.8734803  78.2217836  34.0150595  35.0924778  84.4270134  20.5283260
  35.6838059  84.8779774  19.9256635  35.2334356  83.4969807  20.3511238
 105.9908962  59.4427586  58.0656385 105.3830814  59.3533182  57.3316145
 105.9592724  60.3725481  58.2908630  26.8489599  29.3405867  34.6013665
  27.5257921  29.5437980  35.2469921  27.2739840  28.7390304  33.9900422
   5.9312439  81.2763309   2.6411715   5.3888029  80.5024433   2.4892238
   5.6704724  81.8901634   1.9545630  34.2009878  49.9445724   5.0027764
  34.7364950  49.7807837   5.7790726  33.5810375  49.2155790   4.9812946
  12.9613864  87.6434517  10.3542089  12.1291578  87.4482918  10.7849503
  13.6188340  87.5292873  11.0404742  45.9112358   8.8542432  61.7291069
  46.6042280   8.3694333  62.1773911  45.2916813   9.0823817  62.4221706
   8.1318301  83.1485939  47.0903587   7.9556209  82.2758675  46.7388821
   7.3016131  83.4217072  47.4807215  78.7914515   8.5364127   9.6949625
  78.2677937   9.3272096   9.8240155  78.2196999   7.9484463   9.2013735
  10.2636325  34.6404028  91.1429024  10.8222950  34.1669655  91.7593384
  10.2194226  34.0716743  90.3742504  23.6436176  81.7269897  44.0404654
  23.0066323  82.1974945  44.5781517  24.4444728  81.7248249  44.5647335
 112.2035885   5.6613755  43.0104589 111.5360069   6.2951493  43.2729530
 112.7284718   5.5257839  43.7993431  14.2867768  99.1265583  40.0615025
  13.7571180  99.9125862  40.1951218  14.1493118  98.8985634  39.1420698
  32.4093580  84.3787956  24.5841432  31.9363904  83.8847733  23.9144611
  32.9940033  83.7368965  24.9871087  32.4749899 107.7501774   0.8779014
  32.9648089 108.1256580   0.1462416  32.4416661 108.4512806   1.5287308
  62.0119095  21.5046787   6.2522012  61.5558004  21.0532999   6.9624484
  61.4073610  22.1950507   5.9799242  14.5003068  69.4594383  94.1126633
  15.0703549  70.1037598  93.6929893  13.6877382  69.4937468  93.6078930
   4.5907649  87.2237682  49.0413332   4.1034546  86.6946125  49.6728039
   4.3458313  88.1262875  49.2455435  46.1847973   1.0519178  46.3061476
  45.3951454   1.3723265  45.8702374  46.6410065   1.8446730  46.5883589
  68.3013344  23.7340736  26.0581970  67.9945946  24.1831446  26.8459010
  67.9212856  22.8576469  26.1188078  39.4303179  17.0022774  65.5592299
  38.9721203  17.1788609  66.3808775  39.1489244  17.7042115  64.9724293
  20.4627848  83.2379532  29.1138935  20.3468347  83.8256550  29.8604846
  21.3057327  82.8129959  29.2722511  87.2877789   6.5362763  19.0177405
  87.8235435   6.0739332  19.6622765  87.6366711   7.4276054  19.0114045
  15.1660538 104.6385288  41.4522982  14.3626869 104.9204826  41.8897200
  14.8649740 104.0829468  40.7333326   0.8944521  48.8200378  82.9651451
   0.5571312  48.0099010  82.5828743   0.5594964  48.8193941  83.8618279
   8.3313268  96.7766857  50.9933233   8.1937051  96.5500736  50.0735760
   9.1126138  97.3296833  50.9894323  68.4690857   0.6171542  32.4697232
  68.9495230   1.3502288  32.8544474  68.2258558   0.0713728  33.2175159
 100.5864239  25.8754706   5.0400245 100.7321548  25.0033784   4.6733478
  99.7893047  25.7855654   5.5622822  67.0875506   3.9594149   0.3240455
  67.8931193   3.6616206   0.7466663  67.1230940   3.5795664  -0.5538403
   5.6987190 100.0304508   4.5496756   5.3671616  99.2121696   4.9194163
   5.4837930 100.6939411   5.2052820  87.3132038  12.8635609  48.0124760
  87.3400784  11.9112372  47.9197979  87.2515774  13.1899261  47.1147490
  14.3634486  89.2304516  27.3301673  14.5574045  88.3631134  26.9747257
  13.5894477  89.0974331  27.8773975  49.5412064  84.9361897  27.4022412
  50.4601669  85.1985550  27.3483944  49.2408752  84.9277782  26.4934182
  70.9195995  13.5610664  39.5395446  71.0045004  12.9767716  40.2929497
  70.0240993  13.8946199  39.5948458  79.5250130  17.1469402  16.1855042
  78.8323259  16.5616417  16.4918447  80.1867962  17.1170557  16.8764293
  21.5129638 104.9454594  30.3904557  22.0593357 104.1598415  30.3679132
  22.1348047 105.6670475  30.4845405  74.3918514   5.2109307  36.2100554
  74.9370289   5.9404671  35.9154510  74.9427557   4.4371656  36.0916257
 114.8004532 103.2457352  51.5315866 115.3216839 103.4843636  50.7650328
 113.9270210 103.5893536  51.3437319  22.1442246  32.5843048  14.4033754
  22.6126862  31.7592287  14.5299721  22.4259043  32.8897953  13.5410738
  54.5685482  17.2208929  34.8945546  54.2221355  17.9594326  34.3937683
  54.7681379  17.5880253  35.7557225  21.6358852 104.9502182  57.8513002
  22.4568129 104.6305847  58.2256603  21.0963964 104.1657639  57.7521610
  36.9569468  82.0937824  16.0562742  36.2999177  82.2496986  16.7346811
  36.8612576  81.1665440  15.8387661  60.8910275  14.4567239  10.9839714
  61.2296677  15.3426623  11.1130750  60.6768179  14.1513634  11.8655038
  27.0979500  84.4505501  35.3559494  27.8244138  84.1720200  35.9135318
  27.5193071  84.8615456  34.6011114  42.8598976 108.9958286  19.6800244
  43.1852436 108.7768745  20.5532026  43.5982227 108.8172722  19.0975916
  59.3061209  78.5965109  18.0594862  59.7907543  79.3934155  17.8443062
  59.8046780  78.1982851  18.7729931   7.0137233  91.6769218  57.8481388
   7.9135323  91.9576359  58.0148029   6.5075815  92.4892807  57.8369236
  66.6410685  23.9355469  23.3121109  66.2931967  23.3618355  23.9948082
  66.3995457  23.5054564  22.4917936  99.6955299   4.4716597  25.6481600
  99.0989685   4.5252115  24.9015069 100.5501175   4.7110909  25.2895880
  71.8371773   6.8062353   5.6890106  71.9191933   7.5013882   5.0361186
  71.6251183   7.2649556   6.5019304  30.8529401  87.5945187  37.4334979
  31.1796474  86.8548298  36.9212914  31.6108751  88.1706810  37.5324798
  35.1384234  91.9789791  22.8769064  36.0265374  91.6221333  22.8650260
  34.5822501  91.2460518  22.6128697  26.2152028  97.3310661  22.5767970
  26.7687201  98.0717373  22.8242993  26.1512303  97.3879147  21.6234303
  50.5788422  99.3465710   3.7891006  50.2783823  98.6998272   3.1506073
  51.5326881  99.2670345   3.7798735  35.6964850 103.7137890  39.6332502
  35.4581094 102.8092957  39.8364711  36.2359357 103.9914322  40.3736162
  40.7422495  91.3191319  27.1153879  40.2393341  91.6550064  27.8573418
  40.4428673  90.4158020  27.0123959  46.6179752  89.1782951  16.3291073
  46.2859964  88.9787769  15.4537690  47.3703575  88.5967064  16.4382327
  63.9450407   4.7745076  20.1769042  64.4508028   4.3326762  20.8589745
  64.3143368   4.4489110  19.3560266  25.1023746  94.9047756  21.6008615
  25.8237934  95.4495621  21.9154978  24.5510674  94.7689438  22.3714733
  10.5077493  85.7895374  24.3034983  11.0248744  85.3710747  23.6152387
   9.6174812  85.4667759  24.1639400  33.4461093  93.0343246  33.9290261
  33.4952879  93.0867672  34.8835230  34.3519354  93.1353474  33.6366129
  97.2809696  28.0391860  92.8104115  97.7348995  27.2367740  92.5529003
  97.9827404  28.6476326  93.0418110  19.6093583  71.1270952  77.0444918
  20.2026105  71.0291195  77.7892637  19.0396845  71.8572569  77.2865009
  71.7139769  90.3459263  15.6514859  72.5393581  89.9361134  15.3925860
  71.0576344  89.6597290  15.5307400  49.5610714  96.9311047  25.3087640
  50.3208780  97.2994137  24.8579073  48.9427948  96.7256832  24.6075034
   4.9794543 107.5160313  62.3076200   5.8260441 107.3254871  61.9036245
   4.9685866 108.4683800  62.4031734  63.4709215  39.4969511  43.4406471
  63.9215946  40.0521135  42.8043127  62.5570345  39.4995713  43.1559706
   8.8672704  10.5808067  62.9761076   9.3048084  10.7686412  63.8064766
   8.8924253  11.4103138  62.4991179  26.3169217   6.1871099  73.4496832
  26.5858912   6.3780969  72.5511217  26.8731070   6.7478359  73.9904928
  89.8791409  15.3458655  20.8354568  89.7409534  14.9125469  19.9932146
  89.4329548  16.1881340  20.7475328  67.9595661   6.6627157  29.1707158
  67.9497910   5.7873881  28.7834978  68.1149387   7.2500920  28.4310675
   0.8396616  71.5850925  88.6933804   1.2629882  72.2530985  89.2326355
  -0.0136011  71.4498806  89.1055584  24.7638679 103.2249546  42.0404959
  25.2320147 103.9772797  41.6784668  24.1492629 102.9713058  41.3519049
   7.9896116  80.0066471  30.2134442   7.2450536  79.9109888  29.6195459
   8.6921203  79.5052862  29.7995067 110.5698967  79.7340155  18.1810367
 109.6448135  79.7848940  18.4215975 110.8005238  80.6273174  17.9259837
  89.7872066   1.0491081  25.3479218  89.9229240   1.8523961  24.8453879
  89.1179848   1.2798506  25.9922290  21.9880366  97.6421452  43.7426615
  21.9507813  96.6891384  43.6612844  21.3667846  97.8473282  44.4413567
  91.5715122   1.3570808  31.9983435  92.1706009   0.6309679  32.1718240
  90.7000637   0.9629375  32.0364809  26.7942953  70.5109930  27.1246862
  26.6907096  70.7172585  28.0536413  26.7571712  71.3604927  26.6851330
 105.6018925  95.3927231  30.7659841 105.4560471  94.5214653  30.3973913
 106.1384392  95.8422565  30.1130891  39.6626043  93.3789539  29.2184305
  39.5744491  93.8892269  28.4133911  40.1254606  93.9607906  29.8213148
  94.5904350  37.0978189  85.6211662  94.5485783  36.8287683  84.7035122
  93.8007259  37.6223660  85.7532310  99.8975563   2.6476812  45.5240345
  99.4059753   1.8588193  45.2953911 100.7954025   2.4576569  45.2520037
   4.4809011  96.1366272  14.3508303   3.5313258  96.2483406  14.3054545
   4.7138640  95.7263374  13.5179901 109.8370171  82.0242310  94.9288940
 110.7864285  82.0408916  94.8081398 109.4855022  81.9025803  94.0469265
  64.7872543  19.5993507  39.0721798  64.2401457  19.0501726  39.6337032
  65.2729893  20.1555991  39.6811819  32.5600529 105.2688217   9.9610454
  32.1208668 105.9757042  10.4339695  33.1438851 104.8739433  10.6086886
  14.7430944 105.6764603   1.7088421  15.4270852 105.2956581   2.2596382
  14.6250224 106.5623283   2.0516877  61.0254574  90.7864380  23.5824180
  61.8039274  90.7766247  23.0255318  61.3654804  90.9207535  24.4670510
  10.6417179  76.3640404  20.4502988  10.1433206  76.3004684  21.2650323
   9.9783009  76.4988565  19.7735906  80.1980209   8.2066965  32.5845432
  79.4551992   7.7280015  32.2167110  80.7291412   7.5339913  33.0106997
  20.9582376  97.6897526  37.8861523  21.3582349  96.8202496  37.9001284
  21.5598917  98.2382965  38.3894944  44.6807861 109.4252396  22.1997619
  44.3500233 109.0484047  23.0151272  45.5169630 109.8233223  22.4417758
  41.2897635  90.0490952  35.9721494  40.4969978  90.0195408  35.4365373
  41.0344934  90.5439854  36.7507076  81.1007309  91.5146351  27.4213195
  81.6571140  91.1298752  28.0985427  81.5307331  91.2832260  26.5980458
  70.4156351  29.3441367  32.2330689  71.3650274  29.2622328  32.3235250
  70.1333284  29.7667480  33.0441999  24.2364287  36.3198471  20.0344086
  23.5702276  36.4276743  19.3555975  23.7424994  36.3024879  20.8541417
 112.2181416  36.0318995  45.0750542 112.7960110  35.2691841  45.0986576
 111.4066410  35.7302856  45.4833841  31.7977333  51.0781193  18.1564319
  31.4677858  50.2266312  18.4433639  32.7502370  50.9897184  18.1903827
   2.9573438  62.2709513  21.5978861   2.3987395  62.5220633  22.3335028
   2.8851300  63.0004406  20.9823680  72.1148968  11.7133009  89.7397709
  72.7878284  12.3901451  89.6671486  71.7616177  11.8205714  90.6229019
  20.0262761  45.3598785  13.1355166  19.0868402  45.5423975  13.1160057
  20.3963161  45.9370089  12.4675190  11.7816603  53.1054592  32.0627832
  11.3675165  53.1546926  32.9243469  11.4816225  53.8921785  31.6075039
 116.1103344  24.8802447  26.5832472 115.2142906  25.0732851  26.3074398
 116.5457535  25.7325745  26.5964365  26.0055971  10.1278138  18.1254399
  26.2858915  10.8592010  17.5752223  26.8212795   9.7133273  18.4066784
   6.7506868  44.2219734  35.8658838   7.2366643  45.0460052  35.8338308
   7.3894083  43.5790491  36.1739731  60.6850243  82.8665352  70.2780247
  60.0457287  82.5590515  69.6353865  61.5347004  82.6673126  69.8848391
   0.1734602  55.1049709  54.8531151   0.2981833  55.6319809  55.6423807
   0.4064862  55.6919909  54.1338539  40.7105684  99.0549278  82.6124382
  40.4435587  98.4104061  81.9570541  39.8879194  99.4195271  82.9388618
 102.5508118  62.4359131   4.8724332 102.6003742  62.1396351   3.9635903
 102.1481323  63.3027124   4.8201597   0.8303509  21.0464811  81.7344093
   0.2975236  20.4651785  81.1918163   0.7114754  21.9129491  81.3453960
 113.3890247  37.3629570  13.9240456 113.5772705  36.4366102  13.7734532
 112.7352238  37.5853372  13.2612252  13.7769556  56.8557358   8.7306792
  13.4799659  57.7295542   8.9845765  14.1857767  56.9811440   7.8743088
  21.9656301  58.2175684   1.0078667  22.9066968  58.2119036   1.1827749
  21.8090534  57.4130011   0.5135116  22.1704888  49.5439243   0.4111948
  21.5937996  49.1943598   1.0905091  21.9650984  49.0260267  -0.3671559
  43.0942583 108.8854504  84.9951935  42.4377775 109.4553471  85.3957939
  43.9313745 109.2249393  85.3117561  22.4512839  23.0069041  37.0446181
  21.8643117  23.1348133  36.2994099  22.6521230  22.0710778  37.0334435
  90.9512329  26.0096860   4.2282611  91.7072105  26.5733910   4.0640271
  90.5412102  26.3805223   5.0096637  25.9593821  59.8918724  16.3510621
  26.8422008  60.2609634  16.3763011  25.5644965  60.2689981  15.5648863
  10.1591909  53.6420345   9.7936124   9.3469536  54.0805864  10.0469398
  10.5636287  54.2344379   9.1597992 108.7754726  47.0632315  18.8477027
 108.3077908  46.8075991  18.0526185 108.5488605  46.3874626  19.4866192
  41.3980818 104.5898438  86.8079853  40.7985497 104.4548225  86.0741138
  41.2700939 105.5053139  87.0565128  48.8386059  83.8869667  84.7649384
  49.0110302  83.3026981  84.0266037  49.1763163  84.7367096  84.4818974
 104.5687771  27.3349857   6.2335485 104.3869972  26.5839767   5.6685954
 103.8647175  27.3229265   6.8819213  15.4346490  44.4781590  70.3426170
  14.7842348  45.1416302  70.5728483  16.2746072  44.9318647  70.4122972
  51.5826559 105.7823372  76.2850475  51.1674118 105.0239754  75.8743238
  51.4377594 106.4987278  75.6669712 111.3522625  47.3612213   7.8925133
 110.5760860  47.1683121   7.3666137 112.0742798  46.9575357   7.4109030
  12.2447240  84.2796516  20.4703140  12.7087772  83.4584427  20.3074884
  12.7192819  84.9297237  19.9522078  30.3779037  72.3705624   0.3134788
  30.7793243  72.9759489  -0.3099000  29.5961959  72.8284346   0.6225265
   2.6245812  47.5009537   1.8405977   3.4520671  47.6841259   1.3956866
   2.5927663  48.1343937   2.5575152   7.7911675  48.3943796  46.9513798
   6.9814628  48.9039946  46.9814110   8.4479082  49.0074396  46.6211033
  25.0553346  65.2493572   8.1528389  24.5656729  65.9135962   8.6378706
  24.3969107  64.8145103   7.6109743  26.8598390  62.3274565  30.1128435
  27.7556086  62.6537371  30.0269842  26.8360353  61.9177055  30.9775805
  50.2099228  95.1680851  78.6917496  50.9100056  94.6208572  78.3358574
  50.5612707  95.4989243  79.5183849 100.1434517  78.9800787  29.6529770
  99.6880341  79.7266436  29.2637825  99.4678974  78.3079910  29.7433162
   3.8200340  81.3640499  86.9995880   3.7049720  81.1718941  86.0689640
   4.1468316  80.5461597  87.3744106   9.2526722  64.2310524   4.2876709
   9.6824431  64.5840073   5.0667417   9.2004955  63.2889843   4.4489798
  31.9763923   1.1883985  74.1531372  32.1169496   2.1257919  74.2864370
  31.7242813   1.1124952  73.2328606 108.6943626  78.5678148  28.8526058
 109.5529461  78.1587887  28.7441468 108.1606197  77.8956127  29.2762756
  91.1845398  19.3644249  13.9816689  90.6595898  18.7306058  14.4704819
  90.7543945  19.4245577  13.1286812 116.4553727  44.0888309   8.9409876
 116.8847157  43.6446762   9.6721661 115.5317429  44.1221762   9.1900420
  13.5783386  56.8985558  31.7094731  13.9706743  56.8263865  32.5795865
  13.6044121  57.8347778  31.5118885  14.8366570  50.1867294  29.6707082
  15.0191092  50.3855085  28.7523246  13.9011443  50.3619528  29.7724152
  10.3819585  56.3018322  58.7734318  11.0823607  56.4608002  58.1406593
  10.3539383  57.0976067  59.3046427 105.4958725  40.8664703  85.8406925
 105.8128834  41.7581177  85.6968307 105.1906204  40.8642530  86.7479134
  12.6648450  53.0366421  54.3755341  11.8703437  52.8944540  54.8901033
  12.3775053  53.5683346  53.6332607  15.8507013  39.1433835  32.9790092
  16.4931369  38.4528208  32.8158188  16.2294173  39.9234724  32.5737119
  81.2130928  21.3211012  12.7490032  81.8080425  21.2903643  13.4982228
  80.3595638  21.5286994  13.1292939  62.3724461 107.4035835  87.4267769
  61.6307974 107.7501869  86.9307423  61.9842529 107.0677376  88.2347107
  43.7724400 102.8595924  89.4227695  44.1684151 102.5846386  90.2497101
  42.8344631 102.7140999  89.5462894 104.8712254  35.6371498  32.7537322
 104.0655231  35.2111912  32.4610972 105.5418587  34.9582648  32.6789236
 110.2518368  46.8789577  55.4488373 109.7053719  46.2219191  55.0176668
 111.1304188  46.4990520  55.4459572  20.5327678  65.9336758  38.0481744
  20.2936792  65.1186562  38.4895492  20.1675105  65.8453655  37.1678233
  29.8212576 107.3641396  27.4250293  30.3149843 107.4046230  28.2440710
  29.7749162 106.4304829  27.2191978  24.2661762  93.4282589  15.9178865
  23.8417912  94.2589283  16.1326396  23.5999823  92.7651596  16.0987341
  74.5889187  93.9209557  90.2436543  73.8176394  93.4819221  90.6022739
  75.3251982  93.3750916  90.5196190  10.2018750  18.9175618  88.5944462
   9.9623597  19.7474694  88.1819916  10.0952733  19.0766442  89.5322990
  26.9267488  90.1814938   3.5821730  27.3302698  91.0088634   3.8445953
  27.1338773  89.5772648   4.2950764  51.2279749  83.4813309  19.4049037
  51.2264967  82.5344753  19.5452738  51.7118692  83.6015701  18.5878229
  76.9288349  22.5942540  70.3266764  77.4965620  23.3370543  70.1213408
  77.2572470  22.2659802  71.1637020  14.4784641  64.1640282   6.7103928
  13.8445795  63.4765244   6.5060329  15.1556516  64.0723562   6.0401356
  30.6804538  42.2557640  15.7277143  29.7304082  42.1664286  15.6524301
  30.8933234  41.8500471  16.5681386  14.7565663  93.2150650   5.9329849
  15.4045796  93.4220314   5.2595782  15.1740420  93.4736156   6.7546290
  60.9363985   4.7032332  26.2360477  60.3213453   4.1777581  26.7477322
  61.7992640   4.3719992  26.4850092  18.9049983  81.5267754  24.5088530
  19.5081067  80.7963753  24.3710041  18.1816518  81.1489582  25.0091124
  76.1593914  10.9332013  86.7031479  75.6843853  11.6693997  86.3176537
  75.6561327  10.1613414  86.4439392   7.1732157  90.0066948  16.4548814
   6.4613861  89.5694923  16.9222009   7.6101261  90.5343151  17.1234250
  25.3140235  72.6703787  16.8667591  25.1386738  72.9873514  15.9807491
  24.6530294  73.0996799  17.4099147 109.6621799  21.8168974  23.2028246
 108.8308716  21.3805938  23.3893824 109.8437023  21.6049862  22.2871971
  27.4957180  12.7388418  38.2949376  27.1749902  11.8432176  38.4008765
  28.3916068  12.6360273  37.9739332  86.3848619  17.2408403  94.6267261
  86.2652199  16.9551672  95.5324361  85.4982929  17.2759928  94.2675728
  42.2045279  19.0771127   0.7857087  42.2433138  18.4008288   1.4619976
  43.1129742  19.3577385   0.6752336  33.8957214  30.6207609   6.5328157
  33.8863254  31.1680269   5.7475501  33.7061977  31.2265921   7.2492522
  55.9144735  82.6852703  84.0229034  56.0574579  82.4381065  84.9365234
  56.0157156  83.6370564  84.0136147 103.9797115  66.6111994   3.6834854
 103.3844280  66.1289406   3.1096354 104.3090534  65.9524870   4.2949277
  23.4636354  71.9161892  22.6281261  22.8704619  72.1522045  21.9149137
  23.8620257  72.7453756  22.8926325  84.1506863  23.9366770  89.1403484
  84.7271252  24.4642425  89.6931839  83.2898903  24.3447638  89.2337608
   4.3115893  55.7539082  10.0563180   3.3733791  55.8295441  10.2303088
   4.3641615  55.4840565   9.1394496  63.9849663  53.4323072   4.8305604
  63.4791327  53.0209684   5.5313897  64.5271826  52.7256536   4.4800243
   5.7817256  32.1331453  35.2885079   5.2363664  32.4370122  34.5629168
   6.4481729  32.8129482  35.3882575  54.1857958  94.8456764  89.8853970
  54.2858076  94.8861313  88.9342976  54.7674799  95.5298615  90.2167130
  35.3146720  37.0627999  25.5468917  35.9109950  36.9663453  24.8043776
  34.9791527  36.1796594  25.7009149   9.2069745  62.4250460  21.1530399
   9.6225190  63.2398272  21.4353204   8.3376801  62.4484301  21.5530539
  18.9618003  75.9052086  41.5503073  19.5535135  76.6270828  41.3381624
  19.3700421  75.4735422  42.3007965  24.1387320  27.9404998  22.8400779
  23.4563541  28.0405807  23.5038352  23.7015796  28.1474400  22.0140600
   7.8738356  84.8669338  24.1961384   7.1502572  84.2607307  24.3548393
   7.4743807  85.7353020  24.2472243  97.0602894  20.7376599  83.1856060
  97.9054832  20.2892113  83.2134438  96.5107822  20.1791072  82.6357841
  11.7877853  15.4889417  82.5579834  11.4303875  15.0764573  83.3443356
  11.1038113  15.3783274  81.8975449   9.6158504  67.0678234   3.6631864
   9.2075139  67.2021008   2.8079304   9.2564523  66.2362432   3.9722803
  23.7092066  79.2541647  22.8827119  23.0011106  79.8783255  22.7237892
  24.5055103  79.7302914  22.6472521   1.9854045 105.6118774  19.3926287
   1.6704114 105.9364510  18.5490274   2.2393894 106.4000225  19.8727918
 113.3072090  65.1350546   0.3598842 112.7126694  65.7960558   0.7146044
 113.6614323  65.5334520  -0.4351225  13.5177255  58.6358118  39.2782402
  13.2977068  58.9185095  38.3906007  12.8697383  59.0678549  39.8347354
  96.0396671  36.8399715  62.4170303  96.1626911  36.6746306  61.4822817
  95.1598740  37.2116399  62.4807596  60.4625034  37.2048068  92.6965332
  61.0745525  37.8927183  92.4349880  60.2041054  36.7887521  91.8741226
 101.3159466   5.1674420  79.9790144 100.8009815   4.3673214  79.8748827
 101.5946674   5.3901845  79.0907955  10.9783053  50.4141092  90.4038811
  10.2317822  50.4404831  89.8053455  10.7166481  49.7956848  91.0860252
 105.8450413  32.7776408  82.4872494 105.0298309  33.2332182  82.6972675
 105.6096458  32.1805787  81.7770767  58.6637068  77.1452999   2.1065924
  59.2790365  76.7589617   2.7297667  59.0351772  76.9446754   1.2475285
  38.8343525   2.0184441  15.2002978  39.4982648   1.3448909  15.3478777
  38.6280489   2.3471826  16.0752845 105.2337837  11.7166209  67.4410915
 105.1023388  10.7988369  67.6790571 104.5530605  11.8957174  66.7924118
   6.9332021  83.9690971  17.3035026   7.0316321  83.0214214  17.3954797
   7.3199135  84.1684246  16.4508867   9.6400094  56.4101124  13.7476170
   9.0263510  55.6757689  13.7675738   9.8429459  56.5275049  12.8195727
 111.9958687  28.1687403  83.0974770 112.4287891  27.3569202  82.8333473
 111.0763264  27.9257178  83.2052517  83.5796833  32.7971792  87.5216389
  84.4207191  33.0985880  87.1780682  83.6136818  31.8443990  87.4362946
 101.8893337  26.4938784  59.7027779 101.9999409  25.6583643  60.1565552
 102.0580387  26.2908959  58.7826872  69.4067001  13.1071436  63.2480335
  69.9501657  13.1605327  64.0341806  68.8403320  12.3504603  63.3993244
  93.3215809   4.8083618  64.6721792  93.2517624   5.4747355  63.9885807
  93.1736565   3.9802709  64.2154312  15.3119564  21.0863209  77.7797270
  15.7734108  21.9210863  77.6993752  16.0071909  20.4383254  77.8936625
   1.5144321  87.8625965   3.0225673   2.2082654  87.6438618   2.4004905
   1.3859503  88.8051796   2.9163688   2.9583070  89.7629070  48.1041193
   2.4301028  89.0458679  48.4549475   3.3281729  89.4134903  47.2933531
 113.7884235  80.9422779   1.2149762 113.8827229  81.6147900   1.8895671
 112.8498936  80.7554817   1.1925411  49.2632580  44.2872095  88.1763077
  49.0820789  43.9101648  89.0372658  49.9913263  44.8900127  88.3272171
  18.5443723  70.3710175  21.7721486  18.5981810  70.1894188  20.8338737
  17.6088500  70.4825068  21.9412637   6.9438136  42.2005558  66.9000435
   6.8867505  41.4429283  67.4822617   7.8802770  42.3912716  66.8462324
 112.1675968  42.3403931  16.7162859 111.7811584  41.7735577  17.3838103
 111.7408657  43.1874704  16.8451047  19.0476036  92.5533485  38.9315724
  18.8961852  92.2240734  39.8175097  19.7719502  92.0230007  38.5994840
  13.8272607  72.8579998   9.0646619  12.9413915  72.9706192   8.7200087
  14.3621743  72.6698875   8.2934874   2.1008310  87.7441978   5.5388379
   1.9244948  87.5772762   4.6129465   2.2297829  88.6912251   5.5911613
  61.5249729  30.4956579  89.8048687  61.7420578  29.9774194  90.5798054
  61.6569328  31.4032245  90.0789928 112.7219145   1.4677538  94.4569228
 112.5409882   0.8006395  95.1190807 111.8694060   1.8641533  94.2771217
   1.6274719  32.1622777   2.7433169   1.9690619  32.6763678   3.4749323
   1.0699618  31.5016794   3.1544423  32.3825669  53.9095402  21.6937709
  31.8755817  53.8743973  22.5049210  32.9641390  53.1507874  21.7417574
  40.3234386  99.4879818  28.4254098  40.2866983 100.1539803  29.1119337
  39.4295859  99.4445705  28.0857372 115.1888084  33.0769515  77.5101376
 116.1271000  32.8919554  77.5504255 114.9650097  32.9795742  76.5845776
  59.4266465 109.0000986   6.9235647  58.6589864 108.9069897   7.4877077
  59.0760758 109.3228418   6.0934025  28.8433480  85.2334213   1.3797756
  28.3207488  84.4316483   1.3963898  28.5415006  85.6999588   0.6003765
  43.8180017  81.0793686   1.9911145  43.3908129  80.3452587   2.4325055
  43.1030416  81.5502930   1.5629828 114.6412277  42.9693842  79.5023108
 114.2952061  42.3058081  78.9055157 115.5560780  42.7200890  79.6332169
  39.1370296  69.6634340  10.5612230  39.7874188  70.3604317  10.4751122
  39.1308522  69.2345524   9.7055036  76.4224672   9.0164942  83.9819050
  77.0204258   9.7572243  84.0818787  75.6872272   9.3682581  83.4799862
  18.1308782   9.6214712  66.8698454  18.3999395   9.7303557  65.9577179
  17.1759319   9.5671260  66.8330145  29.9760818  55.3836489  27.3682737
  29.1109514  55.4854679  26.9715142  29.7966075  55.0994396  28.2645130
  14.2738438  55.0047159   4.4203565  14.0614367  55.7312012   3.8344061
  13.9199722  54.2313814   3.9810869  34.9363685  79.2137289  15.6826997
  35.5287385  78.4901857  15.8871734  35.2941370  79.5972061  14.8819637
  11.1818874  54.3209028  77.7377033  10.2530742  54.0934658  77.6951647
  11.2100816  55.2536392  77.5245333   4.4342807  44.1808224  71.8233824
   3.9803821  44.2684984  70.9852171   3.7546802  43.8982821  72.4353838
  70.4089117  81.6560650  26.9424558  69.6196413  81.7983532  27.4649858
  70.3610420  82.3167419  26.2514806 113.7707901  45.0455046  91.9672680
 114.1554832  44.2265415  91.6549397 113.9323616  45.6707764  91.2607479
 103.1835079  14.6894050  88.6742306 104.0824986  14.4072366  88.5056496
 103.0779743  15.4809797  88.1464958  13.1285310  59.3894053   4.2307398
  12.3798907  58.8346004   4.0117383  13.6851001  59.3587780   3.4525841
  93.5918045   6.2719446  89.0773964  92.8022861   6.3823259  89.6072197
  94.2242718   6.8797404  89.4605350 113.6741257  36.8847871  84.5282269
 113.6596870  36.0539579  84.0530968 114.3691254  37.3899412  84.1063023
   8.1632638  59.7981453  35.8234382   7.2912717  59.4210243  35.9402347
   8.0004346  60.6745768  35.4747438  35.6063986  89.6579552  18.9340138
  36.0340762  89.2402267  18.1864631  35.2018905  90.4451370  18.5694051
  69.4777679  87.9044056   8.7718052  69.3988800  87.0148849   9.1164422
  69.9500990  88.3839417   9.4523799 105.7006073  25.3641915  82.6989460
 105.1697636  25.6579328  83.4393215 105.4081440  25.9047556  81.9651318
  23.5929084  68.3024883   5.4309946  23.9820361  67.4765253   5.1435930
  23.9492130  68.9569664   4.8302132   3.5539207 102.9523087  38.1028581
   2.9522040 103.6112595  37.7565122   4.1699529 102.7912712  37.3881555
   1.3475774  65.7488346   9.2356491   2.1571214  65.2651691   9.0715224
   1.6366267  66.5755796   9.6218836   7.9544026  16.9414353  92.2093201
   7.0189196  16.7934668  92.3479176   8.3331436  16.0630715  92.1737862
  38.6162186  65.8510780   6.3374931  37.9922628  65.2144718   6.6862732
  38.5517359  65.7538891   5.3874254  11.9864750  80.1366043   0.7050757
  12.3364079  80.5745125  -0.0708213  11.6894162  80.8503914   1.2694319
  25.8953476  56.5574026   2.2316396  25.9877706  56.2746429   3.1414410
  25.2995014  55.9179163   1.8414353  13.0436301  46.1747503  88.0879974
  13.6185980  45.4674959  87.7957058  12.7187204  46.5692472  87.2786522
  47.6154661  88.9884949  11.9537914  47.4775219  88.2753277  12.5771666
  48.2180262  88.6258316  11.3044596 106.8289375  90.9932995  24.0895295
 106.7877293  91.5202045  23.2914686 107.4089432  90.2653217  23.8662171
  97.0554638  44.6590853  93.0422688  96.7431641  45.5578899  93.1464005
  96.2695217  44.1203642  93.1334686  82.5323105  16.4084840  65.2161312
  82.0107365  16.6747105  65.9733057  82.0252800  15.7045794  64.8115730
 108.7194347  23.5135007  87.5812817 107.7977371  23.2555199  87.5933743
 108.7950420  24.0966654  86.8260193   9.1004479  33.5541797  82.1691799
   8.9772290  33.5612965  81.2199688   9.9877030  33.8894463  82.2980404
  14.3944180  94.9740791  30.7928419  15.2639985  94.9397945  30.3942370
  14.4107580  94.2902851  31.4624596  32.1491241  82.0164871  28.2428980
  31.9217634  81.8759918  29.1620278  31.3775611  82.4407005  27.8674507
 110.3416538  49.6976376   5.5265546 111.1770248  49.9803591   5.8986390
 109.9347496  50.5044842   5.2108705  24.3896866  58.6330795  23.5806251
  24.0380454  58.3043814  24.4079947  24.2287636  57.9270458  22.9546428
  33.5912323  58.9532042  11.9427311  33.0872083  59.4035101  11.2649274
  33.7141252  59.6113396  12.6268256  32.4809265  86.8317318   6.4522731
  31.5566397  86.6559315   6.6284001  32.4776888  87.3406315   5.6415683
  19.1664851  74.7082710  26.5995765  20.1119351  74.5606184  26.6231847
  18.8999021  74.4146872  25.7283854  15.8536482  73.8046360  10.6936514
  15.1247239  73.3608961  10.2600670  16.0967827  73.2202625  11.4117217
  21.1695695  46.7884016  11.0676372  20.7100296  46.9244099  10.2390516
  22.0669317  47.0722294  10.8932316  17.1755004  85.4784679   3.9874172
  16.5904212  84.9148750   4.4936535  17.0291972  85.2198315   3.0775094
  31.0028791  96.7043304  17.8399408  30.8473873  96.2116718  18.6457539
  31.8824911  96.4443588  17.5662160  68.3362055   8.4798956  27.2045159
  68.5626745   7.7953565  26.5749526  68.7730265   9.2643714  26.8728328
  67.6215029  78.7812853  23.4151912  67.1582556  78.3501101  22.6970553
  67.5889397  78.1503344  24.1342688  54.4761038  15.3548002  28.1814599
  54.7287798  15.6294143  27.2999978  55.0607538  15.8429503  28.7612247
 107.2201538  41.1476898  81.3432789 107.3831749  41.4014292  82.2517204
 107.8854942  41.6173744  80.8403301 111.4184856  86.6181183  21.0501242
 112.0463943  86.8472385  21.7353034 110.5674744  86.8629265  21.4135480
  44.4601297  68.5452652   8.0559933  43.6799860  68.1791735   8.4726286
  44.4435263  69.4732618   8.2900405  86.7907143  25.6655598  92.7738190
  86.6234303  26.4830256  92.3047829  86.4708138  25.8287382  93.6610985
  32.7639294  56.6485167   7.1023101  32.8474975  57.3049593   7.7939248
  31.8549967  56.3540268   7.1601635  92.5442600  34.4710350  62.3484135
  91.7589474  33.9287877  62.2744036  93.2705879  33.8548660  62.2534943
 102.5366497  27.8044605  86.3947296 102.5555420  28.7591958  86.3287163
 101.8241215  27.6207638  87.0069313  35.9763598  50.3113413   2.0641966
  36.4518619  51.0404730   2.4623087  35.7023716  49.7709703   2.8052518
  19.1215253  68.1513309   5.7522947  19.5805633  68.6336374   5.0646198
  18.5136926  68.7887859   6.1270225  96.8188381 105.4377747  61.5164232
  96.6206360 106.3722992  61.5765810  97.2655582 105.2342987  62.3381710
  18.2087684  71.9792175   6.7101783  18.9455771  72.2004509   6.1406171
  18.2157421  72.6577568   7.3852849  16.3882542  85.3302956  30.8043003
  16.6390252  86.0411644  31.3942266  16.9157004  85.4738045  30.0185299
 100.1819992  34.3317318  56.9910622 101.1237717  34.1616559  57.0104218
 100.0882149  35.0956392  56.4219522  80.0204277  63.3624840  14.9338853
  80.2592659  63.9519215  14.2185140  79.1119099  63.1217051  14.7526479
  19.6358228  41.8840551  50.2847528  20.0677633  42.4139261  49.6147585
  18.9829135  42.4692392  50.6688118  70.4954195   2.9902807  38.2869744
  70.3260231   3.9303017  38.3493972  71.1266613   2.8138211  38.9845634
  86.8484116   3.0886793  21.3848853  87.0681858   3.9752093  21.6712356
  87.0723820   3.0751118  20.4543567  65.3190041  98.5703087  94.4280910
  64.5629406  99.0181160  94.0485191  66.0605383  99.1421318  94.2296600
  55.7166672  12.8398108  75.0355721  55.9505415  12.3868728  75.8457518
  56.4952993  13.3502114  74.8131800  16.7552900  83.5718155  15.6792593
  15.9049821  83.3195400  16.0392058  17.1044934  84.2023087  16.3091588
  77.4712801  95.6446171  11.6309309  77.7743673  96.1279774  10.8623385
  77.4396944  94.7322941  11.3430142  32.7513051  94.8979664  12.7661073
  32.7657223  94.2744160  13.4922004  33.0454445  95.7227039  13.1527853
  42.5404167  80.9122658  28.0979228  43.2258987  80.2451420  28.0619597
  42.0269728  80.7712269  27.3024917  50.9964371 108.6048698  83.7935925
  51.6427708 108.7199306  84.4901848  50.1592922 108.5360336  84.2525959
 105.0349236  55.5819654  81.2518978 104.1586685  55.9490633  81.1350918
 104.9308777  54.6492147  81.0638046  91.5709972  31.4329743  94.3874168
  92.3989391  31.9122338  94.3549728  91.1948967  31.6618729  95.2373505
  13.6732090  75.5541897  24.4060612  14.2303324  74.8538351  24.0664339
  14.2774177  76.1427259  24.8585939  52.6061964 104.7699261   6.2559950
  52.5682306 104.2504311   7.0590615  53.5403872 104.8382950   6.0588986
  39.1265225  97.4090862  86.6733265  39.1986060  96.6510963  87.2533989
  38.2162929  97.6920128  86.7609024  17.1602058  15.7149339  75.9010410
  16.8752360  14.9481785  75.4039383  17.7160096  16.2018466  75.2925730
  31.0906744  91.3147259  23.5471177  31.9303823  91.5426350  23.9460874
  31.3152242  90.6923580  22.8554058  77.8254366   1.3841151   8.4570295
  77.8415966   0.4498205   8.2495099  77.8217793   1.4169557   9.4136590
  32.2175312  72.0156145   7.2621322  32.3835588  72.6563263   6.5706426
  31.5374565  72.4174643   7.8027314  16.8097448  76.3210011   2.9634151
  16.1494732  76.1691570   3.6395937  16.9067383  77.2727823   2.9328069
  18.0351913  76.4307213  22.7553940  17.6759934  76.6800976  23.6068749
  17.2669744  76.2293720  22.2210407  29.8441386  90.5384445  39.0489674
  30.5286670  90.6016731  39.7150421  30.1419616  89.8410130  38.4649062
  25.5419254  54.7232294   6.8080378  25.1528120  55.1984406   6.0738736
  24.8066211  54.2618608   7.2113931 110.4111099  18.1340957  77.8256607
 111.2232780  18.6120677  77.9935026 110.6970692  17.2968197  77.4603796
   6.0539693  87.0141125  34.2221856   6.3168371  86.2897301  34.7899818
   6.5557599  86.8822002  33.4178019  16.8934631  99.9795723  12.3461580
  16.7517674  99.6792412  11.4484084  17.7213132  99.5754242  12.6060724
  14.0752578  95.8253670  17.7505565  13.4528995  95.2309322  18.1695378
  14.0489316  95.5856991  16.8242228  99.0594482  30.0074816  93.4148407
  98.7115479  30.8374619  93.7409115  99.7577381  30.2610898  92.8112602
  32.7840304  71.0017300   2.8725603  32.3839879  70.8119249   2.0239313
  33.7180257  71.0901499   2.6826552  99.1242886   5.9276795  92.1431541
  98.2474804   5.6619304  91.8659878  99.1287613   6.8796551  92.0433807
  83.1510925  29.0057516  79.3427134  83.2837772  28.8515973  78.4073734
  83.9240646  29.4997501  79.6160507  26.5541911  69.9670315  11.6476953
  25.8823872  69.7016811  12.2757876  26.4204121  70.9083843  11.5372860
  41.5307617   6.3101333  90.4385376  40.6770992   6.3982081  90.0145817
  41.3252449   6.1399317  91.3577843   0.2899132  44.1305923  43.7591505
   0.1417790  44.3578100  42.8411865  -0.3377666  44.6673346  44.2430496
  30.7162674  75.3763996   0.0344814  30.2447326  75.2406941   0.8563483
  30.6138904  76.3102518  -0.1490151 100.7953358   2.4183279  80.0629997
 101.3706875   1.8316072  79.5721292 100.3435135   1.8466783  80.6837273
  55.1866817  89.1803551  91.3825226  54.8429871  88.3706188  91.7599201
  56.1120749  88.9958000  91.2218285   8.6619401  71.6460562  91.3145828
   8.3310664  71.0100794  91.9488525   9.1868764  72.2533941  91.8359470
  56.0059690  24.6385860  78.8688040  56.0753536  25.5846643  78.7409163
  56.2466574  24.2640591  78.0214405  22.8556037  70.6319809  19.3720233
  22.0584989  70.9237814  18.9296317  23.3763504  71.4282274  19.4771624
  87.9172802  70.9070015  86.6932201  88.8315392  71.0352707  86.4404011
  87.7260399  70.0014544  86.4490032  40.1046848 104.0364838  16.8092382
  39.2941093 104.3319321  17.2238576  40.7889175 104.2451954  17.4452376
  26.3021278  60.6126261   5.4271710  26.3502622  59.6566439   5.4308540
  27.0391774  60.8874559   4.8817709  29.4735408  97.6032639  24.0032125
  29.5079613  96.6549969  24.1290021  29.5204258  97.7208805  23.0544233
  49.7685766  52.5962591   1.5866330  49.7132015  53.4197187   2.0714799
  48.9737034  52.5782156   1.0536384  32.2108078  80.0989532  20.3353262
  32.7560639  79.8670816  19.5835543  32.6110172  80.8950615  20.6850076
  16.8330014  60.8726025  71.5781879  17.4606121  60.2754354  71.1710882
  16.0097933  60.3842831  71.5885353  38.3905721  86.6638470   2.2728638
  38.0077505  85.8368397   1.9800444  37.6600170  87.2822666   2.2643130
  23.8110948  79.5502138  32.5892425  24.5285583  79.0829849  33.0172276
  23.0404377  79.0061808  32.7515602  71.9289160  13.2645571  31.8455887
  72.5785255  12.6039553  32.0860982  71.2267733  12.7680850  31.4251852
  18.9387083  12.1534240  92.5339317  18.4838641  12.7094305  91.9013119
  19.2895627  12.7648544  93.1814575  85.6460571  75.0376654  80.0675201
  85.3994751  74.5059681  80.8243084  86.0450745  74.4165659  79.4582176
 110.0234413   7.2076792  94.4647026 109.3983364   7.4109113  95.1605320
 109.4780350   6.9944894  93.7075233  50.6202745  70.2859259   5.5311179
  50.0954914  70.4786873   4.7541511  50.6011057  69.3315697   5.6023610
  49.7700739  96.7517281  21.4403582  50.6843758  96.4697933  21.4685321
  49.2883444  96.0457611  21.8713808 113.2939434  39.0579724  73.8677502
 112.5018215  39.5210361  73.5950708 113.8456726  39.0461183  73.0856514
  20.0847435  44.8435163  84.6346378  20.7133460  45.5653811  84.6357250
  20.6251717  44.0553999  84.5794773 106.9261742   1.1907306   1.5561491
 106.8745041   0.3100605   1.9276077 107.8532791   1.3096164   1.3497970
  63.4745264   6.7923987  14.8669636  64.1009903   6.2155551  15.3040278
  63.8979816   7.0232499  14.0401447  95.7083797   5.2892053  39.6035957
  95.4080772   4.6692881  38.9389515  96.6129017   5.4838634  39.3582845
  13.3856905  41.7192793  21.2701511  13.9607441  41.5250683  20.5299973
  13.2209802  40.8678532  21.6753364 116.5563965  39.7051334  87.9202271
 116.6116905  39.2978048  87.0557880 115.7961178  40.2839708  87.8640556
   1.8122017  26.4007807  76.8466139   1.0142720  26.3886142  77.3751879
   1.5099606  26.2390518  75.9529018  45.9194326   9.3446678  10.5439079
  45.4048777  10.1506388  10.5006170  46.2953472   9.3474919  11.4241982
  53.5708770 109.4102083   0.4483188  52.8654823 108.8029467   0.6716693
  54.1945097 108.8805948  -0.0484978  34.0838647  89.5542240  25.5444670
  33.7819171  90.1967049  26.1865616  34.6646857  88.9760685  26.0390496
 116.4922936  27.0907640  80.0206852 116.3644123  27.4315023  80.9059906
 116.1290872  27.7671027  79.4489479  46.2206602  70.7883072  14.5029926
  45.5420256  71.2836313  14.9616206  45.7799864  70.4388618  13.7284434
  33.5581541  97.2416401   4.9426213  34.2159677  96.5967274   4.6826437
  33.2704210  97.6356316   4.1190809   4.5671126  21.5191817  66.1486292
   4.9795854  21.2039089  65.3444529   4.5274258  22.4694610  66.0408068
  48.8062239  84.5772362  17.9057193  48.3487415  84.3217468  18.7067616
  49.6856403  84.2126846  18.0054879  59.1376352  76.2827349   6.7656392
  58.1941080  76.1283922   6.8122113  59.4419336  75.6983709   6.0712641
  37.9575562  83.1733322  13.2439148  37.6108694  83.1033993  14.1333807
  37.2671604  83.6178780  12.7520180  34.1745186 104.0764332  30.0505567
  33.5044074 103.7614727  29.4439411  34.4857907 104.8932648  29.6605325
  93.9813805  38.3701420  93.6819649  94.5699024  39.0685177  93.3953476
  93.5968018  38.6993551  94.4943428   5.8130091  90.5456448   5.5433345
   6.6694063  90.2404118   5.8427435   5.7143080  90.1641464   4.6710110
 114.4893360  40.4287148  78.0837631 113.5825157  40.1772499  78.2589436
 114.9869919  40.0510025  78.8089609  94.0134048  87.1156883  79.7040272
  93.2205772  86.7331409  80.0799465  93.7081623  87.9006577  79.2491961
  33.2384300  86.2873459  27.2786188  33.3735037  85.5154324  27.8282928
  32.5988150  86.0064411  26.6242361  28.9412737  89.3237019  30.1987410
  28.3309937  90.0564003  30.1153493  29.3381977  89.2427063  29.3314886
 115.8628654  84.1521645  62.7441740 116.3504791  84.7138214  62.1416712
 116.1688232  84.4108868  63.6134815  38.8533497  97.0260906  25.5448580
  39.3148708  96.4329147  26.1376286  38.6271262  96.4824390  24.7902083
  18.3967912  67.3393106  66.5157032  18.1468558  66.6354036  67.1142673
  18.7223709  68.0350494  67.0868206   4.1465726  38.2124877  79.4987392
   4.2345142  37.9611468  80.4181576   3.7043896  37.4692464  79.0884972
  93.4078598  29.3640995  68.7215900  94.3490696  29.3140793  68.5547113
  93.1807423  30.2762723  68.5410547  48.0994320 105.0109196  23.0674839
  48.6312866 105.4425240  23.7361193  48.3923864 104.0997314  23.0797529
  70.6171560  87.9733372  18.1026268  70.5973244  88.7416458  18.6731827
  70.0396872  87.3416901  18.5313201 109.8365688  56.1188364  77.2187614
 109.1065407  56.1021471  76.5998793 110.3574371  55.3473997  76.9955921
   0.0195290  86.0570431  10.9863782   0.6937023  86.3413143  10.3691947
   0.0780843  85.1016521  10.9817576  53.3412361  99.7858620   5.9131533
  53.9481449  99.2447853   5.4080456  52.5238705  99.2877483   5.9185225
  97.7702427  57.9115725  91.5324116  97.5088215  57.1119881  91.0757256
  98.5928822  58.1675577  91.1153126  97.1993160  39.7094107  94.7499275
  96.6323566  39.8957109  94.0015507  97.9242611  39.2045712  94.3813896
  30.7707548  85.4613495  17.8453827  30.3069043  84.7904491  17.3444176
  30.1317620  86.1662102  17.9507136  25.1657891  28.4133053  89.8981571
  24.3707132  27.8815222  89.9341202  25.8115244  27.9127002  90.3968048
  18.5632861  62.1979094   9.5473021  18.7455440  61.2582970   9.5353025
  18.3023858  62.3797655  10.4501259  29.4456005  98.1052494  21.1054897
  28.5761976  98.4787846  20.9611344  29.3429589  97.1749878  20.9046769
   3.2408419  93.1598377  30.4931712   3.3546647  92.9109764  29.5759249
   3.6009216  92.4235344  30.9875703  32.7602196  42.6886177  80.9569263
  33.3049107  43.0437517  81.6593742  33.1297040  43.0604887  80.1560402
   9.1785657  92.6913261  22.3060322   9.1052914  93.4512806  22.8833699
   9.9532944  92.2253895  22.6205730  99.4891930  16.3770366  51.8972969
  99.4008350  15.6682718  52.5345373 100.1232338  16.9759834  52.2916126
  23.2313538  67.4793005  14.2528677  22.6460171  67.6826811  14.9824214
  23.0532336  66.5605545  14.0518355  22.9485774  90.6401348  14.5298934
  23.1469774  90.1739979  15.3420413  22.0100069  90.5049896  14.3993163
   4.5547670  35.3529263  78.1416225   4.3226981  34.8729587  78.9366102
   5.4980654  35.4975080  78.2158947  12.5191510  17.8601813  87.1844959
  12.5496554  16.9046247  87.2315407  11.6791475  18.0927670  87.5801373
  28.7606764  94.6124744  17.5916636  28.5838580  94.1013432  16.8019104
  28.8283134  95.5157471  17.2822094  26.6646218  74.7223616  18.0127501
  26.5093780  74.3835402  17.1310866  27.1679139  75.5249500  17.8757298
  55.9474707  74.4071817  12.0912814  55.1421881  74.9163246  12.1836269
  56.4854050  74.9175072  11.4859486  18.9912796  16.4586711  88.2583523
  19.4984090  17.2538126  88.0946350  19.6346354  15.8256567  88.5771275
  64.0128088  20.3981352   4.5327681  63.6051226  19.6863317   4.0394533
  63.2768965  20.9197903   4.8529854 107.1547127  35.8221889  84.4184113
 108.0065346  35.7817078  83.9836788 107.2600365  36.4967322  85.0893307
 106.2764454  65.9319782  94.0427494 107.1158886  66.3913822  94.0655041
 105.9036446  66.0710192  94.9133301 103.7223721  31.3549089  90.1193714
 103.2005215  31.6896462  89.3900871 104.6259022  31.3959551  89.8060417
  24.3426991  31.6155267  75.5489063  23.7375855  31.3361549  74.8618698
  24.7228909  32.4288726  75.2170134  36.0606432 102.5972080  31.0945702
  35.2581573 103.0768585  30.8892035  36.2954545 102.8892040  31.9753814
  98.6439323  14.6820474  86.2942696  98.5258389  13.9105022  85.7401848
  97.7942276  14.8053765  86.7173862  39.7514462 100.3980541  12.4277353
  40.6425571 100.0889111  12.2647023  39.6263862 100.2824211  13.3696604
   7.6798284  18.1957150  88.0062389   7.2985756  18.5750651  88.7980556
   8.6200750  18.1668413  88.1832504 100.3949928  70.5952740  86.1298370
  99.9259758  70.9403801  86.8895435 101.2697792  70.9785032  86.1940384
  78.3830070   1.9116522  93.3764362  78.0290222   1.3238107  92.7090740
  78.0890799   1.5363251  94.2064762  35.5137157  90.4066181  28.3526635
  36.0841680  90.6577492  27.6261997  35.1389337  91.2322712  28.6593723
  35.6105447  87.3385906  30.7282662  35.4880786  88.2400131  31.0260367
  36.5512204  87.2653103  30.5670547 100.2341366  55.4287815  84.2392063
 101.1231709  55.5919075  84.5542145  99.9404144  54.6650410  84.7358513
  93.0269718  13.6828589  77.6544523  92.5242329  14.2682195  78.2208776
  93.2714748  14.2261469  76.9052601  91.9434166 107.5882339  82.9125786
  92.5546646 108.2887077  82.6846504  92.1815586 106.8645668  82.3330593
  13.2937717  87.2823715   1.8481699  12.8503764  86.5440083   2.2658414
  13.8112521  87.6786613   2.5491735  35.4876709  73.8311481   6.3257307
  34.7439098  73.5167646   5.8117151  36.0553217  73.0660200   6.4183509
  27.6995063 102.8306484  56.6662264  27.2936678 101.9651794  56.6163731
  27.7277756 103.0283737  57.6023579  95.5841541  11.9008923  93.0600262
  96.4645100  11.7696273  92.7079296  95.7257557  12.3193288  93.9091969
   5.7347941  66.6286612  67.0285177   5.4445559  67.2177935  66.3321543
   6.0273015  67.2116756  67.7290630  17.6526988  53.9844179  65.4157639
  17.0903730  53.2912254  65.7614565  17.1713126  54.7930098  65.5909348
  21.3791943  34.9932313  92.4371338  20.6113100  34.4282079  92.3514938
  21.4537239  35.1551485  93.3775902  19.8561561 106.8029690   3.7821305
  19.5318806 106.1754608   3.1361353  20.8040476 106.8150043   3.6495164
  38.9555764  88.8591003  11.8183780  39.0659595  88.0206680  12.2667956
  39.8182297  89.0488338  11.4495146 103.0456448  20.4973054  71.6780186
 102.1308136  20.4013610  71.4132357 103.3883286  19.6035683  71.6837263
  48.2032347  48.8973618  54.1615105  47.4772406  48.7047243  53.5681677
  48.4280062  49.8092794  53.9768076 102.0585060   8.2082123  15.6752992
 101.4308071   8.9291775  15.7246053 102.7632141   8.5417414  15.1199734
  26.0379577  91.7233944  14.2664313  25.4239559  92.3820114  14.5911860
  25.5954099  90.8882046  14.4175637  33.2105017  38.9884233  74.7826815
  33.1836796  38.6437035  75.6752491  32.2919607  39.1267729  74.5516539
  98.7622547  58.0573082  80.3986263  98.2427979  58.2199097  79.6112585
  99.6496582  57.9062366  80.0731564  22.0562887  66.3548422   2.6737911
  21.4239168  66.9280958   3.1070545  21.6081285  65.5117559   2.6060262
  73.5718250   3.2927671  23.1824136  73.1613827   2.6126373  23.7164497
  74.4724941   2.9918551  23.0621076  50.2723837  91.2594700  21.0860872
  49.5300961  91.3749218  20.4928660  49.9772501  91.6360474  21.9151354
  94.1234016  61.7060041  16.1848259  94.7398186  61.3309908  15.5558383
  94.0677929  61.0540867  16.8834984  91.0116959  86.6188812  86.7855167
  90.9604931  87.5422096  87.0326328  90.3558826  86.1875916  87.3333549
 100.2225590   1.5696208   7.0552444 100.6359196   1.4301249   6.2032425
  99.4204426   1.0484494   7.0204979  44.7384310  92.2183895  28.1988907
  44.7051144  92.0635033  29.1428900  44.5734930  91.3597488  27.8093266
  18.3973289  56.9086981  91.4784145  18.4009624  57.8250742  91.2018776
  18.7825632  56.9213867  92.3545742  20.3555918  70.6490993  18.2143390
  19.7939086  71.0827208  18.8567710  20.1489711  71.0808516  17.3854065
  58.8747168  70.5860567  18.6683774  58.4539080  71.2231159  18.0910516
  58.7104034  69.7400904  18.2517540  52.7901077 101.9577122   4.4762254
  53.0353212 101.2162018   5.0296324  52.9901886 102.7289486   5.0066876
  36.3194704  58.1619549  14.9197900  36.6703057  57.7376795  14.1367579
  35.9501672  58.9854622  14.6009064  57.6459360  92.0149899  15.7712173
  56.9634676  91.9442177  16.4386475  57.5542355  92.9039097  15.4282129
  64.0794563  84.3966770  15.4541969  64.1481304  84.0031719  14.5843291
  64.8254061  84.9942303  15.5063295  94.2594051   0.2349576  84.9105072
  94.1708183  -0.6155212  85.3407097  94.8120022   0.7460661  85.5018044
  67.6185751 104.6346760   9.9768788  68.1415081 104.2005920  10.6509304
  67.9609394 104.2927837   9.1509700  38.3776593  79.7038984   6.8900573
  38.7782311  80.2540493   6.2169236  38.9277816  79.8321247   7.6628149
  72.5659561   0.7218701  68.3418751  72.7439785   0.6259156  67.4062824
  72.0202208   1.5059052  68.4026670 112.8887844  42.4101782  87.7190113
 113.4796047  42.1656656  87.0067024 112.4403858  41.5961981  87.9483604
  23.0689025  82.3185444  33.3403730  23.7525988  82.9870129  33.3844185
  23.5280681  81.5238667  33.0685687  37.0619082 107.8324318  15.6431818
  37.2173953 107.4005604  14.8032141  37.2946525 108.7479210  15.4885042
  68.1908083  11.3789725  43.1151962  67.2749662  11.1024058  43.1464005
  68.4203243  11.3431275  42.1866131  84.8837471  18.8886380  85.1238155
  84.6702385  18.8545716  86.0562706  84.0401936  19.0148604  84.6893978
  30.7146430 106.8285656  11.5535998  31.1806679 107.6126385  11.8439031
  29.8342419 106.9250202  11.9166708  36.4736104  66.8725014   2.8532737
  37.2125816  66.2863064   3.0161601  35.7155561  66.4057064   3.2049641
   4.4332737  70.4241371  49.2856503   5.3838336  70.3249359  49.2324829
   4.2402679  70.3837824  50.2223206  24.2435551  90.8280849  18.6174297
  24.5756912  91.7111778  18.7788773  23.2930923  90.9335518  18.5758388
  92.8093052  35.6931114  89.6607399  93.6291981  36.0707045  89.9792290
  93.0788803  35.0687981  88.9871025  32.9805946  49.4776535  84.4441700
  33.7942767  49.3422318  84.9297810  32.4545312  48.7016010  84.6371078
  90.1670074  39.0687180  90.9666824  91.0899639  39.2422390  90.7815170
  90.0021076  38.2097292  90.5778694  30.5582333   0.6824686  88.8539314
  30.7263708  -0.0619659  88.2761955  31.3854265   0.8187447  89.3158913
  44.4035864 106.6754723   1.0090860  44.3450260 107.3708153   1.6642949
  43.8534307 105.9729671   1.3555539  39.1954756  91.5489578   0.3291178
  39.2296124  92.4024677   0.7610860  39.7384095  91.6540527  -0.4521699
  36.5672708  88.3623695  33.6486101  36.1365318  88.9785004  33.0560923
  36.2295389  87.5050163  33.3895350  99.2405796  39.8281527  92.1388721
  99.7523880  40.5028677  92.5850105  98.5563946  40.3127432  91.6770267
  13.8771904  46.6618586  71.9265413  13.7530351  47.2915649  71.2164068
  13.8639700  47.1930408  72.7227211  89.5119190  24.7967625  74.9538755
  90.2784061  25.2416444  75.3155518  88.7870026  25.0755501  75.5133533
 111.8543148  95.2313042  75.3473473 111.9937992  95.1157951  74.4074345
 112.6559925  94.8988247  75.7510948  79.6211672  11.4844513   4.0962595
  79.2751217  10.9470224   3.3837610  79.5631123  12.3821354   3.7691131
   1.6092992 102.3904514  28.5474706   1.1308116 102.2796631  27.7258801
   0.9624785 102.7496433  29.1547871 115.9514618  28.4042931  32.2909999
 115.4584599  27.7587914  31.7845321 116.8169689  28.4189916  31.8824434
  57.3771524 102.5771904   9.9737179  56.6029167 102.1237564  10.3071809
  57.2685003 102.5689507   9.0227401  53.7366962  95.7599640  24.0141010
  54.1150999  94.8832417  23.9477229  54.3680334  96.3274384  23.5718155
  30.1381207  99.8303699  32.3989248  30.1680422  99.6135235  33.3307600
  31.0144091  99.6205521  32.0759296  62.4871254  74.5165586  10.8776808
  62.3887634  75.4621887  10.7666063  61.8277073  74.2822313  11.5307391
   1.9202770  66.7525339  93.1889915   2.7457285  66.8149376  93.6695766
   2.1826015  66.5991926  92.2812939  41.5570688  93.3196640  44.7439718
  42.2438383  93.9537144  44.9502516  41.9685411  92.7124882  44.1289425
  41.5539598  82.6552963  14.6158445  42.0217180  83.2101059  15.2400410
  41.4982891  83.1843185  13.8200617  25.7593274  50.9103823  85.5776119
  25.4735589  51.4923906  84.8734570  24.9472332  50.6206608  85.9932995
  88.2580662  66.7262411  28.1519365  87.8328419  66.9891262  28.9682078
  89.1910172  66.8697262  28.3108687  24.7616005  83.2805252   6.1036736
  25.4744983  82.7428341   5.7588577  24.8706579  83.2421494   7.0538664
  38.9670396  89.4663906  34.1582465  39.5601225  88.9515305  33.6110687
  38.0990863  89.1069698  33.9746594  54.8750257   2.8624365  11.7388523
  55.6210184   3.4478402  11.6083646  54.1896057   3.2181835  11.1732745
   6.1394584  89.4844723  41.5592861   6.9027567  89.7866154  42.0515442
   6.4479512  89.4187450  40.6555510  20.6367731  98.9366055  34.2843556
  21.5136480  98.8213253  33.9182520  20.0851417  99.1335964  33.5273004
  72.4389172  21.7919350  12.1459436  72.9782677  21.4482522  12.8581345
  72.1786070  21.0173869  11.6473985  39.0692687 104.7322083  25.4787660
  39.1201377 105.0755024  24.5866919  38.9228225 105.5047035  26.0246897
  71.2218094  21.8714786  34.2827344  71.8685389  21.2053370  34.0498590
  70.3823996  21.4911771  34.0239072  34.7213817   2.3712787  55.0257492
  34.0333343   1.8669645  54.5915985  34.2672181   3.1299934  55.3922462
  25.7828331  72.3063135  31.8045545  25.7216334  71.6733456  32.5199819
  25.7683396  73.1596899  32.2378826  33.6361170  42.5308084  75.3385973
  34.2909813  41.9521713  74.9480104  33.4306383  43.1607533  74.6478176
  37.7176189  77.7694130   4.3261856  38.2579374  77.0644283   4.6829620
  37.7078819  78.4351683   5.0138652 104.0084553  11.8447030  72.0130110
 104.3211174  12.5728583  71.4761019 103.0896091  12.0508969  72.1845818
  14.4464350 107.4798679  17.9045725  14.8249722 108.0605221  18.5647166
  14.2118943 106.6879272  18.3883524  35.1055145  88.9611626  39.1922498
  35.0239921  89.8599911  39.5111418  35.7829285  89.0069199  38.5175276
 110.4266453  48.1285286  82.1910191 110.2413940  48.1032181  83.1297779
 110.2120304  49.0236807  81.9285870  86.3473129   0.9528827  26.0665369
  85.6502724   1.4208737  26.5262699  86.5701962   1.5200755  25.3283978
  13.9881217  39.2317581  80.6932259  13.6978519  39.3913364  79.7951603
  13.6599302  39.9825716  81.1879921 101.4384556  36.6870093  36.3515949
 101.9741154  37.4581242  36.5378213 101.8187141  35.9949040  36.8925381
  29.8361516  64.0799522  25.5863118  29.4557476  64.5276165  24.8305845
  30.5723643  63.5854578  25.2261758  44.6936417  37.3626876  92.0077515
  43.7880087  37.2518253  92.2971916  45.2188683  36.9929361  92.7174282
  87.1412182   6.7323321  16.1146677  86.3383389   7.2445178  16.0183191
  87.1985722   6.5511066  17.0528030  48.2699251  96.9981956   7.1207160
  47.4333000  97.3929310   6.8748063  48.0319881  96.1600590   7.5171262
  59.4202375   3.0827034  31.4326739  59.8031378   2.2325388  31.6490984
  59.7425127   3.6712852  32.1152711  94.4518471  13.1136072  11.9845355
  94.5969963  12.9632711  12.9186463  93.5109234  12.9850662  11.8646252
  19.5242143  48.8388491  87.1221256  20.2464437  48.2277679  87.2677040
  18.9850748  48.4173822  86.4528561  16.9537485  80.4080963   9.9648660
  17.5787818  79.6836329   9.9917722  16.5046525  80.3059196   9.1257548
  79.1077995  32.7575684  28.6250401  79.8339891  32.9306912  28.0259538
  78.9143896  31.8278790  28.5046172  91.1031723  33.4728575  14.7489607
  91.5387917  33.8264418  13.9734340  91.2705994  32.5312495  14.7093213
  34.4808960 106.9656658  22.7938938  34.6547461 107.0816803  23.7279963
  33.5847282 106.6313934  22.7567649   3.7671655  78.8411379  81.7095470
   3.1380132  79.3801641  81.2301254   4.5529288  78.8467932  81.1629391
  73.5911417 109.2326164  37.0203376  73.9286518 109.0772057  37.9024744
  74.0457344 108.5917854  36.4736104   8.7951326  37.9400086  87.0408916
   8.7052649  38.6378622  86.3919353   8.5978854  38.3631635  87.8765202
  73.5336113 106.0604000  26.8641591  72.6610470 105.6869221  26.7401385
  73.4960318 106.4759827  27.7256155  38.3679962  95.7255554  10.9914613
  38.9335585  96.4143467  10.6422520  37.7569342  95.5337906  10.2800822
  55.2889299  21.1653161  92.3207378  54.9261522  21.3738871  93.1816196
  56.0514498  20.6179667  92.5083637  84.1728115  91.6812801  23.0226517
  84.5826530  91.9899750  23.8307166  84.7015572  92.0661831  22.3237181
  80.9131336  96.9249439  18.3115506  80.4442501  97.5389385  17.7463961
  80.6903648  96.0614014  17.9638600 115.7544041 107.1864986  12.7384424
 115.0050354 107.7497959  12.9317665 115.3692245 106.3989735  12.3541570
  74.2927456   6.8622553  33.3409142  74.9594784   6.2121975  33.1192732
  74.7239017   7.4435627  33.9673471  65.5446005  22.4978375  37.4038053
  65.0084496  22.3520994  36.6243625  66.3744593  22.0626140  37.2084880
  16.1086237  70.7035398  57.2819424  16.3596511  69.9690723  56.7217875
  16.5679228  70.5438566  58.1064272  41.6596270 102.2280979  14.9798763
  41.2259436 102.6917648  15.6962311  41.3081217 102.6312828  14.1860735
 106.1113453  21.2713766  88.8989449 106.7526150  21.2018466  88.1917095
 105.6161880  20.4534030  88.8545609  20.8448339  68.9768314  83.0970478
  21.7447519  69.3008900  83.1340504  20.3513002  69.6868086  82.6864529
  92.1735096   2.1030074  21.5022445  91.6043854   1.9405863  20.7499480
  91.7441559   1.6519715  22.2291899  48.7151241  71.2370062   3.2329533
  49.4237041  71.3086700   2.5934133  48.4055996  72.1352959   3.3491555
 107.4390411   9.5189458  14.4227624 106.7268848   8.9535165  14.7217023
 108.2355785   9.0283936  14.6255434  36.8989944  60.4214621   0.7402192
  37.5640893  59.9288368   0.2593887  36.0663247  60.1015520   0.3930108
  82.3736382   1.0917614  33.0628395  83.2361412   1.4926043  33.1707478
  81.9202328   1.2738387  33.8859463  69.6745205  81.5087795   8.3775395
  70.0071669  80.6112480   8.3792549  70.1087332  81.9237232   7.6322091
  73.6486435  20.1556182  34.6128511  73.1308317  19.3896139  34.3651938
  74.4018936  19.7945893  35.0803018  81.9527340   4.3073973  30.0562119
  81.8245411   4.1179630  30.9856820  82.1786785   5.2371836  30.0302148
  50.2499723 104.2866707  45.6838942  50.5892467 103.7871552  46.4265966
  49.5113945 104.7782326  46.0432053  67.4723053 103.6170387  26.9133615
  67.3264742 102.7240181  27.2255802  67.5158119 104.1453171  27.7103949
  31.8523359  78.8459158   7.5321603  31.1784530  78.2810593   7.9103816
  31.3774991  79.6256638   7.2444993  21.7671824  30.8341336  91.2375546
  22.5490165  31.2180424  91.6345215  21.6136789  30.0325060  91.7376232
  31.2352586  91.2158012  30.0852394  30.7155061  91.1490536  30.8862591
  31.2267208  90.3311634  29.7197676  64.5770216 103.1710052  27.5820541
  64.8613405 104.0062618  27.2109270  65.3845358 102.6675224  27.6852965
  53.1440353 106.1434746  13.4592569  53.9885473 105.8176708  13.1480014
  52.8318644 105.4654884  14.0585172  93.9481449   9.1971862  35.5947900
  93.9699841   8.2875311  35.8919144  94.5422649   9.2184424  34.8445916
  16.5550888  23.8215685  89.3751526  16.7414010  22.8867936  89.4629860
  16.1660028  24.0681171  90.2142334   1.1414722   4.7460666  38.8532186
   1.2177853   5.2287018  38.0301332   0.5705250   4.0064979  38.6451578
 102.6403046  25.3759646  19.3038106 103.1964684  25.4790783  20.0760031
 102.5264835  26.2658453  18.9700603 102.3534203   9.9914664  93.5562325
 102.5847626   9.3774718  92.8592873 101.9513321   9.4460016  94.2322636
  86.8004894   6.5571779  69.0339708  86.4194775   7.2836781  69.5271873
  86.3282108   5.7840949  69.3430471  64.5890617  16.2945461  12.7583158
  64.3116903  16.7911649  13.5281658  64.1193390  15.4633927  12.8274453
  74.7529697  94.2223072   5.7416654  75.6747150  93.9787579   5.6562030
  74.2886734  93.3870792   5.7969177  83.6315060   5.9989285  13.0905890
  82.7341080   5.6992090  13.2357156  84.1746426   5.2391160  13.3001733
 109.7446918   7.8144419  14.4240248 109.5135689   7.1671551  15.0902307
 110.5589867   7.4857640  14.0430570  17.7485561  18.5816634  92.7416611
  18.3449006  18.0102921  92.2577763  16.9217610  18.5256875  92.2625923
  65.7148695   5.9749007  22.3097610  66.2934875   6.6873980  22.0381427
  65.0299072   6.4046580  22.8219795  84.4048500  83.9016914  91.3105202
  84.8577881  83.9631367  92.1515369  83.5394287  83.5560894  91.5292549
  49.9134302  15.5678105  27.1593428  48.9622879  15.6555390  27.2214532
  50.1107836  15.7452869  26.2396765  26.8703604 107.0650291  43.2017469
  26.8240237 107.0669270  44.1578245  26.9549966 106.1407089  42.9678917
  46.4235067 103.5546112  31.0431790  46.0940552 102.9742718  31.7294025
  46.0473061 103.2070351  30.2345371  22.6140165  48.7916994  51.1080265
  22.5735164  49.4849157  51.7668390  21.7101383  48.4881210  51.0239029
  33.5491109  86.6747379  20.6042123  34.1542506  85.9421921  20.4883647
  34.0873599  87.3735523  20.9759331  54.7615814  90.1912022  10.5006897
  54.8316431  90.9693527   9.9476826  54.4193172  90.5185509  11.3325131
  59.3931150   6.9300002  35.3819895  59.5743132   6.1489481  35.9048247
  60.2374601   7.3762727  35.3175449  49.9560928  85.8573627  83.4201717
  49.5709085  86.1517525  82.5948238  50.0776768  86.6599274  83.9274597
  62.6255417  20.8963299  19.1257417  63.4494162  20.4451919  18.9415383
  62.6841974  21.1337757  20.0511670  31.9447994  36.4990830  80.5734253
  31.1436224  36.5566182  81.0940361  31.6602707  36.6722775  79.6760559
  21.7052174  50.0552702  33.7310147  21.2197733  50.8741379  33.8311672
  21.5632296  49.8027039  32.8187203  70.7149315 106.0457134  77.4249935
  70.4145479 105.5555820  76.6596365  71.6667509 105.9447956  77.4156046
  12.2989058   3.6051565  86.1372757  12.8280330   2.9098105  85.7464409
  11.4121318   3.2456997  86.1628437  40.3575850  34.4975042  93.5004425
  39.8508167  35.2190280  93.1278515  40.0714731  33.7261510  93.0111694
 114.7002029  44.6513081  74.2912054 115.4471684  44.2738962  74.7557926
 115.0890541  45.1167965  73.5506964  43.3816624 107.5937653  72.5880527
  43.0535841 107.8874588  71.7381477  43.0982542 106.6817284  72.6520348
  30.7591081  92.4068069   1.7840511  30.2846336  92.5729752   0.9694984
  31.5951777  92.8588867   1.6707212  29.6812677  12.5035810  81.8305016
  29.0535736  11.7836690  81.7675781  30.1106453  12.3737526  82.6760864
 101.7094994  99.3429184  79.2624664 101.6447163 100.2313995  78.9122677
 102.5861263  99.0504742  79.0129948   2.2037067  51.5208530   2.1730234
   1.9276936  50.6624556   2.4942803   1.5334667  52.1238136   2.4946517
 114.9718285  29.1875625  72.3816347 115.9197330  29.0980387  72.2832060
 114.7401237  28.5512614  73.0581427  48.7587357  55.8898878  16.0527337
  48.1624174  55.9429693  16.7996049  49.5040369  55.3841639  16.3767815
  36.0155296  71.2543678   2.4757694  36.7328787  71.8815565   2.5667602
  36.3207793  70.6360054   1.8119350  29.8226833  73.6405373   3.4196767
  30.4071212  72.8939581   3.2881927  30.3251362  74.3950748   3.1123543
  15.5463326  18.5542536  85.4016495  14.6411264  18.2909608  85.2357864
  15.9479439  17.7871752  85.8097267  95.5494213   8.1189382  89.7998428
  96.1497211   8.6957371  89.3274307  95.1651001   8.6759114  90.4768276
   9.8435879   0.9470410  70.2838087   9.7994238   0.1849455  70.8612967
  10.3029394   1.6109398  70.7980728  42.1394157  67.2635174  13.7305844
  42.6554346  67.3915815  12.9346228  42.5064468  66.4746714  14.1296375
  84.9530792  13.0812764  75.2389336  85.6562710  12.4659240  75.4465246
  85.0501537  13.2485235  74.3014717  27.8146744  72.5571060  14.7732770
  27.0373511  72.0037651  14.8495305  27.5023842  73.4383869  14.9783576
  35.6353235  74.8433971   2.7613634  35.1105380  75.5003738   2.3039693
  35.7221699  74.1264343   2.1331470  78.4216309  70.2329397  36.7534375
  77.6008272  69.9231863  37.1362686  78.1572628  70.9261942  36.1486769
  45.3580666  62.0678282   0.6111422  45.8369350  62.1943998   1.4302240
  45.4977942  62.8799009   0.1240614  50.6450605  98.2120895  41.5659142
  49.7415733  98.3066463  41.2642527  50.7757425  97.2666073  41.6381407
  58.5142422  88.2336521  18.7038732  59.3731594  87.8325653  18.8366055
  58.5226965  88.5212421  17.7909350  69.3345356 106.5870667  85.8645725
  69.4240141 106.7645550  84.9282360  68.4322119 106.8320084  86.0696220
  82.6189423  11.4380932  90.8862877  82.5700474  10.5930078  90.4394436
  82.9282188  12.0464015  90.2150631  52.2340345  82.7031231  86.4421368
  52.6258516  83.2861996  87.0923138  51.9961405  83.2795525  85.7159328
  28.8550687 100.9648895   8.3391482  29.2465115 101.8215179   8.5100073
  28.6806989 100.6035995   9.2082250   6.1287981  23.5542870  94.4285870
   6.0914528  24.4081903  94.8594952   7.0610738  23.4070063  94.2691994
 110.4972553  22.7527809  91.6632080 109.6046066  22.6390004  91.9895172
 110.4295540  22.5971508  90.7211685  33.9191818  92.1105289   6.5484655
  34.1434979  92.1355915   5.6182575  32.9659581  92.0245552   6.5627462
  47.4893808 103.4938908  67.1007919  46.6139460 103.3330441  66.7486906
  48.0628109 103.4755230  66.3345861  12.1693599  23.3039379  60.4438114
  11.6808534  23.8554668  61.0548830  12.9800034  23.0930090  60.9070587
  99.3713474   8.2953012  80.6761074  98.8258743   9.0810448  80.6401539
  99.9836731   8.3952600  79.9472094  27.6017857  74.5793867   7.3111939
  26.6801453  74.5446110   7.0550746  27.8978372  73.6703205   7.2644287
  37.2407103  96.5151024  19.6626294  37.2453475  96.3561440  20.6065273
  37.0108223  97.4403000  19.5766783  40.7399416  75.6439543   4.8256683
  40.0751448  75.5973482   4.1385657  40.3782415  75.1255274   5.5444479
  36.2820506  58.0875683   5.8265388  36.9263101  58.7954807   5.8217674
  35.9648204  58.0585051   6.7291749  48.8644266  24.4641733   6.8326998
  48.3423519  23.8689208   6.2947923  49.5413256  23.9076352   7.2178054
  65.7647562  84.7034454  12.6321423  65.5900240  85.5458546  12.2125649
  65.0397778  84.1430664  12.3553658 104.8556423  39.5970416  90.8824539
 103.9920044  39.8248100  91.2266636 105.4438877  40.2513552  91.2593842
  10.4402447  57.6262903  11.1093223  11.0957909  58.2945108  10.9093964
  10.4319501  57.0603752  10.3373742  32.9446128  13.9300169  94.7832811
  33.2289365  14.8204817  94.9893550  33.6425117  13.3707584  95.1244584
  70.3922844  93.8390350  17.9466295  71.1203480  93.4899807  18.4607506
  70.0437117  93.0800438  17.4790263  29.6919227  67.7060890  12.7690732
  29.4978833  68.1941032  11.9688070  29.3590236  68.2608128  13.4745467
  57.3114777  96.9728851   8.5923666  58.2060385  96.6441154   8.5034382
  57.0747852  96.7807674   9.4997251  76.1957073 103.9796734  76.6680765
  77.0711136 104.0584946  76.2890196  76.2288666 103.1725979  77.1816492
  82.4093056  22.4437571  87.5935459  82.4862289  21.5152931  87.3738480
  83.2166004  22.6456356  88.0665684  12.0727396  29.0712333  81.0482025
  11.2915552  28.6679506  81.4268208  12.6753306  28.3408475  80.9080124
 106.8068790   7.1718872  87.6944160 107.6742744   7.5269324  87.5000095
 106.5537167   6.7077446  86.8964672  11.2377465  61.6411829   7.1016967
  10.4115784  61.4332056   7.5380737  11.8185890  60.9154606   7.3301190
  50.4661179  54.6186972   8.9153826  50.6056356  54.4997454   7.9759049
  50.7637358  55.5114222   9.0905803  36.6525412  93.5035896  33.2416272
  37.3751068  93.0394745  32.8188658  36.4457846  94.2211437  32.6427913
 108.3878422  27.0120859  80.6077099 107.4411392  26.9217920  80.4989529
 108.6544514  27.6035714  79.9039364  90.1541424  23.9517975  80.3904819
  90.3683949  24.6794462  79.8066568  90.9964466  23.5355139  80.5734348
  24.8158455  53.4836721   2.1661280  25.2082777  52.6120090   2.2154321
  25.1463223  53.8490534   1.3454497   0.7744654  15.0724328  69.1491413
   0.0564185  15.5747616  68.7640333   0.3687372  14.5865023  69.8671150
  77.1593428  11.5688384  89.1405201  76.7153168  11.2641883  88.3491516
  76.9357777  10.9182692  89.8061085  94.2192554 105.3177834  64.8264694
  94.7406197 104.5300198  64.9808502  94.8609543 105.9867573  64.5878744
  31.1150908  65.2078199   3.5327479  31.2255692  66.1136007   3.2436305
  30.5477905  65.2692127   4.3012741 110.1341820  18.6541450  71.2530756
 109.7494793  19.5215285  71.3791037 110.6422138  18.4994435  72.0494461
   7.3636055  15.6573725  86.8701839   6.4925754  15.2699006  86.9562340
   7.3526067  16.4061761  87.4663353  89.9984741  31.4567232  51.6898489
  89.4180870  31.1601114  52.3908472  90.1996994  32.3653269  51.9138622
  94.1563702  31.5600014  14.9865258  93.7362385  31.1399484  14.2360044
  93.9668655  30.9790015  15.7232475  17.4912202  50.4992771  10.2426088
  17.5711060  50.0704288   9.3905890  17.4023521  51.4294910  10.0351489
  30.5676007  60.7056332  27.5330639  29.6620846  60.9404230  27.7359056
  30.8445787  60.1609039  28.2698059  90.2392578  72.4397182  19.5690155
  89.4283009  72.2971106  20.0571275  90.1455212  71.8981266  18.7853551
  33.6921144  25.6610847  16.5926349  32.8933930  25.3232050  16.9977462
  34.3985033  25.3455544  17.1562731  76.7057562  73.6854076   8.8183761
  76.7445660  73.2913494   9.6898353  77.3988104  73.2459021   8.3256936
 107.0241070   7.9769439  82.5609493 107.4254417   8.4249759  83.3055496
 107.6517773   8.0894089  81.8470764  21.8018913  33.2016540   0.2891401
  20.8863139  32.9557371   0.1569471  22.1915221  32.4464560   0.7297023
  30.3915906  18.9418316  67.3134851  31.0195398  18.9923263  66.5928173
  29.5643425  19.2348218  66.9313192   2.3876405  97.6133537   5.9694815
   1.6612977  96.9900703   5.9560996   1.9667509  98.4701538   6.0400444
  55.0558090  41.2839317   5.6448448  54.9637365  41.9885588   5.0035524
  55.7998896  41.5482140   6.1858922  61.0051346  66.2135506  23.7580180
  61.4521170  66.5689802  22.9898357  61.3722038  66.7009163  24.4955564
  74.6670198   1.8460841  88.4848404  74.7177029   1.8780802  87.5295162
  73.9737177   1.2116871  88.6667919  12.5427377   4.9366274  49.9474239
  12.5139451   5.5178571  50.7074070  12.7113008   5.5190277  49.2067289
  47.7883101  99.6667957  84.3096924  48.1180286 100.5555439  84.1768551
  47.1333504  99.5489883  83.6216640  58.9028549  62.0403290  13.9116526
  58.4257984  61.8880701  13.0958927  59.1396141  62.9672861  13.8812208
 109.8593616   9.1767168  71.5085554 110.4316521   8.9519316  70.7749367
 109.4956589   8.3386278  71.7941427  90.6401730   3.7168288  19.6026337
  91.0402489   4.5211077  19.9332500  89.7270203   3.7700713  19.8846734
  31.6582084  52.5359869  23.9324832  30.7505536  52.2575998  24.0545344
  31.8220091  53.1421995  24.6549153  47.4381283  92.3537360   0.2045882
  48.0267510  91.5991603   0.1853526  46.6130927  92.0053659   0.5425037
  56.0546780  94.7203922  31.4398170  55.2350616  94.4386959  31.8461537
  56.1783743  94.1172028  30.7069468  39.0455937  49.3978691  11.1165535
  38.9400482  50.3398657  10.9833932  38.2656860  49.0108776  10.7187879
  89.5890331  95.9381104  81.5040970  89.4234753  96.0618591  82.4387169
  88.8824272  96.4163971  81.0702991  50.3414202  61.8620300   2.3342761
  49.6079397  61.6647005   2.9167667  50.0030851  62.5337601   1.7422129
  89.2127037 107.0943260  64.1895866  88.8718414 107.5110626  63.3981514
  89.8013306 106.4121246  63.8665342  12.4214280  19.5527422  26.1949754
  12.7735257  19.7748661  27.0569038  13.1931138  19.3514049  25.6656408
 110.9751892  15.4057670  72.1269751 110.8871841  15.7269669  71.2295818
 111.6992664  14.7809350  72.0877981  12.3598588  87.0321941   5.0583822
  12.7101648  87.1893024   5.9352148  12.0454741  86.1284733   5.0844425
  60.1140690  86.7277336  13.4768176  60.1790571  85.7727432  13.4766841
  60.2353001  86.9759274  14.3932986  39.4770694  99.2890453   4.3159169
  40.0323248  99.0281105   3.5811797  38.8996458  98.5389519   4.4579628
  16.1167538  24.4165039  92.1685982  15.3276086  24.9519944  92.0865440
  15.8041322  23.5807490  92.5150204  45.8155537  69.3995571  20.9251618
  46.5711403  68.8647556  21.1686850  45.6128597  69.9013710  21.7146730
  27.1982956   7.5607622  79.1385365  26.4480257   8.0316448  79.5012999
  27.5894833   7.1173084  79.8912334  92.4981308   6.1252171  85.0129604
  91.5580082   6.2519032  85.1408005  92.5716782   5.7443941  84.1378689
 114.0350628  47.4115705  85.9483433 113.6676311  46.5279007  85.9295177
 113.4694576  47.9185915  85.3658867 115.0747395  12.7154326  77.3394728
 114.9456215  12.0697904  78.0342436 114.2972374  13.2721126  77.3823166
  42.8579855   9.6533108  71.8911219  42.6477671   8.8518620  71.4118290
  43.4330225   9.3647069  72.5998306  47.3289108  58.3233452   3.0918729
  46.4107037  58.4964752   2.8841332  47.5995493  57.6657057   2.4511740
 104.1830826  42.8107262  67.3759127 104.0359879  43.3003187  66.5666580
 104.2252445  43.4815645  68.0573988  10.7282686 104.9958229   7.9470670
  11.6788769 104.9738121   7.8371125  10.5407691 105.8901501   8.2321227
 105.1713371 102.2815609  91.5139675 105.8647537 102.3131466  90.8548641
 104.4576836 101.8065071  91.0882187  12.9224086  58.5703135  89.0131474
  12.9172564  59.5212841  88.9042568  12.0222998  58.3030510  88.8271141
  44.0168095  85.8351612   8.7673724  44.8673248  85.8114052   9.2058873
  43.7107754  84.9284649   8.7890005  66.4942408  88.2770634  13.9241922
  67.1154594  87.9135704  13.2931674  66.0821772  89.0067101  13.4615457
  37.4894094 105.2458382  11.4947343  37.8892517 105.9081268  12.0584166
  37.4030542 104.4747448  12.0552528  11.2422371  15.8793879  74.4209623
  11.4337289  15.0029182  74.7546721  10.3826404  16.0916328  74.7846603
 112.9794312  59.0274811  76.4859915 112.6822186  59.9349022  76.4190054
 112.4206448  58.5467339  75.8753586  22.0581937  14.5299208  55.1272583
  21.1872315  14.9005890  54.9849129  22.6411653  15.2888560  55.1471329
  43.4499741  89.9971962  26.9894910  42.5707006  89.8738480  27.3471165
  43.3367395  90.6441689  26.2931871   2.8740802  36.6696548  67.5730610
   2.0364389  37.1318960  67.5426865   2.6635602  35.8172369  67.9542398
  72.0896816  74.2649698  18.8297939  72.2013569  74.5380020  19.7404075
  71.3273573  74.7565603  18.5241246  87.4343300  64.7786570  54.6463823
  87.2210503  64.9247551  55.5680132  87.9405308  63.9662647  54.6435547
  99.4100380   9.3884301  56.6581964  98.6366272   9.8934519  56.9092321
  99.3411636   9.3015999  55.7074308  22.1505642   2.5995651  43.3594942
  21.3925219   2.1408963  43.7217474  22.1915770   3.4198689  43.8510752
  40.4138470  19.7630620  79.7315788  39.4672942  19.6955156  79.6062326
  40.5387688  20.6092358  80.1612473  69.8852110  63.8092089  13.9116967
  70.3165054  63.9547634  13.0696583  68.9499950  63.8341713  13.7092578
  33.5326982   6.7856342  67.8561449  32.8564978   6.2887567  68.3166838
  34.1794562   6.9922411  68.5308647  12.4267650  28.6342311  92.8901100
  12.7508354  28.6209774  91.9895363  12.9600120  29.2984486  93.3267975
  73.3610916 108.0839920  93.6396599  72.5658226 108.0366707  94.1702652
  73.9966536 107.5464153  94.1122150 112.5542736 102.6661682  42.6154184
 113.3429813 102.1399593  42.4839878 112.8205013 103.3463764  43.2340288
 101.3001919  45.7698965  60.7498646 100.5555630  46.2706900  60.4167366
 101.3511658  46.0043144  61.6765165   5.5661470  42.8984499  75.4772568
   5.9383839  43.7744236  75.3755569   5.0547898  42.9477930  76.2849140
  18.9227891   1.9950205  88.9489841  18.4746766   2.8404519  88.9230537
  18.8060892   1.6895804  89.8486042  24.9649501  72.1591854   5.0266492
  24.6402502  71.7602301   4.2194104  25.8825612  72.3598623   4.8423806
  79.9990225  83.2329464  29.9854922  79.1518497  83.2081699  29.5406151
  79.7796106  83.2830811  30.9158564  35.6367016  78.7353706   2.6335514
  36.3278365  78.3830786   3.1943163  36.0533762  79.4591904   2.1658990
  51.9043589  98.0975723  15.0645125  52.3424435  97.2466850  15.0817466
  51.1574316  97.9943943  15.6541646 114.2821789  97.1168327  14.7055435
 114.4677258  96.1789894  14.6582079 114.5765781  97.3754597  15.5788577
  51.2680149   0.3808821  75.4458570  51.8015814   1.0066505  74.9560070
  50.9732008   0.8681366  76.2152052 102.5424194   2.4521095  67.6981401
 103.0260372   3.1923425  68.0647469 102.0662403   2.8217447  66.9546032
  51.3044500  93.0243778   7.4573368  52.0432377  93.1620312   6.8644810
  50.6008196  92.7042007   6.8928713  14.4753742  20.5883574  56.5667772
  13.9391959  21.1720848  56.0301161  14.1789293  20.7472205  57.4629450
 100.8170414   6.1350566  68.1112909 100.1247311   5.6914705  68.6013603
 101.3489246   6.5630263  68.7822390   3.5970864   8.7878078  76.9014597
   4.2380634   9.4904786  76.7935991   3.3237186   8.5739684  76.0093975
  19.2967427  28.3242846  92.1508217  18.7671876  27.6376176  92.5561523
  19.6375883  27.9233336  91.3512611   4.6350548   5.5649614  53.2814932
   5.5500680   5.6468391  53.0126429   4.1651064   5.3614503  52.4728107
  90.3171825  14.3133080  86.4523411  91.2598991  14.2722118  86.2915897
  90.1924229  13.8315988  87.2700310  71.9761658  11.4230216   2.6790711
  71.4368677  11.7328584   3.4066623  71.3547754  11.0107780   2.0789404
  16.9627953  60.3117657   4.9745178  17.8014171  60.1391363   5.4024696
  16.3154936  60.2321768   5.6751597  21.8227339  94.3097019  26.2180233
  22.5879169  93.7346840  26.2267137  22.1514463  95.1506233  26.5358663
  55.6340027  77.6544809  11.9112396  55.8039522  77.5372219  12.8459048
  54.9513865  78.3244753  11.8741298 107.7004719  22.2995400  91.1748600
 106.9588184  22.0033932  91.7025757 107.5931835  21.8493342  90.3369808
  17.7743912   4.4345781  77.5417519  17.5414991   4.4698152  76.6139841
  16.9518554   4.2325220  77.9876661  36.2030935  77.2555494  13.3859217
  36.1496425  78.2072163  13.2981241  36.4777231  77.1136475  14.2918313
   2.9692838  47.6984501  79.3418598   2.3976971  48.2139349  78.7728262
   3.1622884  48.2797289  80.0774574 107.3159504  38.8240886  65.2283382
 107.0172024  39.5774651  65.7376575 107.6945400  39.2054296  64.4362020
  20.9747887   6.8585259  38.1452990  20.0726032   6.9920361  38.4359384
  21.1467385   7.5911158  37.5537109  74.9948645  76.4406157  15.2382171
  75.0090456  77.3973608  15.2640808  75.9178114  76.1870337  15.2484393
   0.6857494  32.3607969  90.5163574   1.1745876  33.1369519  90.7899475
   0.2880195  32.6099777  89.6821117  18.9228463  30.8700705  67.6790094
  18.0262625  30.8592200  68.0140495  18.8237011  30.8258152  66.7279863
  19.8356032 104.2768192   5.8767444  19.2417419 104.8185921   5.3570938
  19.2643130 103.8186836   6.4931661 116.0111386  57.3940325  91.9438553
 116.5139972  56.5931559  91.7956734 116.0043801  57.8333902  91.0934734
  14.1431594  51.8923759  22.8861713  13.2567453  51.5533113  23.0108213
  14.5328224  51.3100815  22.2339988  75.2285624  89.0479469  26.6036463
  74.4092655  89.5388126  26.6672277  74.9832964  88.2267284  26.1774254
  24.2102408  50.2391911  90.0856018  24.1624999  49.6828461  90.8630562
  23.3291674  50.6025362  89.9966240   2.9409268  30.0827575  91.5589428
   2.8386331  30.8860970  92.0692539   3.4469351  29.5012927  92.1264744
 104.5694065   5.5038500  79.7479057 104.7765160   6.2472093  79.1815567
 104.0446758   5.8800322  80.4545689  57.0254660  67.1876431   2.4787623
  57.7419949  67.0994568   3.1072849  56.8515778  68.1282854   2.4442177
  93.5937500  57.5908041   6.8978834  93.3692455  58.4860468   6.6441762
  94.2456913  57.3155451   6.2533337 111.5034676  38.2152605  82.9045963
 110.8782482  38.9389873  82.9439068 111.3768482  37.7443576  83.7282848
 114.1428280  54.8479462   5.9671658 113.4146500  55.4643250   5.8892757
 114.0415955  54.4666100   6.8392706  49.3114090  96.4654732   4.3685889
  49.1022015  96.8155766   5.2345526  49.4947624  97.2389984   3.8354105
 114.0349293  39.9930048  70.6149530 113.4100342  39.3911719  70.2105474
 113.4968948  40.7162809  70.9368610  37.3866200  28.5174966  77.9353237
  36.4848709  28.7826180  77.7542448  37.7703714  28.3678579  77.0712805
  47.8852844   7.5772601  93.8897133  48.8161373   7.4356693  93.7173843
  47.4401999   6.9171602  93.3583069  76.7670679  90.5881214  16.9903469
  77.3313046  89.8277473  17.1306825  76.6379881  90.6188965  16.0423887
 109.1543961  39.7462344  78.0117798 109.5409393  40.1297188  77.2245359
 108.2502174  39.5523572  77.7645922 115.2821636  16.8258715  88.4490490
 114.3348694  16.7559004  88.5672379 115.5577755  17.4709785  89.1002846
  15.4109919  10.8929467  78.6593294  14.9488378  11.7173922  78.5078859
  15.5235970  10.5175745  77.7860308 106.7453575  15.0692832  72.6371384
 107.6111221  14.7366321  72.8738213 106.3708591  15.3722990  73.4642839
  24.1076732  32.3448110  70.2107143  23.4032607  32.9538083  69.9889994
  24.5470619  32.7489805  70.9589195  22.5124645  15.2505445  89.0646267
  22.8380704  16.1474228  89.1409302  22.1225309  15.0638342  89.9186325
  12.5136602  69.7367764  83.6712360  12.4418640  70.6438637  83.3741379
  12.4111724  69.2151928  82.8751945  22.9007435  82.0798111  10.8183634
  23.3606672  82.7995682  11.2504029  22.1259260  81.9310570  11.3603604
 102.6821995  28.1362009  80.6374359 102.3460484  28.8451600  81.1857128
 102.1463490  28.1715393  79.8450661 108.8142109   7.5989848  17.5474095
 109.5904922   7.3285049  18.0377901 108.0951977   7.1111864  17.9490376
  61.7878246  89.6500206  89.2647648  62.0007944  89.0345478  89.9662399
  60.8401728  89.7683620  89.3294811  47.6107168  85.7059479   3.2429424
  48.2267237  86.3296032   3.6274254  48.1587124  85.1165199   2.7247578
  85.8931923  16.3187253  14.1249669  85.0741196  16.7995548  14.0059948
  85.6371021  15.5196345  14.5855129  78.7133455  98.7184525   3.0423144
  79.3451023  99.3810558   3.3217397  78.8377190  97.9948711   3.6564770
  20.9665442   7.9607773  26.3464475  20.3596663   8.4888864  25.8277655
  21.0139751   7.1250999  25.8820939  41.2050533  46.7171431  83.5605812
  40.8631849  47.5489330  83.2327366  42.1464062  46.7624187  83.3931351
  48.1292391  82.2428036  15.0290561  47.3169422  82.7221012  15.1923978
  48.3081913  81.7873955  15.8517408 103.0735016   1.5833576  57.2543097
 103.7504578   1.6009766  57.9308176 102.2911167   1.9220296  57.6895046
  63.6986446  70.6656790  25.1927805  63.5455561  70.6371307  26.1372256
  64.6047115  70.3752899  25.0881243  59.5488405  73.9940786  73.9850903
  59.7885847  73.0718708  73.8941050  59.0101624  74.0246344  74.7757387
  80.1198483 105.2681160  78.6623526  79.9825716 105.2887535  79.6094322
  81.0342789 105.5265236  78.5471964  20.0816178  23.6730576  42.2081470
  20.5550742  23.5593319  41.3840485  20.2974081  24.5627809  42.4875355
   8.1571865   6.4554477  80.6217194   7.7202904   5.6971318  81.0094166
   8.4968108   6.9450885  81.3708115  26.7557073  12.9527926  84.4833565
  26.0657597  12.8645432  85.1409435  27.0248055  12.0534313  84.2963600
  26.1911726  72.9156113  11.8012297  25.7190800  73.3692837  11.1029875
  27.1119714  73.1226063  11.6414964
 116.4095821 116.4095821 116.4095821 109.4712190 109.4712190 109.4712190
