
58412  0.0000000e+00
  43.6838102  42.0634508  64.1858244  43.5849476  41.7538929  65.1421213
  42.7651167  42.3359776  63.8667011  44.3265867  42.8422356  64.1650915
  44.1420221  40.8514690  63.3866787  45.0037575  40.3783083  63.8574457
  43.1142092  39.7500730  63.5608196  42.0945072  40.0874233  63.3750582
  43.3401537  38.9109731  62.9028225  43.0409098  39.1661692  64.9970150
  42.1455908  38.3886957  65.2733278  43.8270855  39.5715833  65.8976221
  44.4073009  41.3039160  61.9453859  43.5811472  42.0820189  61.4241552
  45.5245590  40.8351088  61.3555861  45.9832764  40.1024151  61.8779230
  46.0444117  41.2412643  60.0846148  45.2888346  41.8340063  59.5690012
  47.1867800  42.3241138  60.3888655  47.6724672  42.5883675  59.4495153
  46.6369534  43.6381102  60.9306765  46.1351871  43.5553074  61.8947649
  47.4005651  44.4107723  60.8412838  45.9370518  44.0239716  60.1894951
  48.1877804  41.9309235  61.3102531  47.8541040  42.2264099  62.1605158
  46.6954708  40.0546598  59.2162704  47.1921873  40.3166389  58.1220865
  46.5829659  38.7998152  59.6649647  46.1455870  38.7103820  60.5709505
  47.2093153  37.5913548  59.1609240  48.2378578  37.7471018  58.8354445
  47.2976542  36.6940832  60.3487921  47.9244184  37.1389294  61.1216927
  46.2785530  36.5464282  60.7062006  47.8173256  35.4743242  59.9224520
  47.2918463  34.8509693  60.4293108  46.3875675  36.8737912  58.0624390
  46.9388962  36.6770220  56.9838333  45.1245451  36.6886520  58.3226442
  44.7954988  36.9137859  59.2506266  44.1115046  36.2459087  57.2902203
  44.4761705  35.2528191  57.0277500  42.7269745  36.0574055  57.8579569
  42.5336123  36.8973327  58.5252190  41.9666862  36.0683370  57.0769691
  42.4935722  34.7235513  58.6140394  43.1462193  34.5141649  59.4615746
  40.9987783  34.7771382  59.1233444  40.6975174  33.8516045  59.6139860
  40.8066320  35.6193948  59.7880125  40.3568697  34.9230576  58.2545757
  42.5394726  33.4573627  57.7955389  42.2132063  33.5197377  56.7573833
  43.5748386  33.1733418  57.6072693  41.9059944  32.6580071  58.1800365
  44.0258360  37.1933603  56.0463667  44.1423798  36.7158246  54.8916531
  43.8559914  38.5393810  56.2668228  43.6474180  39.3075991  57.4698925
  44.5681620  39.2994905  58.0532122  42.8998756  38.7862706  58.0678034
  43.2314777  40.7825184  57.0384741  43.7109661  41.4972782  57.7072859
  42.1442556  40.7144642  57.0760632  43.8325977  40.9279442  55.6481314
  44.8101664  41.3998842  55.7467985  43.2453442  41.4728642  54.9090147
  44.0109873  39.4512749  55.1478720  43.2452822  39.0787363  54.4674253
  45.3609467  39.3065429  54.4021273  45.3202152  39.1418171  53.1680250
  46.5158319  39.3543816  55.0226450  46.5770912  39.4953156  56.0208845
  47.8841162  39.2215252  54.3704891  47.9207373  39.9886632  53.5970163
  48.9773989  39.5517349  55.4035473  49.1683102  38.7848401  56.1542273
  50.2556992  39.9639773  54.6824980  50.7098484  39.0577173  54.2818022
  49.9418354  40.7069445  53.9492941  50.9138823  40.4203510  55.4218340
  48.6229658  40.7205343  56.0868311  48.1141329  40.4865694  56.8665457
  48.2181835  37.8896928  53.6799097  48.8807011  37.8965545  52.6030970
  47.8210354  36.7398119  54.1352987  47.3729658  36.7959094  55.0387287
  48.0928278  35.4722786  53.4793520  49.1303301  35.4227686  53.1488466
  47.8339195  34.2687035  54.4474363  47.7666426  33.2790589  53.9955711
  48.6414766  34.3093586  55.1783991  46.6503811  34.4311476  55.1823854
  46.7516422  35.1766253  55.7787132  47.1290350  35.2551532  52.2870398
  47.3543644  34.3211508  51.5199995  46.0847855  36.0128188  52.0454502
  46.0060501  36.7139864  52.7681303  45.0766325  35.7855964  50.9779644
  44.2682934  36.5073276  51.0953856  45.5841970  35.9973645  49.5258808
  46.2668085  35.2079105  49.2113924  44.6796036  35.7605815  48.9657545
  46.0274363  37.3795819  49.2733145  45.2899837  38.3186173  48.5573673
  45.9657240  39.4387484  48.6861277  45.7358170  40.4432869  48.3629465
  47.1496630  39.2934918  49.3473196  47.8001976  40.0237799  49.5994854
  47.1883440  37.9589319  49.7312880  48.0168867  37.4443936  50.1951551
  44.4999695  34.3487763  51.1719513  44.4514608  33.5839200  50.3094578
  44.0903807  33.9667153  52.4184752  44.0248966  34.6926594  53.1176329
  43.7001753  32.6039815  52.8856993  44.6162796  32.0426822  52.7018642
  43.4354401  32.5798225  54.4425726  43.0238199  33.5543990  54.7050047
  42.4868202  31.4960623  54.9015951  41.5053892  31.6552925  54.4549036
  42.8956127  30.5296683  54.6065092  42.3839951  31.4808297  55.9866238
  44.6119499  32.3428297  55.1793098  45.3661251  32.7924585  54.7911692
  42.5618839  32.0819592  52.0017338  42.5731850  30.8961844  51.7166185
  41.6385174  32.9307556  51.4937305  41.5740728  33.8679934  51.8645954
  40.6767178  32.5982094  50.3694201  39.8527932  31.9533849  50.6751204
  39.8191762  33.7892771  50.0048494  38.9934826  33.4844995  49.3618536
  39.4689322  34.2848754  50.9102821  40.6323862  34.8040152  49.1908741
  41.3117599  35.7532430  49.9577761  41.3719511  35.5248952  51.0116434
  42.0761967  36.7677712  49.3939829  42.6037264  37.4752116  50.0165939
  42.1487761  36.8277407  47.9613018  42.8366518  37.8528142  47.3251820
  43.4993553  38.2286716  47.9092693  41.3998604  35.9213352  47.2024727
  41.3613749  36.0177159  46.1274672  40.6474733  34.8907518  47.7830601
  40.1257038  34.1759992  47.1639585  41.3088655  31.9650507  49.0954638
  40.4653883  31.4036131  48.3657932  42.5894833  31.9935942  48.7982845
  43.2201195  32.4848485  49.4155979  43.1628895  31.1352634  47.6700878
  42.4622774  30.9634519  46.8529415  44.3244028  31.9422579  47.0546484
  45.0792646  32.1093678  47.8230000  44.8852968  31.3336349  46.3453674
  44.0824795  33.3410120  46.4648199  43.7933397  34.0173388  47.2692299
  45.2919292  33.9587641  45.8317041  46.0379410  34.0776348  46.6174746
  45.7059765  33.3645463  45.0171041  45.0308228  34.9100971  45.3681469
  42.8703356  33.3382607  45.5313540  42.9415274  32.4988174  44.8397160
  41.9820690  33.0242705  46.0795355  42.7838707  34.3627524  45.1693535
  43.7290144  29.7651672  48.0561352  43.7197256  28.8641095  47.2682905
  44.2857647  29.7172832  49.3049335  44.2331934  30.5440021  49.8827505
  45.2984476  28.7299347  49.7199678  45.6339836  29.0397692  50.7096720
  44.8402214  27.7559519  49.8916817  46.5457058  28.6390376  48.8358498
  47.1118927  27.5097704  48.7646341  46.9251919  29.6998000  48.1366110
  46.4370537  30.5772281  48.2458782  48.1424427  29.7267556  47.2475624
  48.0590916  28.8550282  46.5985298  47.9949284  30.8645105  46.2926006
  47.0932961  30.7450962  45.6918478  48.0331564  31.7189813  46.9682646
  48.8968801  30.8198571  45.6822014  49.4380856  29.7309923  48.0858088
  50.1875067  30.7006788  47.9907465  49.6249008  28.6614037  48.8621187
  48.8593006  28.0051589  48.9195299  50.6995535  28.4590435  49.7901821
  51.6037416  28.9304113  49.4050026  50.2979851  28.9529300  51.2619591
  49.5727539  28.2551527  51.6805840  51.1746883  29.0365458  51.9042253
  49.8161030  30.3572774  51.3270712  48.6520529  30.6562161  51.0115290
  50.7068062  31.2080312  51.6776037  51.1408043  26.9597435  49.8600435
  52.0322752  26.5662241  50.6299019  50.5589581  26.0678124  49.0611506
  50.0156784  26.3847899  48.2709074  50.8235264  24.6133089  48.9951181
  50.7444668  24.2560768  50.0218773  49.7807550  23.8984990  48.0468607
  48.7814665  24.2300534  48.3289814  49.9690247  24.1339040  46.9993687
  49.8582554  22.4168563  48.2194233  50.6088734  22.0726442  47.5079441
  49.9901581  22.1473026  49.2672968  48.4363365  21.3461208  47.7078867
  47.2696924  22.0691347  48.8827229  47.1658373  21.5435195  49.8319578
  47.4030161  23.1457663  48.9885139  46.3663197  21.8614626  48.3092356
  52.2883272  24.2161798  48.5505533  52.8764629  23.2680297  49.0411472
  52.8822660  25.1482058  47.9069710  52.3898602  26.0007739  47.6816559
  54.3446016  25.1954055  47.5983572  54.8613691  24.4927382  48.2520533
  54.6753025  24.9236965  46.1048317  53.9790678  24.1627073  45.7523346
  54.3721199  25.7604337  45.4755068  56.1241531  24.4726491  45.6929493
  56.0382175  23.9858270  44.7214985  56.7471409  25.3185391  45.4023361
  56.9507647  23.5584140  46.6445065  58.1591654  23.8787413  46.8593454
  56.4512777  22.5405216  47.1438169  54.8214293  26.6380334  47.8319597
  54.1802502  27.5299954  47.2989368  55.9435463  26.8944550  48.5524368
  56.3811493  26.1093926  49.0131712  56.3126564  28.2609701  48.9954329
  55.7771540  29.0321827  48.4417391  55.9024668  28.4241533  50.4675627
  54.8129177  28.4528232  50.4803419  56.1772013  27.6198316  51.1499834
  56.4651585  29.6843743  51.1004686  57.5544977  29.7145796  51.0774326
  56.1390448  30.6015396  50.6099987  56.0898733  29.8314285  52.6042747
  54.9004555  29.8134685  52.8793430  57.0421314  30.0716233  53.4507942
  57.8113127  28.4614897  48.8012934  58.5703135  27.6487994  49.2654371
  58.2132006  29.4552326  48.0230236  57.5701904  30.2085423  47.8251123
  59.6034670  29.5670152  47.4705505  60.3073883  29.0923381  48.1541300
  59.6332645  28.9066863  46.0881138  60.5549669  29.1741085  45.5713415
  59.7658873  27.8373241  46.2523508  58.3549881  29.1170931  45.2225733
  58.3419418  30.0901556  44.1910076  59.2773438  30.5727506  43.9490843
  57.1763706  30.1984930  43.3641720  57.1555948  30.8596301  42.5104284
  56.0644627  29.3948889  43.5782814  55.2363157  29.3272352  42.8883600
  56.0947847  28.4876966  44.6451807  55.2960014  27.7757907  44.7919464
  57.2442198  28.3197093  45.4462957  57.1754932  27.6378775  46.2810278
  60.1332760  31.0185432  47.3859787  60.5644608  31.4799690  46.3083553
  59.9793863  31.8836975  48.4168816  59.4511080  31.6629696  49.2489290
  60.5696487  33.2046294  48.4197950  60.0540543  33.8730335  47.7302313
  60.4882908  33.7835574  49.8094702  61.2038612  33.2394743  50.4259348
  60.9068727  34.7899604  49.8159456  59.0909958  33.8180017  50.4197454
  58.5395527  32.7737355  51.2018490  57.2714758  33.2262826  51.4241219
  56.5167046  32.8010201  52.0690060  57.0913410  34.4662762  50.9187078
  56.1851168  34.8662448  50.7215023  58.2412434  34.8419738  50.2542067
  58.4063435  35.7479978  49.6900558  62.0499325  33.2598901  47.9526615
  62.8748798  32.3066878  48.1320858  62.5009108  34.4252181  47.4568462
  61.9158649  35.2481031  47.4829817  63.8048744  34.7014618  47.0200920
  64.5787811  34.5310903  47.7685165  64.1157579  34.2117119  46.0972691
  63.9712811  36.2305689  46.7137432  63.4166956  36.9695306  47.4881983
  64.7080994  36.6776514  45.7285213  65.2131605  35.9748769  45.2078247
  64.9156427  38.0509806  45.2374887  63.8989258  38.4322119  45.1423120
  65.5075502  39.0777087  46.2770987  64.9332190  38.9294219  47.1915722
  66.5267563  38.8554049  46.5931702  65.3897810  40.5313396  45.7532024
  65.9731531  40.6474543  44.8398066  64.3581104  40.7961512  45.5216169
  65.9014750  41.5032864  46.8169641  66.9045687  41.1848211  47.1006441
  66.0880089  42.4872541  46.3867092  65.0081062  41.6682386  48.0242586
  65.0803852  40.9333754  48.7133503  63.9156437  42.3846054  48.2209873
  63.1515169  42.2378206  49.2449284  63.2705593  41.4636564  49.8825836
  62.4116898  42.8833961  49.4815397  63.4173632  43.2198000  47.3159075
  63.9064407  43.2671261  46.4334917  62.5537968  43.7117195  47.4958277
  65.6865501  38.1564260  43.9371490  66.8617105  37.8865814  43.8817835
  65.0406885  38.4554529  42.8087759  64.0328455  38.3897853  42.8150558
  65.7158375  38.7607241  41.5076542  66.3488626  37.9249072  41.2096786
  64.6483040  38.7863398  40.3780127  63.6941290  39.1374660  40.7709122
  64.9516916  39.7258759  39.1479397  65.8002663  39.3479347  38.5776949
  64.1687775  39.7868681  38.3920097  65.2010822  40.7476854  39.4339705
  64.3880939  37.4344897  39.8462796  63.7479782  37.0893383  40.4729557
  66.4861202  40.0282431  41.6995382  65.9315729  40.9832430  42.1534777
  67.7637053  40.1600695  41.1791945  68.0107403  39.4444942  40.5105925
  68.5764647  41.3597298  41.2284899  68.0621767  42.0945835  41.8478537
  69.8666334  40.9674215  41.9849062  70.2904892  40.0791311  41.5165138
  70.6443119  41.7311525  41.9894314  69.5960379  40.4450750  43.4465885
  68.8725281  39.6304512  43.4146643  70.9293842  39.9763584  43.9813042
  70.8585072  39.6192670  45.0087118  71.3309145  39.1939664  43.3373022
  71.6425228  40.8005476  43.9659071  68.9438677  41.5282774  44.3005180
  67.8821516  41.7072535  44.1307688  68.9976072  41.1297369  45.3136206
  69.3467045  42.5288630  44.1435480  68.8213539  42.1201658  39.8970222
  69.9777794  42.3365784  39.5116401  67.8608131  42.5495958  39.0308285
  66.9458580  42.1919584  39.2654467  68.1679583  43.3579683  37.8006434
  68.8098526  42.7593803  37.1542907  66.8335152  43.5497665  36.9800210
  66.0971928  44.1674709  37.4941969  67.1083021  44.0350437  36.0434866
  66.1429930  42.2964954  36.6619635  66.7280483  41.2679529  35.9253192
  65.7292795  40.5097675  35.4855371  65.8238602  39.7022557  34.7746372
  64.5568895  40.8950377  35.9157062  63.6454439  40.5319500  35.6758308
  64.8077440  41.9973087  36.7679381  64.0328741  42.5398159  37.2891474
  68.7717056  44.7489595  38.1911230  68.2104254  45.4574394  39.0944719
  69.8718262  45.0209427  37.5625300  70.1815748  44.3621111  36.8624592
  70.6855345  46.2754202  37.7047062  70.3552961  46.6805553  38.6612129
  72.1668196  45.9386730  37.8628325  72.6302910  46.8536186  38.2318377
  72.1378660  45.1242733  38.5867190  72.9717159  45.4428816  36.5499306
  72.3545551  44.8928404  35.6117964  74.1935968  45.6778431  36.6100335
  70.4967213  47.3572636  36.6302371  69.8332357  47.1471548  35.6420875
  70.9804678  48.6126375  36.9006348  71.4348125  48.7272930  37.7953553
  70.6096745  49.8739862  36.2444711  69.5235491  49.9148798  36.3266993
  71.2488174  51.1230707  36.9265413  72.2875452  51.2218904  36.6112900
  70.6548786  51.9919538  36.6430354  71.2465858  51.0974693  38.5098195
  72.3016453  51.4662313  39.0624237  70.2769852  50.5848598  39.1064143
  70.8689499  49.8377609  34.7403765  71.8459749  49.3096876  34.2476940
  69.9436998  50.3968239  33.9799762  69.1645765  50.8538771  34.4318414
  69.9629402  50.4743338  32.5517631  68.9379406  50.7664013  32.3233509
  70.9892464  51.5939140  32.1566558  72.0003510  51.2443686  32.3654318
  70.8873606  51.7168522  31.0784149  70.6732512  52.9175997  32.8875875
  69.5687866  53.4844303  32.7797318  71.6653109  53.4003592  33.5201120
  70.1888466  49.1887712  31.7040110  70.5615759  49.2653513  30.5117226
  69.9510050  48.0013371  32.3233342  69.7765779  47.9110527  33.3140540
  69.7583723  46.7222881  31.6913223  70.6671476  46.4749432  31.1426377
  69.6372128  45.6616259  32.7801394  70.4329824  45.9263134  33.4764051
  68.6339951  45.7325554  33.2004046  69.9656153  44.3375111  32.3244286
  70.7055569  44.2288399  31.7225337  68.5927963  46.7216873  30.7475090
  67.5126266  47.0410395  31.1662960  68.6702299  46.2654781  29.4629622
  69.5767736  45.9612894  29.1377711  67.5853920  46.0645390  28.5729957
  66.7779255  46.6593885  28.9999151  68.0304813  46.6392422  27.2469997
  68.9154911  46.0552406  26.9943786  66.9455433  46.4412165  26.1917973
  66.0170412  46.8780231  26.5594792  67.3233461  46.8422461  25.2512932
  66.7148638  45.3853321  26.0504055  68.4046316  48.1499434  27.3780489
  67.6669836  48.5994720  28.0428076  69.3513155  48.2009935  27.9159093
  68.5259867  48.9317369  26.1426473  68.9149570  49.9196815  26.3891506
  69.1141987  48.4168053  25.3830767  67.5351858  49.1120768  25.7256413
  67.1519375  44.5668364  28.4138560  68.0611277  43.7201262  28.3654475
  65.8829165  44.2746019  28.5583043  65.2836084  45.0735569  28.4079528
  65.3530598  42.9080963  28.8575983  66.1964607  42.2624302  28.6128783
  65.0801134  42.7664995  30.3657436  64.2567635  43.4217596  30.6500483
  64.7554731  41.7259789  30.3610849  66.3256788  43.0894613  31.2710333
  67.2043896  43.0179119  30.6300569  66.1655998  44.1218567  31.5818977
  66.5113783  42.1954250  32.4893260  65.9759283  41.1353683  32.6016498
  67.4095011  42.6244450  33.3528614  67.6237726  42.0560265  34.1597629
  68.0085135  43.4044456  33.1229067  64.1066408  42.4932957  28.0855107
  63.3581924  43.3334351  27.5420570  63.7417746  41.2230635  28.0015874
  64.2437506  40.5287790  28.5364628  62.6555777  40.6625891  27.2401381
  61.9941521  41.4650869  26.9136095  63.1229115  39.8249245  25.9993243
  63.8341284  39.0219927  26.1931634  61.9681072  39.1241288  25.2403283
  62.2275734  38.7247729  24.2598724  61.6794109  38.2591462  25.8374548
  61.1011362  39.7718525  25.1102519  63.5809040  40.6835318  24.9168253
  64.4694519  41.1751795  25.3128791  63.8819218  40.1117086  24.0390444
  62.8236866  41.4450169  24.7300887  61.6985798  39.8511338  28.1063843
  62.1023703  38.8157749  28.6372662  60.4870892  40.3458834  28.4872603
  60.2508259  41.2362719  28.0731440  59.6833324  39.9440575  29.6915555
  60.1450539  39.0340877  30.0747871  59.9019623  40.9521055  30.8460212
  59.4936609  41.9382429  30.6248355  59.3061972  40.3453350  32.1143746
  59.2678928  40.9249020  33.0367279  58.2392883  40.1893997  31.9547582
  59.8131037  39.3941259  32.2766972  61.4285517  41.1679602  31.0467649
  61.8747139  40.1759481  30.9763694  61.7611694  41.7934895  30.2184057
  61.8972588  41.9118643  32.2938490  62.9834795  42.0007515  32.2759104
  61.4186668  42.8888559  32.3612881  61.7574978  41.3158035  33.1956673
  58.1543827  39.7073197  29.4200039  57.4504900  40.6993151  29.0418577
  57.5691414  38.5458517  29.7599244  58.2357359  37.4011040  30.3192711
  58.8080645  37.6566958  31.2110162  58.8996220  37.1103740  29.5051265
  57.1833611  36.3710666  30.7048035  56.7677355  36.5655828  31.6934991
  57.4595070  35.3191805  30.6314611  56.1383104  36.6409993  29.6618938
  55.1929998  36.2507391  30.0389624  56.3529634  36.1113095  28.7337518
  56.1442757  38.1296444  29.4129968  55.8990622  38.2928514  28.3635521
  55.0459814  38.8926101  30.2838683  54.9785662  38.8245368  31.5352511
  54.1791964  39.6926308  29.6383262  54.0375757  39.5856166  28.6440444
  53.1594038  40.5062342  30.3237414  53.6108732  40.7571507  31.2835979
  52.7639580  41.7995453  29.5264459  52.6961088  41.4452410  28.4978724
  51.4752007  42.4909544  29.9431443  51.6119242  43.0740881  30.8538389
  51.2284756  43.2402802  29.1909862  50.5675125  41.8945074  30.0350595
  53.7781239  42.8920937  29.4589233  54.6687317  42.4416351  29.0207314
  53.5320711  43.7120056  28.7841630  54.0354443  43.2014275  30.4719400
  51.9703817  39.6302009  30.6703258  51.4050770  39.0338564  29.8037148
  51.6278648  39.4690061  31.9323230  52.1507120  39.9356461  32.6596308
  50.4495573  38.6900163  32.2714663  50.6348944  37.7720165  31.7137671
  50.5230522  38.3897471  33.7264061  51.4363194  37.8264880  33.9182115
  50.4676199  39.3086648  34.3100333  49.4775248  37.3942161  34.2229295
  48.4796381  37.7294421  33.9401937  49.7395039  35.9896803  33.8255668
  50.6720400  35.6004596  34.2341995  48.9213324  35.3631067  34.1806817
  49.7581530  35.9645009  32.7360153  49.5096111  37.3656631  35.7593727
  49.4172478  38.3828330  36.1400747  48.7379026  36.7858434  36.2657070
  50.4554367  36.9175220  36.0638285  49.0767717  39.3912625  31.8806839
  48.7605953  40.5170727  32.3323750  48.1677103  38.8065672  31.0753655
  48.3129072  37.4396491  30.5368972  47.8240252  36.7620921  31.2369061
  49.3526077  37.2804761  30.2509093  47.5103760  37.3741579  29.2344499
  47.0964527  36.3687634  29.1573071  48.1462193  37.4522710  28.3525753
  46.5023899  38.4890103  29.4079208  45.6196260  38.0873346  29.9053979
  46.2998438  39.0262985  28.4814215  47.2120333  39.5350575  30.2934146
  47.8722048  40.1347828  29.6668386  46.1065340  40.3791094  30.9967875
  45.7993555  41.5093899  30.5974317  45.4775906  39.9288893  32.1162105
  45.5696344  38.9498568  32.3466945  44.3544626  40.6589603  32.7397060
  43.8687849  41.3607502  32.0616889  43.2546139  39.6802211  33.1919169
  42.3262262  40.2474165  33.2589340  43.0506563  38.9018011  32.4566865
  43.4144020  38.9037609  34.4946456  43.8207579  39.6096349  35.2190161
  42.4412203  38.5248446  34.8068166  44.5164871  37.7732229  34.5075464
  45.3245449  37.5907540  33.5952854  44.4083929  36.9418621  35.4902291
  45.2318811  36.3654423  35.5887675  43.7210226  37.0720053  36.2187099
  44.7567987  41.5986013  33.8263750  43.9622450  42.4409389  34.3830228
  46.0240507  41.7022943  34.1350150  46.7043066  41.1061954  33.6855459
  46.5434217  42.7303982  35.1429486  45.7696867  42.9141140  35.8883905
  47.8397560  42.2208643  35.7793641  48.6340570  42.2463226  35.0333500
  48.2725239  43.1066751  36.9583440  49.1379642  42.7063417  37.4864006
  48.5598803  44.1400528  36.7642856  47.4302959  43.2022429  37.6436353
  47.7861357  40.8770514  36.3124633  47.0829058  40.8073521  37.1423531
  47.4900866  40.2562618  35.4668427  48.7578678  40.4918909  36.6214895
  46.8638563  44.0733862  34.4506335  47.9601526  44.2727137  33.9618254
  45.8516121  44.9401569  34.5665193  45.0756836  44.5806694  35.1039290
  45.8732700  46.3394690  34.1195011  46.6910839  46.4782000  33.4123707
  44.5930576  46.8198872  33.4121418  43.8082647  46.9172859  34.1622853
  44.8007393  47.7761269  32.9319644  43.9201164  45.9219217  32.3919225
  43.4295654  45.1014185  32.9155946  43.0151510  46.3366079  31.9478774
  44.9844551  45.3426361  31.0097075  44.8711395  46.6347027  29.7822642
  45.7381153  46.6521502  29.1218567  43.9748287  46.6734314  29.1632104
  44.9856329  47.5551701  30.3547430  46.0172653  47.2934914  35.2965236
  46.1845064  48.4922171  35.0992608  46.0041523  46.8256712  36.5380430
  45.6703854  45.8846283  36.6901541  46.4124727  47.5685692  37.7599907
  45.8554649  48.4994888  37.8659749  45.8598042  46.8359041  39.0116525
  46.0332489  47.4389505  39.9029231  44.7944880  46.6140699  38.9484310
  46.6760778  45.5741358  39.2457676  46.1526728  44.8031187  38.6803651
  47.6719713  45.7080460  38.8234282  46.7627621  44.9571991  40.9550095
  47.9950571  46.0273743  41.7024708  47.7789021  47.0833254  41.5401125
  48.0376768  45.7718658  42.7612448  48.8774300  45.7099962  41.1467886
  47.8973866  48.0903769  37.8491044  48.8467979  47.4968481  37.3965192
  48.0604601  49.2335129  38.5110688  47.2829628  49.5681143  39.0621090
  49.3557453  49.9105358  38.6354113  49.8759842  49.6576357  37.7115631
  49.2513561  51.4320612  38.6024189  48.5796165  51.7435598  39.4023156
  50.6881714  52.0874453  38.8334322  51.4338446  51.3510656  38.5337281
  50.8373260  52.9812002  38.2275724  50.7431889  52.2614431  39.9080491
  48.8317490  52.0268011  37.2165227  49.7518349  52.0249033  36.6321111
  48.1570721  51.4309216  36.6018367  48.2319975  53.3363771  37.3533869
  47.2137785  53.3494902  37.7421761  48.9307308  54.0429688  37.8012753
  48.1051731  53.7473774  36.3518405  50.1220369  49.3675947  39.8223305
  50.0923967  49.8883533  40.9842920  50.7743216  48.2249212  39.6257424
  50.6919909  47.7470398  38.7397695  51.8252182  47.8184319  40.5368137
  51.4513636  47.5873661  41.5342808  52.4198103  46.5441084  39.8319221
  51.5587521  45.9187460  39.5961261  52.9145908  46.7710924  38.8875866
  53.3927155  45.7126141  40.8014441  54.2359209  46.3382721  41.0941172
  52.6647043  45.3092718  42.1422863  51.7337227  44.8120689  41.8699551
  53.2568359  44.6965122  42.8219986  52.4489307  46.2249470  42.6928186
  53.8560486  44.5269728  40.0769281  53.0152798  43.8568926  39.8974776
  54.1894102  44.8192596  39.0811682  54.7030544  44.0124512  40.5307388
  53.0304193  48.7763882  40.6652546  53.4210873  49.4127178  39.7068119
  53.5827684  48.7776566  41.8666840  53.1897926  48.1680679  42.5695896
  54.7538376  49.5035887  42.3375702  55.2383184  49.9221563  41.4554214
  54.2019033  50.6984425  43.2358885  53.7071276  50.1585627  44.0432453
  55.2826977  51.6590643  43.8276672  55.8014584  52.0737267  42.9633522
  54.7789383  52.4122572  44.4334984  55.9731817  51.0328436  44.3926334
  53.2474041  51.6789055  42.4656200  52.3888588  51.0806656  42.1604729
  52.8202963  52.4012899  43.1612015  53.8113308  52.0883894  41.6275167
  55.7322598  48.5370302  43.1272268  55.3275490  47.4642134  43.5935831
  57.0600367  48.7591648  43.1443501  57.8436947  49.8007584  42.4518728
  57.7513599  50.8203316  42.8260994  57.5834560  49.8819828  41.3965178
  59.2675591  49.3105125  42.5394487  59.8577547  50.2268839  42.5452280
  59.4858885  48.7703609  41.6182137  59.3465090  48.5311460  43.8245440
  59.5376968  49.1760969  44.6822023  60.1778555  47.8262472  43.8334990
  57.9414225  47.8427076  43.9080524  58.0382824  46.9061327  43.3589220
  57.5051403  47.4825382  45.2949142  57.1127701  48.3556414  46.0021687
  57.5412846  46.1793900  45.6215477  57.9708338  45.6198978  44.8986626
  57.3756123  45.6196165  46.9491959  57.8910828  44.6603680  46.9964647
  57.8337812  46.2202930  47.7349234  55.8973932  45.2766609  47.4108982
  55.7398033  44.7089481  48.4441853  54.9776030  45.6901741  46.5796804
  55.3174543  46.1939669  45.7729626  53.4792519  45.4949951  46.7101288
  53.2210064  45.6189203  47.7618217  52.7133465  46.5429592  45.9093475
  53.0393696  47.5259447  46.2492704  52.8831863  46.5145779  44.8330355
  51.2163830  46.4569569  46.2641191  50.7013512  45.7078505  45.6627226
  51.1254025  46.1841059  47.3154879  50.6322622  47.9011297  46.0899019
  50.5182791  48.5037184  44.9863386  50.2187634  48.5655355  47.0995474
  49.9853468  49.5470762  47.0526648  50.3386164  48.2387590  48.0476761
  53.0451584  44.0969372  46.2450123  53.4592533  43.6408329  45.1879072
  52.2092390  43.4328842  47.0789862  51.9769001  43.8380051  47.9745340
  51.7477274  42.0252848  46.8250656  52.5664616  41.4913845  46.3426542
  51.5746737  41.3145018  48.1917477  50.8517790  41.8232346  48.8294935
  51.0075188  39.9350929  48.0051136  51.5848732  39.3263245  47.3092937
  50.9268427  39.4780064  48.9913559  50.0536013  40.1206684  47.5114489
  52.8404236  41.2630987  48.8036537  53.1364584  42.1594286  48.9784765
  50.5286312  41.9674301  45.8585072  49.5301533  42.6039076  46.1946344
  50.6391335  41.1411715  44.8632050  51.4277744  40.5238342  44.9937344
  49.7840595  40.9250116  43.6562586  49.0137386  41.6954517  43.6897182
  50.5682802  41.2926483  42.4406481  51.1320448  42.1961403  42.6729727
  51.2760830  40.4692602  42.3450089  49.8176193  41.4370251  41.0899973
  49.2749882  40.5137777  40.8868504  48.8797903  42.6705456  40.8996439
  49.4164896  43.6191893  40.9113932  48.3987904  42.5680685  39.9268961
  48.1081295  42.6020098  41.6664171  50.8873177  41.5983677  40.0200319
  51.4784288  42.4919891  40.2203512  51.5334606  40.7207823  40.0410318
  50.4893923  41.5229988  39.0080667  49.1868448  39.5310330  43.6311102
  49.7459602  38.6264086  42.9350424  48.0875587  39.2248297  44.2342758
  47.2693110  40.1445436  44.9959660  47.1225119  41.0712481  44.4411945
  47.6648951  40.4282904  45.9712124  45.9325457  39.4518399  45.1508045
  45.3288078  39.6485448  44.2648554  45.4255915  39.8256993  46.0403728
  46.2708855  38.0585456  45.2283764  45.4644823  37.3307443  45.1382685
  46.7942381  37.8370953  46.1585188  47.3602390  37.8945494  44.1832447
  48.0488968  37.0763898  44.3941116  46.6999960  37.6851892  42.7740717
  46.1453390  38.6119318  42.1349287  46.6652298  36.3891697  42.3939514
  46.9998407  35.6880403  43.0393648  46.3651800  36.0231686  40.9835100
  45.6751108  36.7703509  40.5915594  47.6696062  36.1181259  40.2054930
  48.4834671  35.6927061  40.7926464  47.5594854  35.4276228  39.3693256
  48.0440140  37.4870396  39.6436167  48.1127882  38.2463360  40.4226160
  49.4210863  37.3627615  38.9970660  49.5348358  36.4621568  38.3936834
  49.5098829  38.2968974  38.4424448  50.2068853  37.3869586  39.7520781
  47.1165228  38.0301046  38.5851264  47.0339441  37.4359703  37.6750255
  46.0825491  38.0011129  38.9288568  47.4400806  39.0572429  38.4166217
  45.7174444  34.6032286  40.8574629  45.9473181  33.6861515  41.6785288
  45.0160074  34.3211818  39.7750163  44.7772741  35.1089454  39.1897488
  44.4052172  32.9930592  39.4711399  45.1926899  32.2981954  39.7629380
  43.1314659  32.7804327  40.3240919  43.3530045  32.8561783  41.3886499
  42.3926783  33.5542679  40.1155996  42.5784636  31.3918185  40.0251627
  42.1886730  31.4732289  39.0105057  43.3264780  30.6082392  40.1459360
  41.4655495  31.0945582  40.9862852  41.4192104  31.4939260  42.1333694
  40.4629755  30.4151630  40.5875969  39.6780491  30.4363871  41.2228489
  40.3832436  30.1139116  39.6268725  44.2094564  32.8779292  37.9410481
  43.5999346  33.7970018  37.3106050  44.6207619  31.7439175  37.3808432
  44.9229193  31.0060120  38.0007648  44.6802330  31.4402032  35.9352422
  44.1753864  32.1576548  35.2883339  46.1832762  31.2717438  35.4934502
  46.7306471  30.6066132  36.1613488  46.1899757  30.7035470  34.5632839
  46.8953466  32.5756717  35.3940558  47.8217649  32.3691249  34.8581553
  46.1483812  33.5628724  34.5668983  45.7428932  33.1376100  33.6488390
  45.3622246  34.0380573  35.1536393  46.8556023  34.3413806  34.2807889
  47.2747469  33.2317638  36.7294765  46.4733267  33.8013935  37.1999550
  47.6864290  32.4995136  37.4240494  48.0710554  33.9688087  36.6257405
  43.9863825  30.1433825  35.6927967  44.4078207  29.0945530  36.2018013
  43.0530167  30.1768112  34.7411156  42.9838181  31.0802436  34.2948794
  42.1880436  29.0502906  34.3311763  42.3679399  28.2710361  35.0717854
  40.7269716  29.4336510  34.3076062  40.5677080  30.3482318  33.7364006
  40.1455879  28.6662030  33.7965989  40.0538874  29.5564103  35.6206703
  40.2647114  30.6825805  36.4088893  40.9785795  31.4231491  36.0797191
  39.5827365  30.8777404  37.6241636  39.6708798  31.8184495  38.1473207
  38.5725212  29.9062395  37.9992986  37.9630113  30.0519109  38.8788915
  38.3562422  28.8166356  37.1881747  37.5027466  28.2141256  37.4619007
  39.0911436  28.5768175  36.0129595  38.9604354  27.6561928  35.4636264
  42.6331663  28.6060286  32.9069281  42.8222466  27.3728371  32.6693487
  42.7731276  29.5285773  31.9926906  42.5561857  30.4906869  32.2103667
  43.0352688  29.1652942  30.5728793  42.1699047  28.5350084  30.3679800
  43.0029964  30.4417920  29.7012138  42.0534992  30.9731865  29.7657776
  43.7799406  31.1318707  30.0302339  43.2929468  30.1992559  28.2177496
  44.4993687  30.2434659  27.5390148  44.2498970  29.9424648  26.2554812
  44.9587250  29.9541140  25.4407215  42.9421234  29.6837282  26.0626936
  42.4101019  29.4229436  25.2447438  42.3469305  29.8178434  27.3399329
  41.3824511  29.4425130  27.6486540  44.2637396  28.2406974  30.4019737
  45.2727127  28.5480165  30.9800601  44.2941189  27.1327353  29.6140528
  43.1328487  26.4983702  28.9788961  42.8812933  26.9185758  28.0051160
  42.2652960  26.6635346  29.6177769  43.4818840  25.0445008  28.7737656
  42.8693676  24.5586419  28.0142498  43.3891726  24.5663834  29.7489119
  44.9528265  25.1976871  28.4622788  45.0312662  25.6555080  27.4762034
  45.4233551  24.2158127  28.5135412  45.4027128  26.1465788  29.5887017
  45.4049301  25.7432342  30.6013322  46.7567158  26.7601156  29.2535233
  47.7752542  26.4389801  29.8479319  46.7884684  27.5326467  28.1553936
  45.9266567  27.7864432  27.6939058  48.0378866  28.1031394  27.6922059
  48.7220192  27.2555971  27.6505184  47.8601313  28.6924148  26.3178802
  47.5966501  27.8451347  25.6847978  47.1204519  29.4919515  26.3592649
  49.1126204  29.4722080  25.8522344  49.2603350  30.2434301  26.6082072
  50.0067616  28.8621807  25.9806132  48.9519787  30.1183915  24.4186091
  47.9712152  29.8571754  23.7047744  49.9234056  30.9856701  24.0762615
  49.7500324  31.2606168  23.1199956  50.7568121  31.0662150  24.6410990
  48.6257696  29.1196918  28.8465714  49.8457861  29.1908002  28.9537644
  47.7890396  29.8159194  29.6088219  46.8066978  29.7453809  29.3849182
  48.2288218  30.7401800  30.6480432  49.0779734  31.3292360  30.3015423
  47.1762848  31.7623997  30.8963418  46.2000179  31.3381028  31.1308241
  47.4045324  32.3451805  31.7887378  47.1561956  32.8405285  29.8329616
  47.9735708  33.5429001  29.9962759  47.3251009  32.3387337  28.8801908
  45.9010983  33.7898135  29.7768521  45.1304197  33.7033319  30.8077931
  45.6137133  34.4296694  28.6757874  48.7951994  30.1228809  31.9342279
  49.8434544  30.4605103  32.3608351  48.1350279  29.0096068  32.3003602
  47.1662283  28.9576697  32.0195794  48.6575699  28.0310678  33.2576370
  48.9183426  28.5587764  34.1750360  47.6909256  26.8912387  33.5661697
  47.6098871  26.3699174  32.6123571  48.3071852  25.7524347  34.4039488
  47.5170517  25.0146317  34.5433903  49.2020178  25.3247595  33.9517689
  48.5224152  26.0956478  35.4158664  46.3903284  27.4724078  34.2556930
  45.7907581  26.5833092  34.4509459  46.6100359  27.9466629  35.2122045
  45.8256865  28.2201409  33.6987519  49.9988222  27.4287605  32.8004503
  50.9008503  27.2192025  33.6568856  50.1126528  27.0541096  31.5474105
  49.3069029  27.1440816  30.9451032  51.4113665  26.5903425  31.0656190
  51.7191648  25.6742954  31.5698171  51.3256168  26.1142302  29.5807290
  50.9000826  25.1150632  29.4875121  50.6323195  26.7327547  29.0107560
  52.5909615  26.0809827  28.9155364  52.7559328  26.9290805  28.4970713
  52.4027157  27.7158046  31.1796618  53.3743620  27.5344563  31.8894792
  52.2270679  28.8842320  30.6178904  51.4048910  28.9875054  30.0404263
  53.1375885  30.0242281  30.6536388  54.0804386  29.6869683  30.2230573
  52.5117588  31.2106991  29.8568225  52.4436140  30.8030224  28.8482308
  51.5745211  31.5837932  30.2697158  53.4423208  32.3733759  29.7350216
  54.4614172  32.0370626  29.5441294  53.0698156  32.9488349  28.8875651
  53.5934639  33.4638333  31.1520004  51.8881083  34.2501545  31.1470532
  51.7887545  34.8670650  30.2539372  51.0316515  33.5771084  31.1869240
  51.8066645  34.9249601  31.9991708  53.4822035  30.3610992  32.1135712
  54.6647406  30.3523517  32.4845910  52.4964619  30.4079843  33.0503440
  51.5374708  30.4683542  32.7392244  52.6713943  30.6804180  34.4827247
  53.3114290  31.5603900  34.5467472  51.3349533  31.0668373  35.2365565
  50.6119967  30.2832341  35.0098205  51.5257549  31.2134337  36.7517400
  52.4757099  31.7068672  36.9571924  50.6645632  31.7250443  37.1815085
  51.6760921  30.2788925  37.2922277  50.9161091  32.4599051  34.7588038
  50.8103514  32.4771500  33.6740828  49.9821854  32.6027822  35.3023696
  51.6949892  33.2011247  34.9378037  53.5609627  29.6366143  35.1511312
  54.5569420  29.9894547  35.6822801  53.1506252  28.3607197  35.0597978
  52.4302101  28.1083584  34.3984199  53.9327955  27.2347617  35.5746365
  54.0185022  27.2183371  36.6611385  53.2699633  25.9040141  35.2957940
  52.9607725  25.8265448  34.2534399  53.9473200  25.0743747  35.4982471
  52.0930099  25.4572082  36.2000680  52.4873781  25.2960229  37.2033596
  51.2557888  26.1498046  36.1136103  51.6428089  24.1242146  35.6944060
  51.2207651  24.2926502  34.7036433  52.4531698  23.4296942  35.4729080
  50.7360268  23.4508777  36.5600061  50.8611202  23.6162090  37.5484967
  49.7378778  22.6537967  36.3157153  49.3278265  22.3026943  35.1372957
  49.9289370  22.3659492  34.3281150  48.5888529  21.6206217  35.0435162
  49.0415812  22.1261144  37.2711444  49.5155621  22.1643472  38.1622028
  48.2158661  21.6084838  37.0059061  55.3592157  27.1635199  35.0667834
  56.2496901  26.8465185  35.8244586  55.5631971  27.4235725  33.8033867
  54.7152996  27.6973200  33.3277488  56.8736696  27.4278641  33.1041837
  57.4286652  26.5307069  33.3783960  56.6763449  27.3329496  31.5566373
  55.9785604  28.1453753  31.3537526  57.6455069  27.5021410  31.0873795
  56.0395718  26.0620975  31.0572219  55.8404160  25.0878119  31.7945576
  55.7210207  25.9885168  29.7577119  55.2072096  25.1739454  29.4534492
  55.7178497  26.8104649  29.1707754  57.8091145  28.4917641  33.5316467
  59.0269899  28.1820202  33.7007642  57.3258591  29.6859789  33.9274955
  56.3163900  29.7057843  33.9014220  58.1013775  30.6848264  34.6753097
  59.0015602  31.0502243  34.1810822  57.2201920  31.8824959  34.9420667
  56.2663412  31.5377283  35.3413248  57.7767467  32.4951744  35.6512713
  56.8872166  32.7687073  33.7641692  56.1266327  32.2166920  33.2120037
  56.2047482  34.0234733  34.2766929  55.5895090  33.7732553  35.1409698
  56.9385719  34.7884631  34.5304585  55.5183887  34.2824841  33.4705186
  58.1240654  33.0941582  32.9415107  58.5385704  32.2486115  32.3925662
  57.7012300  33.7039828  32.1431208  58.8896704  33.5742855  33.5509610
  58.3392954  30.1746750  36.0650301  59.4759893  30.3914976  36.4676142
  57.4289608  29.4112992  36.7592001  56.6148520  29.1467381  36.2231708
  57.6909447  28.8655972  38.1482267  58.0437899  29.7151613  38.7328982
  56.3606119  28.4284949  38.8132286  55.9690666  27.6494050  38.1591535
  56.5179968  27.7088523  40.1145029  56.9682550  28.3933616  40.8333874
  55.5517721  27.4711204  40.5594683  57.1147108  26.8031383  40.0062895
  55.3584385  29.6251774  38.9563656  55.6769276  30.4794979  39.5536947
  55.3538704  30.1080728  37.9791784  53.9240599  29.2303252  39.4236112
  53.9024162  29.2638707  40.5128813  53.1761217  29.9880195  39.1899633
  53.6970282  28.2641864  38.9729047  58.8244772  27.7718019  38.0760717
  59.6749353  27.6318669  38.9745164  58.9191771  27.0363116  36.9773316
  58.1304550  27.0955348  36.3492250  60.0151300  26.0772896  36.6793180
  60.0661945  25.4905772  37.5965214  59.6412945  25.1197648  35.5369830
  59.4831133  25.6514096  34.5986676  60.5339050  24.5464396  35.2866817
  58.4689999  24.1818523  35.9005690  58.7580919  23.2245660  36.3343120
  57.7828074  24.6324658  36.6176438  57.6941442  23.8187575  34.6528792
  58.2546186  23.2140446  33.7582922  56.4359713  24.2191696  34.5650458
  56.0112524  24.1435719  33.6518049  56.0110426  24.7659612  35.3002691
  61.3480949  26.7687654  36.4431357  62.3442698  26.0662079  36.5573764
  61.2870836  28.0003905  35.8896756  60.3563118  28.3887577  35.8354497
  62.5113487  28.7328029  35.4834580  63.3147144  28.0054116  35.6001210
  62.3481083  29.0341949  33.9960861  61.4756680  29.6379066  33.7461472
  63.1726027  29.7362328  33.8717723  62.5357676  27.8092456  33.0549598
  63.5742188  27.5693083  32.4410343  61.4435720  27.0497966  32.9115295
  61.6905403  26.1620474  32.4979925  60.5212641  27.4549794  32.9841733
  62.8410053  29.9437070  36.3927794  63.0027199  29.8377872  37.6216149
  62.7201557  31.2009740  35.8970022  62.3918581  31.2839603  34.9454570
  63.1356621  32.4348307  36.5983057  63.7777519  32.0268941  37.3789597
  64.0944958  33.2966805  35.8081818  64.3800640  34.2237020  36.3053632
  65.0286245  32.7961397  35.5533147  63.5498619  33.8703656  34.4946790
  62.3552847  33.7450123  34.2869592  64.3494654  34.4864106  33.7645578
  62.0533562  33.2626271  37.3923945  62.2556162  34.3819666  37.8089213
  60.8565998  32.6996851  37.5277543  60.7713461  31.8579412  36.9761181
  59.7334146  33.1870770  38.3558989  58.8809443  32.6041341  38.0072308
  60.0052595  32.8148818  39.8347521  60.5684233  33.6255360  40.2971268
  59.0294886  32.7954483  40.3201246  60.7313633  31.5281129  40.0884008
  60.2916431  30.7634425  39.4480634  61.7832088  31.7192268  39.8758101
  60.7994127  31.1547446  41.5546036  59.8236370  31.3522196  41.9984102
  61.1293077  30.1168561  41.5999508  61.8197107  31.9220233  42.2849560
  62.1593094  32.7546501  41.8250561  62.4572515  31.4901376  43.3806944
  62.3025846  30.2861428  43.9151716  61.7917204  29.5665336  43.4239674
  62.9255390  29.9892664  44.6526575  63.4227610  32.2378206  43.8537598
  63.5924530  33.1846333  43.5457659  63.9318895  31.9814038  44.6875095
  59.2777824  34.6224642  38.1777930  58.5820246  35.1021290  39.0438509
  59.5277309  35.2317572  36.9903302  60.0273848  34.7945666  36.2292004
  59.1446304  36.6781759  36.9977260  58.4766531  36.9668150  37.8092647
  60.4311228  37.5732732  37.2055531  61.0769939  37.2883797  36.3750196
  60.2894831  39.0236902  37.2168827  59.8853731  39.4209671  38.1479931
  61.2768126  39.4443560  37.0263004  59.7536516  39.4716835  36.3800454
  61.1839533  37.1368670  38.2797575  61.6346216  36.3236022  38.0408025
  58.5817814  37.0892668  35.6880045  59.1203117  36.7442846  34.6075368
  57.5671721  37.9070497  35.8255458  57.4449873  38.2896423  36.7522621
  56.7516756  38.4245372  34.7205496  57.1912622  38.1808972  33.7533355
  55.3732252  37.8371763  34.7930598  54.7593784  38.1771421  33.9589643
  55.4761219  36.7614818  34.6502495  54.5313740  38.0633950  36.0701132
  54.7934151  37.3796391  37.2776055  55.6287575  36.6963506  37.3191595
  53.9747620  37.5483680  38.4095311  54.1570854  36.9548798  39.2932343
  52.8452587  38.4248948  38.3096862  52.2297096  38.5542774  39.1876173
  52.5182819  39.0160418  37.0366526  51.6785717  39.6893477  36.9475269
  53.3378887  38.8521481  35.9310293  53.1161737  39.2549515  34.9537921
  56.7158604  39.9649692  34.8071432  57.1555758  40.5417728  35.7562852
  56.1853266  40.5993462  33.7491393  55.6894875  40.0832129  33.0365062
  56.0685110  42.1101332  33.7142205  56.5989256  42.5884581  34.5376086
  56.6278172  42.7049494  32.3969674  56.4182186  43.7690735  32.2882676
  57.7137280  42.6299095  32.3397398  56.2463045  42.0766211  31.5921378
  54.5716667  42.5749826  33.8471413  53.6688375  41.9930363  33.2586360
  54.3070221  43.6990786  34.5814085  55.0500059  44.0926600  35.1410222
  52.9866123  44.3478966  34.6549773  52.2687960  43.7992859  34.0451670
  52.4598885  44.2968512  36.0365915  53.2488155  44.7805643  36.6125369
  51.1450815  45.0718451  36.2508750  50.3823423  44.6404886  35.6026006
  50.7686949  45.0927639  37.2736168  51.1482811  46.1091042  35.9159350
  52.1464968  42.8982210  36.5867877  53.0970478  42.3657942  36.6195226
  51.7807245  42.9370308  37.6128531  51.4086151  42.4771643  35.9038925
  53.2015944  45.7307482  34.0899539  54.0138626  46.4839935  34.6710896
  52.5247145  46.1413860  33.0040240  51.9533205  45.4170704  32.5929570
  52.5015831  47.5015211  32.4591374  53.5059690  47.9248285  32.4477577
  52.0397282  47.5525761  31.0101056  50.9894705  47.2680807  30.9458542
  52.2424126  48.5711479  30.6791568  52.7761555  46.6082287  30.0406599
  52.4861097  45.5746412  30.2295256  52.2816467  46.9175196  28.5745239
  51.1936665  46.8666315  28.6170220  52.5472450  47.9612160  28.4064150
  52.6285315  46.2089300  27.8224111  54.2832422  46.7007542  30.0155425
  54.5452452  47.7515221  29.8916745  54.7879219  46.3242197  30.9052777
  54.6878529  46.1028433  29.1989064  51.6501093  48.3960009  33.3861423
  50.6173325  48.0167818  33.8725853  52.2118568  49.6323442  33.6050725
  53.0474138  49.8708963  33.0902576  51.5539980  50.7700062  34.2864156
  50.8452368  50.3931952  35.0238228  52.5098467  51.6328764  35.0671458
  52.8801489  51.2010527  35.9969354  53.4274721  51.7571306  34.4921422
  51.9664335  52.5402260  35.3307962  50.7180882  51.5099478  33.1915784
  51.1755705  52.5059986  32.6243186  49.5820713  51.0023260  32.8549695
  49.2713308  50.2136612  33.4040999  48.9873886  51.3933563  31.5377951
  49.7513723  51.2051010  30.7834768  47.8201962  50.4538631  31.0977030
  47.0473671  50.4348993  31.8661261  47.4417114  50.8323622  30.1481819
  48.1269836  49.0707207  30.7755613  48.3698797  48.6668491  29.4472980
  48.4483433  49.3970156  28.6554003  48.5340166  47.3276472  29.1242766
  48.6883545  47.0787859  28.0847335  48.5232019  46.3381386  30.0697136
  48.6378193  44.9948025  29.7299743  48.6502171  44.3133497  30.4060411
  48.3687878  46.7363167  31.4227581  48.2936811  46.0461092  32.2500300
  47.9997349  48.0998325  31.7237115  47.6723433  48.3542490  32.7209544
  48.5674572  52.8391743  31.4087915  47.7437973  53.3399153  32.1860480
  49.0467167  53.4294796  30.2859926  49.6397305  52.8844547  29.6765828
  48.7280703  54.7959566  29.8322630  48.6101246  55.5713463  30.5892015
  49.8293686  55.2966213  28.9052129  50.7114172  55.4120302  29.5351100
  49.9508810  54.6298170  28.0515718  49.4496870  56.5770245  28.4114385
  49.6582079  57.1681499  29.1385555  47.3071527  54.8956156  29.1284275
  46.6490030  55.9403467  29.2032266  46.8264246  53.7076330  28.6661220
  47.4283266  52.8970957  28.6953807  45.4490280  53.6066866  28.1264830
  44.6778202  54.0134144  28.7806320  45.4371881  54.3170547  26.8219662
  45.7381725  55.3435993  27.0310497  46.2603188  53.9317179  26.2202382
  44.0720654  54.2089367  26.0233235  43.1011772  53.6694479  26.5679193
  44.1352797  54.7342443  24.8568511  43.3477163  54.5475483  24.2527080
  44.9863148  55.1574135  24.5151448  45.0235271  52.1112776  28.0592370
  45.6534433  51.2860632  27.3127294  44.0828514  51.8098164  28.8831568
  43.5053873  52.5355005  29.2831802  43.7231588  50.3846550  29.2126322
  44.6217442  49.8761559  29.5620203  42.7858686  50.3374815  30.4107237
  42.1900034  51.2367392  30.2545786  41.8932152  49.1109085  30.5212355
  41.2835407  49.1593027  31.4234853  41.2471104  49.0761518  29.6440530
  42.5163507  48.2167339  30.5374146  43.6186075  50.7478046  31.6518116
  42.9776812  51.0446787  32.4819779  44.1272879  49.8319817  31.9528484
  44.2671919  51.5993118  31.4459753  43.0804682  49.7784281  28.0076814
  43.3553982  48.6352634  27.6336288  42.1927166  50.4684353  27.3984480
  42.0438528  51.4338207  27.6553011  41.3644218  50.0143242  26.2682986
  40.8061457  49.1048384  26.4902616  40.3685713  51.1764956  26.0037136
  40.9436607  52.0838499  25.8191085  39.7111082  51.0388994  25.1452780
  39.3364215  51.3414907  27.1064067  38.5182142  51.9313574  26.6932487
  39.0227461  50.3278780  27.3559976  39.8881626  51.9752216  28.4730124
  39.7517061  51.4471722  29.5871043  40.7533598  52.9501820  28.5103679
  41.2932110  53.1789780  29.3327498  40.8806229  53.5731125  27.7256012
  42.1695423  49.7574329  25.0053954  42.0530558  48.7327099  24.3461728
  43.0769920  50.6603098  24.6656537  42.9878330  51.5203571  25.1876378
  44.0774775  50.5124950  23.6092496  43.5278654  49.9975395  22.8213072
  44.6078873  51.8801355  23.2252169  43.7712860  52.5649738  23.0866647
  45.2300024  52.2799349  24.0259886  45.4144812  51.9968510  21.8985009
  45.3752565  53.0564880  21.6460538  46.4328241  51.6531229  22.0799541
  44.7119713  51.2168646  20.7816076  45.3743267  50.4279518  20.0531340
  43.4770584  51.3437748  20.6285357  45.2971935  49.6363258  23.9943671
  45.8872700  49.0015507  23.1111574  45.6926823  49.5130301  25.2523899
  45.2026224  50.1343918  25.8799601  46.7140293  48.6669350  25.9165549
  46.4801979  48.6117363  26.9797492  46.6526747  47.1157265  25.4965258
  47.2425032  46.9288492  24.5991516  47.1728516  46.5771341  26.2886357
  45.2937841  46.5492439  25.4089379  44.7789383  46.6938972  26.3587308
  44.7445917  47.0573854  24.6162987  45.2798843  45.0241184  25.2077413
  44.2407656  44.6959400  25.1826763  45.8244705  44.7931290  24.2922235
  45.9238052  44.3365097  26.3104820  46.8391085  43.9600563  26.1089897
  45.4269218  43.9985704  27.4478316  44.2193651  44.2584419  27.8949690
  43.6817217  44.8714161  27.2988892  43.8851261  44.0010262  28.8126421
  46.2226868  43.4849215  28.3565021  47.2016811  43.2992125  28.1916308
  45.8289623  43.2838249  29.2646003  48.1964684  49.2348385  25.8065701
  49.1689682  48.4658957  25.9209394  48.2646132  50.5279589  25.4817486
  47.3856401  51.0233164  25.4355550  49.4417381  51.4377451  25.4921865
  50.2940464  50.8966398  25.0812387  49.1424274  52.6109314  24.5742106
  48.9012909  52.2824955  23.5632300  48.2481575  53.1369019  24.9084926
  50.1990795  53.7844896  24.5638704  49.7583008  54.7308731  24.2505431
  50.6311798  53.9480162  25.5511189  51.3400316  53.4084272  23.5651755
  51.4790440  53.9875364  22.4515510  52.1109819  52.5485706  23.9507651
  50.0090122  51.7648602  26.9247270  49.2586899  52.0909119  27.8518867
  51.3489723  51.7875051  27.0826554  51.9042969  51.5455818  26.2744594
  52.0640039  52.2958183  28.1992412  51.5148735  53.1942320  28.4810352
  52.0264673  51.1657476  29.2590952  52.1677876  51.4888096  30.2904820
  51.0589600  50.6657934  29.3047738  52.6451874  50.3344297  28.9211631
  53.5133839  52.6581764  27.8887558  54.1631556  52.2271872  26.9706225
  54.1074991  53.5116196  28.7436485  53.6249828  53.6853266  29.6137667
  55.5380344  53.9602184  28.6354017  56.0742950  53.5177565  27.7959037
  55.5814505  55.4836321  28.5645747  55.2359867  55.9403181  29.4920397
  56.6279030  55.7319117  28.3873987  54.7593975  56.0922337  27.4205923
  53.7196636  56.1890173  27.7331400  55.2044916  57.0271397  27.0801091
  54.5568180  55.2811813  26.1393332  53.4374762  55.1185608  25.5944633
  55.5265760  54.6514606  25.6608462  56.3469219  53.4061193  29.7746181
  57.5917864  53.3543110  29.5771599  55.7602167  52.8426743  30.8497500
  54.7674608  52.6674700  30.7877851  56.4554739  52.4242878  32.1112204
  57.5042057  52.1845388  31.9357800  56.3666105  53.6347914  33.1242347
  55.3375530  53.9926434  33.1571102  56.4613724  53.3546543  34.1733527
  57.3112440  54.7759628  32.7349234  56.9026279  55.6435680  31.7048454
  55.8342361  55.6607866  31.5478373  57.7939320  56.5041447  31.0059214
  57.4753189  57.1665239  30.2146292  59.0890837  56.6743898  31.5172911
  59.7725153  57.3598146  31.0382152  59.4690609  55.7971430  32.5850987
  60.4940701  55.8821297  32.9145408  58.6380529  54.8331213  33.1489015
  59.0218163  54.1411448  33.8839531  55.7612562  51.2877321  32.7839470
  54.5746326  50.9857893  32.4026251  56.4639425  50.5041170  33.6196828
  57.4433470  50.7394123  33.6938381  55.8893061  49.3829966  34.4211006
  55.0502491  49.8094463  34.9708486  55.7218122  48.5792112  33.7041831
  56.9088888  48.8541985  35.3950524  57.9211426  49.5095253  35.5752492
  56.5286112  47.7509499  36.0519123  55.7055187  47.2197151  35.8061266
  57.3333883  47.1553326  37.0748568  58.3484983  47.5462103  37.0051551
  56.5564156  47.4720240  38.4342408  55.6536770  46.8616104  38.4107327
  57.3486710  47.2703505  39.7665858  57.8421831  46.2987137  39.7449183
  58.0997133  48.0565643  39.8434687  56.6946030  47.3462439  40.6352234
  56.1461735  48.8023281  38.5501909  55.2986622  48.7800884  39.0005660
  57.3668194  45.6541491  36.8996620  56.4050817  45.0535488  36.4816689
  58.5363388  45.0521851  37.0558906  59.4201899  45.5106544  37.2253442
  58.5259867  43.5430050  37.1310711  57.9789972  43.0940056  36.3020325
  60.0626707  43.1092072  37.1838331  60.0651121  42.0814657  37.5469351
  60.6223011  43.1458855  35.7727575  60.6412220  44.1664886  35.3904963
  61.6899490  42.9265594  35.7841349  60.1184416  42.3952007  35.1639104
  60.8616304  43.8502216  38.0865335  60.9052420  44.7621775  37.7898145
  57.8531885  43.0299377  38.3931541  57.6170063  43.7446642  39.3486667
  57.6295900  41.6738224  38.3566761  57.8393507  41.1720848  37.5055814
  56.9320679  41.0048866  39.4854212  57.1553946  41.5531254  40.4006577
  55.3615475  41.0809898  39.2448235  54.9276400  40.6115770  40.1277065
  55.0553989  42.1252584  39.1825891  55.0103235  40.5709553  38.3478212
  57.3532438  39.5317841  39.7280145  57.4144268  38.8072443  38.7572384
  57.5314426  39.1001678  40.9613085  57.3717213  39.7641397  41.7054415
  58.1773520  37.8098226  41.3069725  58.4770393  37.2902417  40.3968430
  59.5204687  38.0623937  42.0417738  60.0176620  38.7619257  41.3697910
  59.4006395  38.4424496  43.0563164  60.2880096  36.7461061  42.1033335
  59.8810911  36.0397768  42.8269529  60.1596403  36.2678266  41.1323166
  61.8169165  37.0830202  42.3556376  62.6341724  36.5572190  41.6180325
  62.2631359  37.7444267  43.3265352  57.2569227  36.8568087  42.0802355
  56.8198681  37.0981717  43.1928730  56.9577122  35.6898642  41.4076424
  57.4637985  35.3736997  40.5927658  56.1547709  34.6345687  42.0326757
  55.2134514  35.1007676  42.3236656  55.8176231  33.4670353  41.0876894
  56.6593695  32.7758169  41.0454655  54.7123432  32.6336241  41.7385578
  55.0274706  32.3524332  42.7434111  53.8141155  33.2511067  41.7378330
  54.3950796  31.7144012  41.2461424  55.3518534  33.9407992  39.7019815
  54.4771385  34.5769095  39.8373938  56.1571503  34.5808601  39.3415451
  55.1385450  32.8382945  38.6182642  56.0370016  32.2629905  38.3949018
  54.3431187  32.1733546  38.9547873  54.6433592  33.2230282  37.7267051
  56.7698526  34.1044927  43.3445501  57.9252720  33.6460304  43.3084059
  56.0488462  33.9660478  44.5267248  55.1667643  34.4580173  44.5290232
  56.6140318  33.4247375  45.8032703  57.5670433  32.9234052  45.6343412
  57.0304251  34.6883488  46.7042780  57.7581549  34.3253446  47.4300480
  57.4666071  35.4638195  46.0746050  55.7991600  35.2569509  47.3500776
  55.1371670  34.5787263  48.4126282  55.4358244  33.5791850  48.6921358
  53.9540100  35.1663136  49.0018845  53.4252596  34.5987868  49.7533751
  53.5182714  36.4247036  48.4990311  52.4695635  37.0022058  49.0706015
  52.2642612  36.5224171  49.8763657  54.2577124  37.1600771  47.5650167
  53.8631821  38.1425190  47.3515940  55.3805161  36.5005970  46.9491196
  55.9267712  36.9252205  46.1198473  55.7634830  32.3481178  46.4866352
  56.2941122  31.7504549  47.3906851  54.5915985  31.9092488  46.0223484
  54.1390181  32.3340845  45.2256107  53.8323116  30.9042954  46.7406321
  54.4488668  30.0470781  47.0110750  53.2145977  31.5394616  48.0446672
  52.5824404  32.4064159  47.8526592  52.6633072  30.8082724  48.6358881
  54.0524578  31.8518806  48.6679554  52.6734781  30.4445720  45.8547735
  52.1623039  31.1544156  44.9829054  52.1709013  29.2031455  45.9949398
  52.6539373  28.6663961  46.7011118  51.3573837  28.4740019  44.9437523
  50.7427216  29.2564774  44.4987488  52.3324776  28.1230593  43.7969017
  52.6780939  29.0338731  43.3079576  53.2819843  27.7329659  44.1634607
  51.8180275  27.1496129  42.6785803  51.4209890  27.6375604  41.4737797
  51.4427090  28.7091541  41.3410616  51.1929989  26.8134546  40.3712273
  51.0542250  27.0581317  39.3285036  51.3742065  25.4137826  40.5388927
  51.2136841  24.6766186  39.4680238  50.9090948  23.7810659  39.6317697
  51.4965725  24.8564196  41.8269920  51.5289783  23.7840271  41.9507933
  51.7543840  25.7592273  42.9229116  51.9964409  25.3823209  43.9056396
  50.5338335  27.2940922  45.4393911  50.8157539  26.6272306  46.4152288
  49.5161533  27.0407796  44.6705103  49.2018557  27.6507473  43.9293909
  48.6475611  25.8465791  44.7352791  49.2476034  24.9896049  45.0412989
  47.5559950  26.1324477  45.7894611  48.0784607  26.1009216  46.7455673
  47.2504187  27.1770072  45.7292891  46.4142323  25.1960611  45.7153320
  45.9357452  25.1342797  44.7379208  46.8158865  24.1922688  45.8538103
  45.3939533  25.6183505  46.8297672  45.8150911  25.6111765  47.8350973
  45.0010777  26.6162610  46.6350317  44.2140245  24.7685337  46.8758011
  43.6703300  24.7545195  46.0247469  43.8080120  23.8410139  47.7302885
  42.9268646  22.9260540  47.4435806  42.4211407  22.9318094  46.5693283
  42.5756598  22.3684406  48.2089710  44.3095016  23.7106800  48.8709068
  45.0309277  24.3116856  49.2429781  43.8649893  23.0906367  49.5327663
  48.1211233  25.5584526  43.3059359  47.6280022  26.3784122  42.5539160
  48.0654287  24.2634583  42.9781103  48.4347296  23.6385512  43.6804008
  47.2740316  23.7260795  41.8558073  46.8782234  24.6223187  41.3781071
  48.1432915  22.9646254  40.8199692  47.4947643  22.5690103  40.0382996
  48.8371849  23.7333417  40.4798460  48.8553047  21.7437792  41.4271164
  48.9417315  21.9084644  42.5011301  48.2725334  20.8301711  41.3096619
  50.1821852  21.4549398  40.7521534  50.4964256  21.9490075  39.6356869
  50.9031868  20.6293821  41.3694906  46.0877037  22.9276752  42.2352791
  46.1656570  21.9615912  43.0226326  44.9398041  23.2175326  41.6613388
  44.9233866  23.9520955  40.9683323  43.8271093  22.2768712  41.6868067
  43.8669252  21.5892792  42.5316334  42.4961519  23.0150151  41.6444921
  42.2502470  23.3924866  40.6519461  41.7868376  22.2498417  41.9599009
  42.3014116  24.1949081  42.5733948  42.9214478  25.0730062  42.3928452
  41.3038492  24.5332766  42.2932434  42.2158003  23.9027619  44.0753126
  42.1923208  22.7570057  44.5449924  42.1307850  24.8854828  44.8223543
  43.8614130  21.4021063  40.4683208  43.6049557  21.8929029  39.3868160
  44.2296648  20.1238918  40.5691338  44.3520927  19.7956681  41.5164328
  44.5574999  19.1458690  39.4911289  45.1139021  19.6910989  38.7287378
  45.4521275  18.0240524  40.1059103  44.9304485  17.5401640  40.9316254
  45.6145573  17.2685289  39.3372035  46.8012142  18.5610783  40.5814505
  46.6397285  19.5540476  41.0010147  47.1377993  17.8893340  41.3711214
  47.8678513  18.7122512  39.5410466  47.6823759  19.4145691  38.6212492
  48.9584684  17.9940438  39.6508074  49.6844149  18.0502832  38.9508486
  49.0138721  17.4949431  40.5271244  43.3291197  18.5071075  38.7495899
  43.4325457  17.4269879  38.1735086  42.1834612  19.2452002  38.7753272
  42.1893930  20.1762629  39.1667199  40.9321356  18.7535214  38.1674552
  40.5446100  17.9108322  38.7399912  39.9321866  20.0053239  38.1575370
  40.3297329  20.7998919  37.5260949  39.0492702  19.5689619  37.6904750
  39.6232295  20.6057167  39.4605541  39.4519520  21.8368626  39.4754410
  39.3081236  19.8898733  40.4696417  41.2061405  18.4194350  36.6560364
  41.8030167  19.1724348  35.9052587  40.7826281  17.2601902  36.2531614
  40.1748085  16.7577577  36.8842077  41.1992025  16.6863978  34.9721980
  42.2888327  16.7111802  34.9583912  40.7264996  15.2104402  34.8423171
  41.1426783  14.5960963  35.6407404  39.6373796  15.1889551  34.8041129
  41.0335970  14.5300925  33.5009623  40.2166176  14.7512734  32.3927808
  39.3800688  15.4342473  32.4043250  40.3599119  14.0333402  31.2069345
  39.6769667  14.1130996  30.3740907  41.4283609  13.1145597  31.0558128
  41.4598274  12.5150764  30.1580191  42.1925831  12.7525866  32.2071385
  42.9708672  12.0038104  32.2108102  42.0569086  13.5639858  33.3926797
  42.6180363  13.2307363  34.2531896  40.7119083  17.5931072  33.7497163
  39.4676375  17.8859627  33.5913181  41.7021608  18.1518960  32.9880023
  42.6753950  17.9958212  33.2083893  41.4736795  19.0859437  31.8448186
  42.2126913  19.0621650  31.0439467  40.5977249  18.6698818  31.3471103
  41.1825705  20.5584812  32.3263574  41.7931843  21.5178275  31.7760968
  40.2697945  20.7261395  33.3047318  40.0215721  19.8918307  33.8169956
  39.7865701  22.0447063  33.7815881  39.8682189  22.7628469  32.9656768
  38.2186913  21.8620777  34.1212702  37.7828741  22.8425288  34.3133116
  37.4590135  21.3075137  32.9127216  37.7595019  21.9556999  32.0895195
  37.7360797  20.2559519  32.8381705  36.3762856  21.3574457  33.0280685
  37.9513645  20.9284258  35.3291869  38.2603073  19.8971856  35.1583171
  38.4807968  21.3432479  36.1869311  36.4197111  20.9380007  35.7314324
  35.9099078  20.4610085  34.8943663  36.2399960  20.4620147  36.6954041
  36.1118412  21.9831038  35.7643104  40.6284714  22.6257491  34.9384093
  40.1627159  23.5191345  35.6437755  41.7707872  22.0725441  35.3006816
  42.0623779  21.2544012  34.7852063  42.6668787  22.4819970  36.4096141
  42.2280359  22.1805382  37.3607445  43.9802694  21.6716146  36.2398791
  44.6807718  22.0236015  36.9971824  43.7912178  20.6429982  36.5469909
  44.6111393  21.6454148  34.8029518  44.1822529  20.8125925  34.2456675
  44.2726517  22.5414610  34.2827225  46.0857868  21.5344620  34.7235036
  46.7592478  21.8235970  33.6942887  46.6958475  21.1308980  35.7440758
  42.9689455  23.9871979  36.4752483  42.9405308  24.7341013  35.4409122
  43.2710457  24.4059324  37.6974392  43.4270811  23.7467718  38.4466124
  43.1875181  25.8478975  38.0044460  43.2000589  26.4600277  37.1026468
  41.9584322  26.4374256  38.7635231  42.1583605  26.2710977  39.8220420
  41.9087315  27.9662895  38.5170126  41.1018705  28.4909296  39.0287066
  42.8423738  28.4842849  38.7363124  41.5046883  27.9667211  37.5046635
  40.6163073  25.6166053  38.5599589  40.0288248  25.9610033  37.7088642
  40.8787489  24.5586753  38.5633111  39.6742415  25.8702207  39.7434521
  39.3683434  26.9094038  39.6225119  38.7404752  25.3114939  39.6801329
  40.1637459  25.6418037  40.6901884  44.4572592  26.1149907  38.8551831
  44.7321653  25.3960609  39.8453093  45.2688026  27.0623040  38.4466553
  45.0338268  27.6795697  37.6825428  46.3480902  27.5816894  39.2439270
  46.5209436  26.8460536  40.0294590  47.7207375  27.8392029  38.4209013
  47.4301147  28.0588198  37.3935723  48.6812925  28.8346577  39.0439272
  48.2932425  29.8327827  38.8407898  48.8852119  28.5775471  40.0833559
  49.5568657  28.7413716  38.4014559  48.5233545  26.4495444  38.2687640
  48.6380720  25.9616208  39.2366862  47.8545284  25.8297324  37.6715946
  49.3408585  26.5482736  37.5545979  46.0553932  28.8950014  39.9664164
  45.5121946  29.7952604  39.3951130  46.3502741  28.8872671  41.3125944
  46.9016647  28.0842972  41.5796232  46.2159777  29.9063420  42.4480724
  45.7699060  30.8121800  42.0374918  45.1072073  29.4864821  43.4926414
  45.4835224  28.7047768  44.1525078  44.9054480  30.3352213  44.1461182
  43.8278818  28.9351964  42.8784418  43.2761478  29.6847248  42.3110771
  44.0974903  28.1405115  42.1828270  42.9446650  28.3582568  44.0547800
  43.3748627  27.5057817  44.5804358  42.7031374  29.1323543  44.7831631
  41.6226006  28.0466723  43.4392452  41.1694384  29.0049052  43.1852102
  41.6334629  27.5015759  42.4953938  40.6575155  27.3108220  44.3880463
  39.7368789  27.1472192  44.0062571  41.0237169  26.3731146  44.4699240
  40.5720091  27.6362658  45.3403425  47.5421000  30.3766751  42.9962921
  48.3627844  29.4691396  43.2727289  47.9217386  31.6750836  42.9438782
  47.2899628  32.3356223  42.5141764  49.3058538  32.0100904  42.9448509
  49.7689581  31.3245058  43.6545086  49.9467468  31.8098950  41.5401983
  49.8451805  30.7778955  41.2044048  49.3998766  32.5992441  40.3465843
  49.6266556  33.6640549  40.4000568  49.6724463  32.2802567  39.3405747
  48.3118582  32.5443673  40.3826952  51.4820290  31.9205976  41.5204811
  51.7122412  31.5556264  40.5195332  51.8618536  32.9415369  41.4815474
  51.9433022  31.2403870  42.2364664  49.4759941  33.4144330  43.4761620
  48.5569191  34.2325807  43.4842443  50.6238699  33.7113428  44.0524244
  51.3699198  33.0343866  43.9800072  51.0442829  34.9549484  44.5980787
  50.3725386  35.6819558  44.1416454  50.8655310  34.9178648  46.0890913
  51.3541746  34.0191102  46.4653540  51.3213348  35.8430290  46.4418125
  49.4314384  34.8244858  46.5755320  48.9678526  35.7507491  46.2360811
  49.0057850  33.9027452  46.1788988  49.2439032  34.8308897  48.0337763
  49.6905708  35.7275796  48.4633541  48.1617928  34.8534679  48.1627226
  49.8423052  33.6171603  48.7438202  49.4133854  32.7264428  48.2847452
  50.9211540  33.6452293  48.5908365  49.6696377  33.6376452  50.1975489
  48.6745834  33.6710739  50.3673983  49.9751329  32.7920651  50.6577253
  50.1804638  34.3984103  50.6222820  52.4402714  35.4396725  44.2794895
  53.3603811  34.7034264  44.1262627  52.5281477  36.7545342  44.0590811
  51.6291714  37.2138453  44.0279245  53.7195015  37.5715899  43.5800838
  54.6137333  36.9484663  43.5931349  53.5173368  37.7348685  42.0919704
  52.6635885  38.4032416  41.9801807  54.3870401  38.2452035  41.6781139
  53.3613014  36.7942572  41.5637636  53.9231825  38.8839746  44.2524624
  52.9713440  39.3169355  44.8529911  54.9751663  39.5814943  44.0266895
  55.7166767  39.0584326  43.5832119  55.3780603  40.7727003  44.7115421
  54.4803286  41.3349915  44.9684763  56.1712599  40.4867458  45.9891987
  55.6073904  39.8138571  46.6352463  57.5603867  39.7542119  45.7308483
  57.4173260  38.9185381  45.0458050  58.2452822  40.4646015  45.2678537
  57.9895592  39.4263649  46.6776466  56.3717270  41.8585634  46.7068624
  56.8567038  42.6136732  46.0882282  55.3649187  42.2427130  46.8707800
  57.0692873  41.8262482  48.1151104  56.6603565  42.5765181  48.7918472
  56.9123936  40.8687449  48.6117744  58.1564236  41.8473053  48.0389786
  56.1711550  41.6314983  43.7831306  57.0863628  41.1714315  43.0572891
  55.8421659  42.8867912  43.7242413  55.0935984  43.2317734  44.3079662
  56.5529060  43.8272762  42.8397799  56.3191319  43.5506105  41.8117189
  56.0946035  44.8067188  42.9767370  58.1230497  43.8533640  43.0608702
  58.6946249  43.8247728  44.1984987  58.8674307  44.1897631  41.9980145
  58.3962154  44.4583988  41.1460209  60.3551340  44.2254686  41.8907738
  60.8204794  44.3874121  42.8630543  60.9500217  42.9072285  41.3065004
  60.4240513  42.7466774  40.3653955  61.9809723  43.1629419  41.0618496
  60.8877420  41.6729832  42.1607208  59.8435497  41.4595890  42.3892641
  61.3660765  40.8386660  41.6476822  61.6234732  41.7921686  43.4891796
  62.6020765  42.1948195  43.2278347  61.1069107  42.4966812  44.1410446
  61.7897558  40.4600430  44.1760397  62.1654081  39.6746826  43.6639881
  61.3830376  40.1760435  45.4068279  60.8841658  41.0895300  46.2020683
  60.9575176  42.0168781  45.8086824  60.5441475  40.8950806  47.1330261
  61.4246750  39.0435505  45.9188032  61.4287996  38.2672024  45.2727604
  61.1584377  38.8060641  46.8636942  60.7319641  45.4582119  41.0195255
  60.1477575  46.4774370  41.0806370  61.7677069  45.3724098  40.1979637
  62.0397520  44.4380903  39.9274969  62.3853254  46.5511656  39.5645523
  62.3330927  47.2989225  40.3559017  63.7619829  46.1622477  38.9395094
  63.6480379  45.3616238  38.2086754  64.0760756  47.1313667  38.5518765
  64.8597717  45.6946659  40.0327539  65.8780193  46.0075331  39.8017049
  64.6850586  46.0453176  41.0499191  64.9135685  44.1757488  40.3292322
  64.1508913  43.2991505  39.8617053  65.9043789  43.7255764  41.0974646
  65.8583879  42.7884531  41.4713526  66.5255976  44.4459248  41.4369965
  61.5062666  47.2134686  38.4187150  60.8041859  46.5655661  37.6170278
  61.5229464  48.5592699  38.4517479  62.0108366  48.9483690  39.2458916
  60.8350945  49.4999361  37.6043868  59.7603226  49.3282747  37.5452399
  61.1125660  50.8326674  38.0697083  62.1579218  50.8946419  38.3721828
  60.9540701  51.5438223  37.2589993  60.1038504  51.1580992  39.1940188
  59.2153835  51.5325642  38.6855888  59.7747421  50.2737999  39.7397232
  60.5874920  52.1959066  40.2126312  59.7125053  52.4128819  40.8253527
  61.3117886  51.7509794  40.8949327  61.1959076  53.3841991  39.5478511
  60.5900240  54.0662766  39.1145229  62.5016022  53.6305141  39.3502712
  63.4748077  52.9199123  39.7174287  63.2854605  52.1880102  40.3871822
  64.4452810  53.1379223  39.5420671  62.9530048  54.6940279  38.7364531
  62.3593187  55.4720020  38.4866476  63.9356804  54.9268866  38.7215662
  61.3527060  49.3842506  36.1731029  62.5276184  49.0404940  35.9779167
  60.5971146  49.7941256  35.1315355  59.5927382  49.8090506  35.2369595
  61.2150097  49.7486258  33.8490558  62.2771215  49.9910402  33.8844872
  61.1435127  48.3615446  33.1667566  61.6037941  48.4097815  32.1798873
  61.7461395  47.6333237  33.7095690  59.7659636  47.6611710  33.0367923
  58.8627052  48.1925201  32.0913911  59.1698647  49.1048431  31.6017747
  57.6098633  47.6374340  31.9383669  56.8086195  48.0505419  31.3435960
  57.1957827  46.5326738  32.7555346  56.1834908  46.1611176  32.6954484
  58.0672169  45.9184122  33.6699057  57.6918602  45.0833988  34.2428446
  59.3545151  46.5262985  33.8499665  60.0284767  45.9970617  34.5072985
  60.4985714  50.6920719  32.9461598  59.3142843  50.9836149  33.0580449
  61.1916447  51.2526655  31.9372940  62.1473742  50.9309244  31.8810868
  60.5622292  52.0144415  30.7913136  59.5469999  52.2640848  31.0996723
  61.2751245  53.3497810  30.4306078  60.6435299  53.7895966  29.6587563
  61.2888145  54.0202093  31.2899303  62.6826143  53.2196140  29.9535203
  63.2772398  52.7860594  30.7576036  62.6921177  52.6549816  29.0212131
  63.3019924  54.5861864  29.6651697  62.9115772  54.9667645  28.7213302
  62.9793692  55.2831888  30.4386020  64.7921038  54.6202755  29.4210839
  65.1986790  54.2387581  30.3576946  65.1096582  53.7460327  28.8527846
  65.3232193  55.9371471  28.9430809  64.9971199  56.1015463  28.0014205
  65.2123880  56.7025709  29.5926523  66.3309431  55.9211588  28.8771653
  60.4866219  51.0868168  29.5736384  61.3330364  50.2186537  29.4102335
  59.4784307  51.2921906  28.7522817  58.8923836  52.1123552  28.8153768
  59.1143322  50.4389668  27.5900221  59.4529390  49.4395494  27.8631854
  57.6118231  50.5250931  27.2472095  57.3985958  51.5763807  27.0537210
  57.3007345  49.6947432  25.9483433  56.2359619  49.6035624  25.7337713
  57.8708839  50.0002337  25.0710154  57.5195217  48.6296177  26.0240412
  56.7808008  50.0754786  28.4362841  56.8566656  48.9930487  28.5397005
  57.1033764  50.4834175  29.3942142  55.7802200  50.4988241  28.3484411
  59.8381090  50.9446239  26.3902974  59.9994373  52.1594572  26.2170553
  60.3680420  49.9883127  25.6178641  60.3812504  49.0205336  25.9065223
  60.8944607  50.2242279  24.3169069  61.0196018  51.2841988  24.0957522
  62.2653913  49.6062088  24.3303156  62.1021128  48.5285330  24.3228817
  62.6521158  49.8154593  23.3329391  63.2152128  50.1644611  25.4461741
  62.7328205  50.0885677  26.4206696  64.2937088  49.1404486  25.5886364
  64.8285151  48.9011765  24.6694875  65.0758982  49.4841099  26.2655234
  63.8670540  48.1790543  25.8746243  63.7893772  51.5659094  25.2163601
  64.3583250  51.5714788  24.2866468  62.9289722  52.2340822  25.1797104
  64.4496202  51.8158102  26.0468626  60.0943995  49.5869493  23.1793547
  59.9076557  50.1731300  22.1039152  59.4555092  48.4031916  23.2320857
  59.6369696  47.8250170  24.0400982  58.5996485  47.7224588  22.2693396
  57.9847383  48.3970118  21.6735530  59.5340586  46.9494104  21.2370706
  60.0094652  47.7173233  20.6268287  60.3313923  46.4950037  21.8251801
  58.8600826  45.9889650  20.2592731  58.4810209  45.0970554  20.7581806
  57.9962492  46.4415026  19.7723377  59.8921204  45.6111908  19.1873515
  60.5096912  46.5458298  18.5852766  59.9861765  44.3669271  18.8707936
  57.5999212  46.8006563  23.0033302  57.9271460  46.0114288  23.8740373
  56.4023495  46.7461300  22.5272942  56.3129854  47.2886181  21.6800523
  55.4101753  45.6907463  22.9004669  55.7269287  44.9033785  23.5844493
  54.1480350  46.3976336  23.4630990  53.7024832  46.9187498  22.6157355
  53.4755182  45.6378317  23.8612366  54.2793036  47.4720812  24.6004725
  54.9014235  48.3125162  24.2926788  52.9175568  47.9501629  24.9869728
  52.4812031  48.5525036  24.1901779  52.3157406  47.0698118  25.2125883
  52.7823019  48.5297394  25.9001517  54.9043226  46.7705250  25.8382511
  54.2749262  45.9803152  26.2475514  55.9533882  46.5719700  25.6188321
  54.8838139  47.6550055  26.4749479  55.0589514  44.9056530  21.6236377
  54.9922085  45.4193640  20.4649496  54.8104143  43.5831451  21.8270493
  55.0658560  43.2594776  22.7490544  54.5156002  42.4393082  20.8926535
  53.7486839  42.8633833  20.2444959  55.7648563  42.0647383  20.0506783
  55.4654741  41.3964701  19.2432833  56.1717892  42.9654121  19.5910120
  56.8817949  41.5230131  20.9206533  56.8441963  42.0456457  21.8764496
  56.6804981  40.4544163  20.9959888  58.2239962  41.7019033  20.3120136
  58.2292032  41.1612558  19.3655586  58.5219908  42.7052450  20.0077009
  59.1927624  41.3060999  21.2969422  58.8677835  40.7372904  22.0656681
  60.4467249  41.5887260  21.2949586  61.1522341  41.2186813  22.3297262
  60.6428003  40.6108046  22.9550791  62.1333265  41.0283422  22.1836734
  61.0219002  42.2120047  20.3536153  60.4984617  42.5914574  19.5776474
  61.9877481  42.4876595  20.4596901  53.8820124  41.2622881  21.5972233
  54.3919849  40.7564831  22.5641251  52.7577543  40.7233858  21.0729241
  52.3974276  41.2121296  20.2658343  52.3144150  39.3475556  21.4901114
  52.1614742  39.2316318  22.5630856  50.9332418  39.0708876  20.9064579
  50.8314133  39.3729424  19.8641074  50.4527044  37.7032447  21.1388087
  49.3916082  37.6034951  20.9102726  51.0403109  37.0387101  20.5053878
  50.4514933  37.4220204  22.1919036  50.2240944  40.0055361  21.6402388
  50.7468128  40.8095789  21.6836524  53.4305906  38.3898497  21.0659719
  53.8737869  38.4471989  19.9481368  53.8583612  37.4404645  21.9586658
  53.4184504  37.4267435  22.8677273  54.8963690  36.4128780  21.6649580
  55.5644846  36.8204308  20.9062624  55.7175732  36.2102461  22.9827118
  56.6974783  35.7959962  22.7454758  56.0400248  37.1921563  23.3290863
  55.0610161  35.4619527  24.1488290  54.2496824  36.1183619  24.4634318
  54.8009300  34.4494414  23.8401556  55.9134245  35.2826071  25.3965402
  57.0903206  35.6277037  25.4452157  55.4206133  34.7842526  26.5115833
  55.9944630  34.4119191  27.2546625  54.4524431  34.5337129  26.6529274
  54.1981649  35.1006842  21.1625218  53.0087090  35.0897264  20.9340882
  55.0312328  34.1438413  20.7287693  56.0106421  34.3773794  20.6492662
  54.5171356  32.8323603  20.1390648  53.7021971  33.0765033  19.4576192
  55.5914068  31.9893456  19.3924427  56.1104488  31.4052796  20.1524210
  55.1301146  31.2175083  18.7763464  56.4574862  32.8082228  18.6020577
  56.3023663  32.5490427  17.6908147  53.8637686  31.9344711  21.1481285
  54.5321941  31.4700413  22.0902300  52.6916695  31.3544440  20.8243275
  52.2612858  30.8630919  21.5946841  51.6271734  31.6911960  19.8860192
  51.8634748  32.5980544  19.3293536  51.3689375  30.4822755  18.9792836
  52.1329403  30.4945421  18.2019436  51.3771343  29.5158482  19.4833207
  50.0645208  30.5860925  18.1905305  49.6121883  29.6018100  17.5668609
  49.5468426  31.6823959  18.0492496  50.4623747  32.2334933  20.8100796
  49.6340704  31.4112568  21.2550735  50.6137180  33.4853220  21.2485361
  51.4289713  33.9632082  20.8920383  49.6852732  34.1447496  22.1370149
  49.3722773  35.1069093  21.7315745  48.7954283  33.5646987  22.3815966
  50.4210424  34.4710255  23.4490061  51.5292883  33.9757681  23.7483788
  49.8471689  35.3664494  24.2692327  48.8797951  35.5596399  24.0525198
  50.4468870  36.1067963  25.4473424  49.6002626  36.3196898  26.1000347
  51.3557053  35.2237916  26.3998246  52.0884705  34.7498012  25.7467651
  52.1557045  35.9683585  27.4464273  52.5980186  35.2950978  28.1807137
  53.0188847  36.4638305  27.0019817  51.5084314  36.6261530  28.0264664
  50.4405975  34.1177988  26.9077110  50.2333546  33.4997678  26.0341048
  51.0412264  33.4808493  27.5570512  49.1359711  34.4084167  27.6522350
  48.7944031  33.3819580  27.7856994  49.3538618  34.8473930  28.6258507
  48.3939791  34.9230313  27.0417213  51.2218523  37.4099135  25.0842285
  52.0174885  37.4535036  24.1481876  51.0268021  38.5206032  25.7540727
  50.3875065  38.5316610  26.5359163  51.7425823  39.8094344  25.4921222
  51.7577648  40.0164127  24.4220591  51.0190248  40.9248209  26.1959600
  50.9142733  40.6777143  27.2523999  51.5290642  41.8870306  26.1499882
  49.6839094  41.1187410  25.5477786  49.8410845  41.8789434  24.7826052
  49.3989420  40.2322626  24.9811673  48.4930611  41.6259193  26.4262605
  48.6073780  42.6609612  27.0546412  47.3642635  40.9414148  26.3686681
  46.5764904  41.1768389  26.9552636  47.2520161  40.0380945  25.9310460
  53.1524992  39.8083210  26.0076976  53.4589672  39.2293096  27.0283294
  54.1517925  40.3819275  25.2978206  53.9775181  40.7888985  24.3900156
  55.5733871  40.3820086  25.6439447  55.6983662  40.2901363  26.7228532
  56.2816191  39.1908431  24.9464297  55.6737041  38.3173800  25.1822376
  56.3082457  39.2774868  23.8602066  57.7337360  38.9727426  25.4618359
  58.1163979  39.7981286  26.0621762  57.8581572  38.0576897  26.0408831
  58.5899973  38.8286805  24.2347717  59.0976524  39.7908306  23.6042118
  58.8694191  37.6595283  23.7313151  59.4176388  37.7142859  22.8848171
  58.5485983  36.8014550  24.1566157  56.1763287  41.6961718  25.3938007
  55.7614088  42.4579239  24.4832182  57.1268892  42.1030951  26.2816668
  57.3668766  41.4404821  27.0051646  57.7688503  43.3951473  26.1853337
  57.4049759  43.8281918  25.2535772  57.2463894  44.4410896  27.2367525
  57.5330257  45.4650116  26.9969249  56.1630869  44.3263674  27.1992397
  57.6599932  44.2298889  28.2228684  59.2769814  43.3262873  26.1274004
  59.9635506  42.5800085  26.8608642  59.8055935  44.2626619  25.3066850
  59.2408228  44.8185730  24.6805120  61.2237406  44.6481991  25.4404378
  61.8152952  43.9920998  26.0789490  61.9577312  44.5136070  24.0925121
  61.9742155  43.4691286  23.7812352  61.4434719  45.1832056  23.4031129
  63.5230446  44.7710228  24.2397094  63.7116432  45.5517578  24.9765825
  63.8774157  43.7960863  24.5743966  64.1787958  45.0900459  22.9814863
  64.0798473  44.2214298  22.3304701  63.8101482  45.9874487  22.4846268
  65.7285309  45.3314400  23.1148744  65.8891821  46.1347723  23.8338709
  66.2599373  44.4549894  23.4857297  66.3610554  45.7607174  21.7942762
  66.1682510  46.7122173  21.5157557  67.3696709  45.7079363  21.7970133
  66.0637569  45.1078415  21.0833097  61.2008286  45.9941530  26.1959982
  60.5616808  46.9849920  25.8430743  61.9993591  45.9976101  27.2917104
  62.4460936  45.1002073  27.4149919  62.0774317  47.0652533  28.3156013
  61.7913294  47.9787016  27.7942061  61.1044312  46.7987061  29.5029020
  60.9435225  47.7339840  30.0390553  59.7357559  46.3195992  29.0138698
  59.0009975  46.4827394  29.8022985  59.4006681  46.8935490  28.1499267
  59.7458172  45.2535486  28.7868428  61.5492821  45.8550692  30.5398178
  60.6716299  45.5366373  31.1023402  61.9949484  44.9624109  30.1009083
  62.2708654  46.3550138  31.1859417  63.4922647  47.3785496  28.8140416
  64.3446445  46.5109491  28.8917685  63.6393356  48.6185074  29.2266965
  62.8944206  49.2896986  29.1054487  64.8521566  49.1143703  29.9208570
  65.6016445  48.3230257  29.9090624  65.4838896  50.3496361  29.1675448
  65.6075954  50.0670147  28.1221151  64.7379351  51.1441612  29.1479063
  66.7913961  50.9469891  29.7184181  66.6269445  51.3823748  30.7040644
  67.4417973  50.0842810  29.8626757  67.4794436  51.8936920  28.7183666
  66.8634129  52.6280451  27.9528213  68.7911606  51.7695236  28.5883951
  69.2538738  52.5806189  28.2035255  69.2777824  51.1153650  29.1845322
  64.6691322  49.3945026  31.3935781  63.9182854  50.2727795  31.7827082
  65.3875446  48.6267138  32.2019386  66.0305548  47.9881620  31.7559600
  65.3773832  48.6966324  33.6878204  64.3796492  48.4429550  34.0459847
  66.2584543  47.6381111  34.2843390  67.2685480  47.7963877  33.9064932
  66.3813066  47.7601910  35.8331323  66.8277121  46.8784571  36.2928843
  67.0135832  48.5906601  36.1472249  65.4305601  47.9423237  36.3341522
  65.7315636  46.2309456  33.9106750  65.7909870  46.1648846  32.8243017
  66.4871979  45.5357313  34.2764640  64.2842484  45.8249378  34.3407416
  64.0976000  45.7759619  35.4135227  63.5201979  46.4315224  33.8545489
  64.0719271  44.8553991  33.8901639  65.7436514  50.1225090  34.1945529
  66.7003393  50.7333565  33.7074208  65.0180531  50.6849432  35.1637411
  64.2133665  50.1205921  35.3963089  64.9839926  52.1506929  35.4382777
  65.4409647  52.6722860  34.5973110  63.5022736  52.5511646  35.4607987
  62.9867220  52.2021294  34.5661020  63.0497694  52.1233654  36.3554096
  63.4030485  54.0959930  35.3957081  64.0488005  54.5272493  36.1606431
  63.8647413  54.6637678  34.0454435  63.3777475  54.0881348  33.2583022
  63.6252832  55.7270575  34.0587473  64.9411964  54.5646620  33.9057279
  61.9219160  54.5087576  35.4439759  61.7549753  55.5760145  35.5895805
  61.4539480  54.1937685  34.5112991  61.4981890  54.0172005  36.3197231
  65.6528091  52.4875498  36.7939448  65.4420471  51.7180014  37.7015758
  66.5266275  53.5368681  36.8074203  67.1378565  54.2582369  35.6844640
  66.5339613  55.1146650  35.3845429  67.1982813  53.5665989  34.8441768
  68.6173248  54.6703482  36.1191440  68.9482784  55.5447197  35.5587530
  69.2302322  53.8142872  35.8369994  68.5123491  54.7884560  37.6031709
  68.0999136  55.7626534  37.8657174  69.5053577  54.5496798  37.9839993
  67.4394369  53.7343216  37.9376507  67.9401398  52.8226137  38.2635117
  66.6541481  53.9725399  39.2280388  66.9798803  53.4387445  40.3586769
  65.7111883  54.7076750  39.1970539  66.0060072  63.5526419  56.8917084
  65.4554367  63.5948944  56.0460186  66.6837502  62.8324318  56.6865969
  66.5128613  64.3760777  57.1835136  65.2196312  63.1256247  58.0436897
  65.0043058  62.0583725  58.0956697  65.9111261  63.3587694  59.3978786
  66.2816763  64.3823528  59.4532871  65.1013565  63.2018471  60.1104450
  67.1593714  62.5626373  59.7189569  67.8966475  62.8011274  58.9523745
  67.6458597  62.9270458  60.6237411  66.9706726  61.0413074  59.9185133
  67.8815746  60.4342461  60.5005598  65.9569407  60.4517269  59.6049929
  63.8766003  63.8295031  58.1252909  62.8962135  63.0949402  58.4474897
  63.8198709  65.1297379  57.9416132  64.6580887  65.6304550  57.6832199
  62.5808334  65.8566093  58.0565691  62.2672224  65.6908846  59.0872383
  62.8999949  67.3665333  57.8782606  63.6819983  67.7291059  58.5454321
  63.1351137  67.8516579  56.4498806  62.6798153  67.1634626  55.7377052
  62.7490234  68.8620901  56.3154793  64.2051268  67.8857803  56.2449121
  61.8315697  68.0921650  58.2709599  61.7098236  67.9772758  59.2162514
  61.3161135  65.2823687  57.2217131  60.1889277  65.1980114  57.7345467
  61.6049242  64.7544241  55.9955311  62.5438976  64.6585464  55.6360340
  60.4727459  64.2035866  55.2142906  59.6345377  64.8934984  55.3119040
  60.8572006  63.9073515  53.7800598  61.8105459  63.3825016  53.7186861
  60.0661945  63.3725214  53.2543564  61.1237431  65.1533270  52.9680395
  61.6931868  65.8842134  53.5421801  61.8938971  65.0088024  51.6992617
  61.4508915  64.2953157  51.0044384  61.9583321  66.0039854  51.2593079
  62.9156017  64.6721506  51.8750095  59.8147202  65.8046961  52.5876427
  59.3620539  65.1046038  51.8854523  59.1054010  65.9645128  53.3996964
  59.9254417  66.7017412  51.9784212  59.8804951  62.8640032  55.8207655
  58.6593485  62.7292967  56.0927629  60.6757689  61.8494177  56.0561752
  61.6510916  61.8563032  55.7938862  60.1241398  60.6846762  56.8617010
  59.3112135  60.1542187  56.3658524  61.2023735  59.6482325  57.0480776
  61.7294312  59.4454575  56.1157703  62.0531178  60.0127935  57.6237726
  60.6002092  58.3163500  57.4637127  61.4141512  57.6028490  57.5922441
  60.0275278  58.3999062  58.3873749  59.3403053  57.6144314  56.3639307
  60.2197313  57.6136780  54.7900915  61.2338352  57.2461224  54.9469471
  59.8462868  56.9829178  53.9833784  60.3052473  58.6529303  54.4727039
  59.5201778  61.0263395  58.2255888  58.5540199  60.3988171  58.6108971
  60.1632357  61.9150877  58.9380693  61.0549355  62.2546673  58.6069298
  59.6845341  62.4266338  60.1797676  59.7188139  61.6232061  60.9155893
  60.5052328  63.5105944  60.7894182  61.5116692  63.0922174  60.8016348
  60.5917454  64.3468809  60.0956964  60.0367022  63.9492559  62.1824884
  60.1903009  65.1274252  62.5092697  59.6948147  63.0548716  62.9661512
  58.2137537  62.7904892  59.9895668  57.3573971  62.2714806  60.7051802
  57.8979778  63.6080647  58.9379358  58.6784649  63.8372660  58.3392715
  56.6159964  64.0584230  58.5661411  56.1820889  64.4453573  59.4881582
  56.6782379  65.2499628  57.6142168  57.4699354  65.0629187  56.8887234
  55.7363415  65.4302931  57.0961332  57.0133209  66.6209698  58.3831549
  56.0930634  66.8952036  58.8989353  57.8016949  66.5113544  59.1278362
  57.4982548  67.7054405  57.4561501  57.9907036  68.4039879  58.1326342
  58.1622410  67.2650480  56.7123270  56.3658476  68.3163309  56.7199516
  55.4697895  68.1095028  57.1375656  56.4718914  68.9984560  55.5670643
  57.5715446  69.2640352  54.9005651  58.4290075  69.0388060  55.3844309
  57.5156879  69.8068953  54.0506935  55.4024267  69.3776178  55.0452471
  54.6114779  69.4059944  55.6726980  55.3644276  69.8891783  54.1752100
  55.6890106  63.0408955  57.9455853  54.5127153  63.0116224  58.2864714
  56.1811638  62.0837069  57.1162748  57.1642017  62.1292162  56.8889761
  55.3708696  60.9561110  56.5862560  54.4716883  61.3077354  56.0803556
  56.1621380  60.0694513  55.5910492  57.1680498  59.7873735  55.9019947
  55.5159235  58.7209702  55.3189993  55.4702759  58.1030416  56.2157631
  54.5228148  58.8187027  54.8804951  56.0486889  58.1927013  54.5283031
  56.4321756  60.8723783  54.3272829  55.5141449  61.1027479  53.7866783
  56.8363333  61.8578291  54.5589066  57.4956703  60.1612616  53.4765148
  58.4213066  60.2045155  54.0504742  57.1565819  59.2003536  53.0895042
  57.6297331  60.8222771  52.6202536  54.8380470  60.1438713  57.7769804
  53.6277676  59.9700832  57.8340101  55.7172441  59.6196508  58.7131548
  56.7079210  59.8162746  58.7138462  55.2299929  58.7924051  59.9073362
  54.6973372  57.8485966  59.7906923  56.5353584  58.5510492  60.7742357
  57.1303511  59.4642639  60.7856274  56.2042665  58.3507490  61.7932367
  57.1937990  57.2685909  60.2011347  56.6683340  56.3508034  60.4650450
  57.1766329  57.3097563  59.1120481  58.6286592  57.1283197  60.7029438
  59.0794277  58.1184053  60.6348610  58.6250210  56.9092655  61.7706966
  59.4824219  56.0927868  59.9877167  58.9031553  55.1702452  60.0259113
  59.4854069  56.3151217  58.9206362  60.8561373  55.9043360  60.4661894
  61.4211416  56.7211723  60.2827454  60.8712196  55.5453634  61.4101219
  61.3661146  55.2090549  59.9402523  54.2829037  59.6345758  60.7189608
  53.2625961  59.1073513  61.1142397  54.4539356  60.9369421  60.8713579
  55.2461004  61.3237047  60.3784180  53.5356379  61.9142103  61.5365410
  53.1113577  61.5279388  62.4633026  54.1748619  63.2696009  61.6997051
  54.7007465  63.5175276  60.7777119  53.3872652  63.9951038  61.9032860
  55.1508665  63.4807205  62.8808594  54.6266937  63.5606194  63.8332033
  55.8349609  62.6336098  62.9310608  56.2540102  64.5458937  62.6328278
  57.0459986  64.3379259  61.9133854  55.8131742  65.5173397  62.4091101
  56.9925022  64.8565722  63.9412832  56.2571955  64.9805737  64.7362995
  57.5831223  63.9721060  64.1800070  57.8437471  66.0380697  63.7133646
  58.6634541  65.7135296  63.2205629  57.4194193  66.7608118  63.1497192
  58.1355000  66.4129400  64.6046877  52.1857595  61.9317532  60.7955647
  51.1762762  61.7889595  61.5001583  52.2156096  62.0471907  59.4396877
  53.0960131  61.9097424  58.9641953  50.9773016  62.0900154  58.6852455
  50.2290440  62.8001356  59.0372992  51.4053392  62.5702190  57.3035622
  52.4504328  62.3431301  57.0930624  50.7634735  62.0290136  56.6084337
  51.2769127  64.0681124  57.1949673  51.9083357  64.5932627  57.9116440
  51.5868807  64.4309378  56.2149763  49.7971725  64.5603371  57.3710060
  48.8153744  63.8308334  57.4731302  49.5490456  65.8179188  57.5670576
  48.5910845  66.1368132  57.5938559  50.2362823  66.5534210  57.4842787
  50.3299570  60.7487345  58.6372900  49.0830946  60.6768608  58.6652088
  51.0806656  59.6552753  58.5954285  52.0745993  59.7495937  58.4427881
  50.5128908  58.3148146  58.6748123  49.8536730  58.1780005  57.8176022
  51.6781187  57.3287153  58.3673048  52.1224880  57.6079130  57.4119568
  52.4460888  57.4542522  59.1305590  51.3796377  55.8226538  58.2273960
  50.7736588  55.5006742  59.0742874  50.7026339  55.4305792  56.9717407
  51.2643576  55.7328463  56.0878849  50.4400349  54.3795347  56.8515301
  49.7178555  55.8976698  56.9600916  52.7396631  55.0817204  58.2522583
  53.4834051  55.6511593  57.6948643  52.9769087  55.1101065  59.3157434
  52.7891302  54.0264225  57.9839087  49.6753693  57.9735756  59.9759769
  48.7614489  57.1914768  60.0469780  50.0830984  58.5513496  61.1051130
  51.0081959  58.9563370  61.1219692  49.3707752  58.6326408  62.3776388
  49.0770626  57.6360464  62.7072382  50.3167152  59.1767883  63.4379768
  51.3380241  58.9129162  63.1633854  50.3008556  60.2602673  63.5559416
  50.0446320  58.4911251  64.8525381  49.0442705  58.7583351  65.1930952
  50.1359129  57.4064970  64.7945786  51.0166264  59.1015768  65.8487558
  51.9716120  58.6650610  65.5562544  50.9351540  60.1883078  65.8270979
  50.6169939  58.6801386  67.2687817  49.9639082  57.9198170  67.3932695
  51.0477304  59.2249298  68.3872557  50.7684708  58.6208057  69.5036650
  50.2456045  57.7572775  69.4716167  51.1677599  58.9804268  70.3588486
  51.7253351  60.3721523  68.4029865  51.8451929  60.8880854  67.5430202
  51.6930342  60.8537102  69.2902040  48.0223513  59.3729258  62.3107433
  47.1130610  59.1286850  63.1474638  47.8313303  60.3288078  61.4535141
  48.7111282  60.6306934  61.0599089  46.6159725  61.1211634  61.1647081
  46.2168121  61.4525557  62.1233273  46.8307924  62.3624229  60.2856398
  47.0166636  62.1060276  59.2426538  45.9394836  62.9765606  60.4140615
  47.9066563  63.3424616  60.7344198  48.8943577  62.8872013  60.6618261
  47.8701210  64.1299534  59.9816751  47.8407288  63.9098406  62.1320820
  47.9929352  65.1364946  62.3224020  47.5871897  63.1947565  63.1184435
  45.5291700  60.2242899  60.4754400  44.3511772  60.3269291  60.7178640
  45.9918785  59.2043877  59.7104979  46.9980383  59.1483259  59.6426678
  45.1277399  58.0578089  59.2889500  44.2583656  58.5106564  58.8122702
  45.9283686  57.1415377  58.3355236  46.7893410  56.6802454  58.8192892
  45.3407955  56.2722778  58.0401564  46.2429619  57.7276421  57.0328999
  46.0713243  58.9858055  56.6265583  45.6023073  59.7996807  57.1595001
  46.4735842  59.0339470  55.2735615  46.3061523  59.8383236  54.6861553
  46.9787025  57.8584146  54.7829008  47.5007296  57.4765491  53.5177803
  47.4104261  58.0321264  52.5960493  48.1587076  56.2321234  53.4466314
  48.6680984  55.9268761  52.5445509  48.1027222  55.3934240  54.5624018
  48.4815264  54.3907070  54.4302416  47.4569130  55.7316589  55.7090235
  47.4906969  55.0408220  56.5384817  46.8924761  57.0133877  55.9028816
  44.5457745  57.2749376  60.4131413  43.3605051  57.2510290  60.4946709
  45.4598331  56.7410326  61.2569189  46.4364338  56.9262934  61.0779333
  45.1995420  55.8223200  62.3821211  44.4859886  56.3772249  62.9912376
  44.5238495  54.5147371  61.9498348  43.8099194  54.6688890  61.1407375
  45.2751589  53.9318657  61.4170218  43.9264250  53.7442541  63.1581879
  43.5828447  54.3790674  64.1991472  43.8671112  52.4996138  62.9820013
  46.4677763  55.6260920  63.2539034  47.5476933  55.5299616  62.6630926
  46.3481426  55.4747725  64.5693922  45.4323483  55.3813839  64.9849558
  47.4625492  55.1405382  65.4219437  48.2499743  55.8873892  65.3205776
  47.0063591  55.1718187  66.9287920  46.6223240  56.1545086  67.2025442
  46.1569166  54.4998312  67.0511866  47.9669857  54.6948910  68.0289936
  47.4883127  54.5312548  68.9944983  48.5392141  53.8049889  67.7668285
  49.0397072  55.7112169  68.3546400  49.1405869  56.2559271  69.5078564
  49.8738527  55.8683205  67.4339342  48.2204151  53.8442183  65.0347185
  47.5335217  52.8717613  64.7070074  49.5447063  53.8681698  65.1742268
  49.9454594  54.6572113  65.6609583  50.4933453  52.9713154  64.4971752
  50.0365496  51.9828415  64.5456982  50.6819582  53.2447004  63.0118132
  51.2561226  52.4766207  62.4936581  49.6922064  53.2854080  62.5570154
  51.5625477  54.4785309  62.7396059  52.7576256  54.4683647  62.5530386
  50.9723186  55.6698990  62.5595760  51.5297985  56.4665079  62.2861958
  49.9625587  55.6717920  62.5377321  51.8529987  52.9281139  65.2526236
  52.2549009  53.7367439  66.0608435  52.5884533  51.8841839  64.8848248
  52.1699476  51.2397909  64.2293024  53.9967918  51.7043066  65.2314901
  54.1909933  52.0718765  66.2390995  54.1424704  50.1624775  65.3728437
  54.0234327  49.6379614  64.4247866  55.1738119  50.0353432  65.7018900
  53.2569742  49.5661640  66.5687084  52.2410202  49.8455572  66.2896395
  53.4615231  48.0394745  66.4535236  53.2162333  47.7566433  65.4298353
  54.4936323  47.8155708  66.7232084  52.8114223  47.4937677  67.1373892
  53.6503696  50.1195717  67.9249573  53.0626917  49.5880699  68.6734533
  54.7043943  49.8617792  68.0282688  53.5400772  51.1930323  68.0786514
  54.9675989  52.2425938  64.1900873  55.2170706  51.7065763  63.1423903
  55.5139494  53.4283829  64.4895363  55.2862167  53.8464689  65.3802872
  56.2050581  54.3659639  63.5145855  55.5069828  54.7618818  62.7769852
  56.7488861  55.6353998  64.2805433  57.6594496  55.3639793  64.8146820
  57.0836735  56.3838577  63.5623312  55.6887531  56.1565351  65.2935410
  54.7025919  56.3515472  64.8721647  55.4791307  55.4811382  66.1230040
  56.2338686  57.4191141  65.8516169  57.1425581  57.2214794  66.4202309
  56.3939571  58.1126738  65.0261211  55.2895880  58.1283092  66.8322325
  54.4074726  58.5378838  66.3400650  54.9422359  57.3368549  67.4963427
  56.0579967  59.0811205  67.6248264  56.3131285  59.8948431  67.0836544
  55.4906273  59.4911957  68.3528566  56.8511057  58.6013317  68.0259275
  57.3222589  53.8023615  62.5734615  57.2846842  53.9672375  61.3245106
  58.3015299  53.0547667  63.1088877  58.2209682  52.8288698  64.0899992
  59.3308878  52.3231363  62.2921991  59.6011829  52.8270245  61.3642216
  60.6467819  52.3600245  63.0915165  60.7120895  51.5386868  63.8051271
  61.4293528  51.9315004  62.4653769  61.0301971  53.6571932  63.7059689
  61.0846090  54.6810484  62.9795599  61.2721348  53.7029123  64.9245644
  58.9768267  50.8289003  62.1032858  59.5150518  50.2488041  61.1518669
  58.1252909  50.2116680  62.9259348  57.6155901  50.8040524  63.5657692
  57.8557062  48.7669659  63.1090879  58.6143303  48.1184483  62.6708889
  57.6937819  48.5172796  64.6475458  56.9527340  49.2159271  65.0359297
  57.3637581  47.4789906  64.6812868  59.0056372  48.6305666  65.4015255
  60.0707817  48.2523155  64.8792267  58.9522362  48.9245701  66.5789938
  56.6948700  48.2218885  62.2526169  56.6568756  47.0037222  62.1571875
  55.8011055  49.0457582  61.6516781  55.8738661  50.0335503  61.8493319
  54.9884892  48.5371065  60.5364275  54.9221563  47.4618006  60.7020140
  53.5938072  49.1245127  60.5102205  53.1314754  49.0802431  61.4963198
  53.5129595  50.1949739  60.3213215  52.7477312  48.5223198  59.5643425
  52.4189234  49.1650534  58.9315891  55.7963181  48.6917210  59.2668343
  55.9641552  47.6561832  58.5883760  56.2984610  49.8988771  58.8900900
  55.9733725  50.7179594  59.3835688  57.1096134  50.0646067  57.7152586
  56.3839483  49.8437643  56.9324827  57.6593637  51.5068626  57.6450872
  58.2983398  51.6186333  58.5210562  58.3987236  51.6341066  56.8543577
  56.6121912  52.5966501  57.5278139  56.0006094  52.6741695  58.4267378
  57.2695589  53.9473724  57.3897314  56.5297270  54.7399473  57.2776127
  57.8450489  54.2058611  58.2786036  57.9685640  53.9695024  56.5536594
  55.6145716  52.4507809  56.3637257  54.9591446  51.6079378  56.5831089
  54.8936462  53.2598686  56.2464428  56.1488819  52.3129463  55.4237175
  58.2360840  48.9941978  57.4639988  58.8990498  48.5533094  58.3923721
  58.5173702  48.7030506  56.1827564  57.9053974  49.1884327  54.9612379
  58.4174538  50.0641918  54.5625639  56.8316031  49.3310499  55.0826311
  58.0148077  48.0721092  53.9408731  58.1001568  48.4462547  52.9206610
  57.1765757  47.3808813  54.0284395  59.3684149  47.4378252  54.3920898
  60.1408005  48.1245279  54.0457296  59.5557785  46.3921261  54.1481400
  59.3677425  47.5512409  55.8583784  58.9650822  46.6763830  56.3688612
  60.8758879  47.5569439  56.3089943  61.5215254  48.5863733  56.2876606
  61.4278650  46.3665962  56.6176081  60.7414246  45.6260824  56.5942383
  62.8098106  46.0943079  57.1112156  63.0696678  46.9056606  57.7911234
  62.7552700  44.8057890  57.9536390  61.7962313  44.8621893  58.4685755
  62.7436972  43.9610052  57.2649336  63.8313389  44.7750950  58.8774300
  63.5753202  45.3716707  59.5846462  63.8181019  46.1264658  55.9577513
  64.8730230  46.4999485  56.1795998  63.4169436  45.7376766  54.7249174
  62.4479723  45.4851246  54.5929623  64.2558765  45.6859684  53.5443306
  65.2575111  45.3551912  53.8189602  63.7624264  44.6267128  52.5663948
  63.7955713  43.6116457  52.9621649  62.7434826  44.8634958  52.2601461
  64.6858168  44.6504307  51.3423920  64.5729780  45.4249334  50.4367208
  65.5101442  43.6962461  51.2218475  66.3605595  43.8989496  50.7160807
  65.5289888  43.1034136  52.0393324  64.3018150  47.1038055  53.0438566
  63.2370853  47.7054596  52.8109503  65.5914688  47.6627207  52.8531551
  66.8544197  46.9728613  53.0369043  66.8934774  45.9728909  52.6048946
  67.0112181  46.9471550  54.1152573  67.9557323  47.8166342  52.3393536
  67.8893757  47.5864744  51.2759972  68.9179325  47.9578733  52.8316212
  67.3197794  49.2427254  52.3376799  67.5975561  49.8008490  51.4435673
  67.6139736  49.7788000  53.2399988  65.7643127  49.0297127  52.3684025
  65.3710651  49.7517872  53.0839920  65.2669191  49.4456387  50.9630871
  65.0060034  50.6075001  50.7041216  65.0414467  48.5200262  50.0778198
  65.1674223  47.5424862  50.2983952  64.4161844  48.6625385  48.7310934
  64.7211838  49.6335030  48.3408356  64.9022722  47.4993372  47.8176594
  64.4254446  46.6066551  48.2224464  64.4016123  47.7166653  46.3381720
  63.3131742  47.6639032  46.3631630  64.6518421  48.7171459  45.9852934
  64.8499823  47.0059395  45.6439543  66.4280653  47.2710657  47.7346277
  66.7168999  46.9430447  48.7331676  66.6022301  46.3857365  47.1230936
  67.2461557  48.4118080  47.2246122  67.2042513  49.1808271  47.9959488
  68.2897997  48.1107283  47.1337461  66.8956947  48.7809515  46.2607574
  62.8929520  48.7074757  48.9207745  62.2592115  49.6903849  48.5626554
  62.2715855  47.8189993  49.6807146  62.6932144  46.9614792  50.0078154
  60.8299398  47.7343798  49.7244120  60.2915812  47.8308868  48.7815666
  60.4770851  46.3693571  50.3387547  60.7868195  46.3877821  51.3836575
  59.4010592  46.2623453  50.4759598  61.0384130  45.1309443  49.6099806
  61.2463522  44.1190815  50.2896595  61.1849451  45.1781607  48.3869457
  60.2067614  48.9256668  50.5396748  59.2119932  49.5180845  50.1269102
  60.8604574  49.3515444  51.5953398  61.6307783  48.7648535  51.8825722
  60.7359219  50.6622553  52.3220158  59.7399426  50.7477045  52.7565527
  61.8029165  50.7259321  53.4064865  61.7383766  49.9412346  54.1602707
  62.7999115  50.6174946  52.9794741  61.8009949  52.0458460  54.2141294
  62.7703381  53.0384731  53.8906145  63.4963131  52.8663254  53.1097603
  62.7960825  54.2782736  54.5489693  63.5356522  55.0314426  54.3205452
  61.8253994  54.5521212  55.5522299  61.8642473  55.4992580  56.0697508
  60.8096218  53.6137581  55.7819557  60.0411224  53.8432741  56.5052319
  60.7875156  52.3199272  55.1836967  60.0338697  51.5966225  55.4580116
  60.7729101  51.9188786  51.4160061  59.9414682  52.7685642  51.5414000
  61.7310715  51.8564415  50.4253817  62.3122454  51.0343552  50.3447008
  61.9307470  52.9063892  49.4526339  62.3469448  53.7763023  49.9607086
  62.9956102  52.5069046  48.4624052  63.6891651  51.8268299  48.9569569
  62.5190592  52.0567274  47.5915766  63.6249971  53.6705446  47.9973984
  64.1816378  53.9691925  48.7202835  60.6883621  53.3526182  48.6260509
  60.6089401  54.5084381  48.2178926  59.6307516  52.5190544  48.4969759
  59.5565701  51.7081833  49.0945435  58.3542776  52.8515959  47.7523327
  58.3153152  53.9195395  47.5376654  58.3205128  52.0442200  46.3942051
  58.1243515  50.9806871  46.5302801  57.4930573  52.5061226  45.8556175
  59.5765162  52.2541857  45.5493736  59.5787668  53.1089401  44.4568539
  58.7251043  53.7328863  44.2369461  60.6286764  53.1286192  43.5146284
  60.5532598  53.7087774  42.6068163  61.7629099  52.3990059  43.8099957
  62.7391672  52.4439812  42.8873825  63.5244274  52.0169735  43.2375622
  61.8440485  51.6013527  44.9455166  62.7986765  51.1477137  45.1675510
  60.6997395  51.4980555  45.7993507  60.6009102  50.8154678  46.6304398
  57.0442820  52.5762272  48.5324574  55.9578991  52.7535772  47.9753828
  57.1576214  52.2065496  49.8379850  58.0895138  52.0982361  50.2120829
  56.0011053  51.7902136  50.6406069  55.6392145  50.8579445  50.2070093
  56.3853359  51.6635609  52.1665478  57.2140837  50.9836578  52.3640442
  56.6602898  52.6775408  52.4569750  55.2451181  51.1984873  52.9501772
  55.0472879  49.8527431  53.1149530  55.7699347  49.1012907  52.8329849
  53.8861990  49.7083712  53.9340496  53.6148071  48.8130569  54.3146563
  53.2907200  50.9434652  54.2143154  52.1033812  51.2672567  54.7977829
  51.4426613  50.5439949  55.2524662  51.7403889  52.6442051  54.8055983
  50.7789850  52.9365730  55.2013540  52.5982857  53.5846853  54.3032408
  52.3780823  54.6419764  54.2959452  53.8299561  53.2345295  53.7296295
  54.4408703  54.0377045  53.3448124  54.1297722  51.8972015  53.5519218
  54.8946190  52.8667784  50.4514074  53.6897230  52.5004339  50.1963282
  55.1876068  54.1914749  50.5769634  56.1556959  54.4133663  50.7604456
  54.1003704  55.2305460  50.5662441  53.2777643  54.8337364  51.1611986
  54.5558596  56.5941381  51.1900616  55.2159786  56.9959688  50.4213762
  53.3982038  57.5615788  51.4160967  52.8731585  57.8248692  50.4978848
  52.7404785  57.1978283  52.2055149  53.8277960  58.5206938  51.7053318
  55.2119255  56.4846516  52.5547361  54.4582129  56.3024616  53.3207798
  55.9684563  55.7037115  52.6315546  55.7638216  57.4101734  52.7188110
  53.5323763  55.3557444  49.1672039  52.2853374  55.3494358  48.9897776
  54.3855715  55.4544210  48.1044483  55.3737926  55.5733681  48.2758617
  53.9454126  55.4710531  46.6628504  53.3382273  56.3742876  46.6028643
  55.1963091  55.5490589  45.8124113  54.9389744  55.2089930  44.8093033
  55.5470467  56.5738535  45.6904268  55.9540462  54.8985052  46.2491179
  53.0411053  54.3037081  46.2321901  52.1345186  54.4199657  45.3588009
  53.3414316  53.1379128  46.7763996  54.2181349  53.1832886  47.2758341
  52.5432444  51.8739557  46.5945244  52.4484491  51.6843843  45.5253267
  53.3304930  50.7424641  47.1591330  53.6990976  51.0320902  48.1431770
  52.6944828  49.8575497  47.1818256  54.1639185  50.4164267  46.5368795
  51.1565971  51.9750023  47.2479105  50.2036953  51.3964510  46.7587757
  50.9943342  52.7830935  48.2715464  51.8120670  53.3427429  48.4670258
  49.8363876  52.8556919  49.2085266  49.1899061  51.9811106  49.1359997
  50.3492832  52.7871656  50.6372404  51.2681913  53.3718538  50.6803417
  49.6079016  53.1138611  51.3664293  50.4998112  51.2900257  51.0778046
  49.6667099  50.6295061  51.7389870  51.6977501  50.7453346  50.8459806
  51.9887352  49.9251795  51.3585949  52.4309874  51.3555241  50.5141258
  48.8076305  53.9853382  48.9839029  47.6326227  53.8187695  49.2309093
  49.1974497  55.1474762  48.5114574  50.1834393  55.2370739  48.3117104
  48.3438349  56.2996101  48.4070969  47.9799509  56.4800739  49.4185925
  49.2619658  57.4806452  47.9437971  49.8877382  57.0160675  47.1817780
  48.6177444  58.2877254  47.5949287  50.1912975  58.0710506  49.0634918
  50.6983280  57.3686552  49.7250557  51.1752415  58.9018393  48.2539892
  51.7635298  58.2850075  47.5746250  50.7146740  59.7197199  47.6998663
  51.8720293  59.2010260  49.0369797  49.4218254  59.0284920  49.9600458
  49.0028286  59.8680782  49.4053984  48.5550547  58.5223198  50.3850269
  50.0859976  59.1659307  50.8133268  47.1876955  56.2047625  47.3859549
  47.2917938  55.5379581  46.4002943  46.0549736  56.8915319  47.6274776
  45.7231426  57.5756979  48.8236809  46.4541292  58.3700657  48.9744568
  45.8061743  56.8129444  49.5979071  44.2772150  58.0580044  48.7099314
  44.3360662  58.9538574  48.0918026  43.6914778  58.2190752  49.6149588
  43.6323738  56.8763924  47.9559851  42.6767063  57.0492125  47.4610758
  43.5138130  56.0491514  48.6557865  44.7469711  56.5348387  46.9603872
  44.7420835  55.4683542  46.7352486  44.5250988  57.4492788  45.6771469
  43.3896828  57.8529787  45.3691244  45.6259060  57.9846239  45.1430368
  46.4889193  57.5485325  45.4347992  45.6812811  58.9111519  43.9573717
  45.1201534  59.7857141  44.2865753  47.1065712  59.4532681  43.7143421
  47.1369839  60.0650597  42.8127384  47.4545574  60.4068184  44.9044561
  48.4286928  60.8759928  44.7664976  46.6737890  61.1548519  45.0420952
  47.5573492  59.9043083  45.8662271  48.1106520  58.2577753  43.4694862
  47.8065157  57.5003815  44.1919565  47.9689550  57.8244686  42.4794006
  49.5520735  58.4590340  43.7174797  49.8970652  59.2849350  43.0954123
  49.6718788  58.6319542  44.7869921  50.1812267  57.6136208  43.4390163
  45.0198746  58.4711885  42.6799250  44.9947166  57.2722197  42.3733282
  44.6794033  59.4291592  41.8166351  44.8751116  60.3815413  42.0900774
  44.4798708  59.2820215  40.3579855  43.6216497  58.6479282  40.1355124
  44.0521193  60.6527233  39.8104477  43.3674192  61.0987091  40.5318260
  45.0201416  61.1530161  39.7833633  43.3283901  60.6925917  38.4978533
  42.8865767  59.6321344  37.9938102  43.3559513  61.8009377  37.9518628
  45.7391310  58.6451769  39.6704769  46.9206953  58.6863136  40.0581217
  45.3648138  57.8471613  38.6544061  44.3695164  57.8250456  38.4841347
  46.2339640  56.9692802  37.8173828  46.6068602  56.1267328  38.3997583
  45.4560423  56.5071630  36.5994883  45.1914549  57.4023438  36.0366893
  46.0228539  55.8185911  35.9728241  44.1382074  55.7847166  36.8666077
  43.3595181  55.6057549  35.8995390  43.8959408  55.2625370  37.9789114
  47.4045801  57.6846886  37.3275352  48.5677338  57.2499275  37.6013541
  47.2473764  58.8174582  36.6654658  46.3119316  59.0856218  36.3950348
  48.3391619  59.6576881  36.2850380  48.9455175  59.1169739  35.5583596
  47.7986050  60.8073330  35.5083704  48.6260128  61.4908218  35.3177381
  47.4044704  60.3550768  34.5983028  46.7554140  61.5699339  36.1484385
  45.9389210  61.1206102  35.9181237  49.3828344  60.0169563  37.3722911
  50.5364895  59.9762201  37.1717453  48.9416552  60.3043270  38.5925865
  47.9600000  60.0986958  38.7116051  49.8625231  60.5164194  39.7588301
  50.5626965  61.2364912  39.3353248  49.0129805  61.2065172  40.8690691
  47.9567146  60.9581709  40.7654905  49.2505455  60.9599590  41.9039011
  49.1765070  62.7327061  40.6708622  49.0710402  62.9504967  39.6080637
  48.0042028  63.4087610  41.3642740  48.0533361  64.4690561  41.1163759
  47.0367861  63.0250216  41.0403109  48.1474829  63.2627439  42.4349070
  50.5271006  63.4187317  41.0949802  50.9110022  62.9588699  42.0056152
  51.2923098  63.1262398  40.3759527  50.4215288  64.5011806  41.0224247
  50.4873276  59.1759491  40.2874660  51.6390228  59.2186117  40.7275629
  49.8060036  58.0015659  40.1530790  48.8724327  58.0714655  39.7740555
  50.2841663  56.6512394  40.4686928  50.9621096  56.6498804  41.3222122
  49.0277863  55.7714844  40.6123686  48.2445574  56.3065100  41.1493921
  48.6629963  55.3885603  39.6592712  49.4602871  54.6607018  41.5418339
  50.2199459  54.0434599  41.0622168  49.8853540  54.9859047  42.4913931
  48.3666420  53.6456728  41.9140148  47.6289654  54.1564894  42.5328875
  48.0175877  53.4769011  40.8952999  48.9067554  52.3591185  42.4254417
  49.2104912  51.6877985  41.7346621  49.0182447  51.9775009  43.7413788
  48.5764790  52.6290512  44.7613001  47.9176140  53.3914137  44.6920395
  48.8701820  52.2194958  45.6365776  49.7071695  50.8995247  43.9581919
  50.0949574  50.3806973  43.1832457  49.8499250  50.4437733  44.8481417
  51.2246370  56.1366367  39.3731809  51.9291639  55.1932430  39.6070123
  51.2539387  56.8005276  38.1854653  50.4717779  57.3758602  37.9073954
  52.2772932  56.5802383  37.1677279  52.6167107  55.5685425  37.3899436
  51.6517210  56.5830660  35.7410765  51.1633635  57.5454950  35.5883121
  52.7281189  56.4522552  34.6584845  52.3316908  56.6306257  33.6589193
  53.5364056  57.1687317  34.8048735  52.9935646  55.3995991  34.5607305
  50.5375242  55.4846334  35.5288768  51.0720301  54.5402956  35.6319880
  49.6954775  55.5709743  36.2156105  50.0023222  55.5073547  34.0671587
  48.9353132  55.2963924  34.1385388  50.0503063  56.5303564  33.6939692
  50.6391811  54.8456669  33.4800696  53.5028887  57.4992323  37.3478651
  54.5938301  57.0466900  37.3396134  53.3227587  58.8316822  37.5275540
  52.3626614  59.1421032  37.4833369  54.4127560  59.8685932  37.6164460
  54.9337673  59.9212027  36.6604733  53.6990547  61.2715244  37.5858688
  53.3846903  61.5049410  36.5686202  52.7660608  61.0178995  38.0891514
  54.3633699  62.4763489  38.3360577  53.7278748  63.3423615  38.1509447
  54.4882917  62.1479464  39.3678761  55.7564735  62.8680038  37.9095793
  56.3691998  62.4283504  36.9523430  56.4955425  63.6982155  38.6541080
  57.4014091  63.9073181  38.2594109  56.0689449  64.1555691  39.4471622
  55.3401184  59.6689510  38.8299656  56.6045666  59.6870613  38.6352849
  54.8504591  59.1926479  39.9499917  53.8730097  58.9690399  40.0712109
  55.7093573  58.5366440  40.8893442  56.4084578  59.2806435  41.2712002
  54.7388268  58.1649256  42.0547533  53.8290119  57.5927114  41.8733168
  55.3947496  57.5577497  42.6786137  54.4046164  59.3386745  42.9830360
  53.8306522  60.0641727  42.4065685  53.5868835  58.9341450  44.2122698
  52.7448225  58.3033228  43.9275026  54.2945862  58.3442497  44.7947454
  53.2520866  59.8034334  44.7782660  55.5397272  60.1915550  43.5475826
  55.3505564  60.9192133  44.3367767  56.4110422  59.5671654  43.7452078
  55.8850288  60.8481789  42.7490091  56.4947653  57.2771120  40.5352402
  57.6705551  57.1688795  40.8498144  55.9032965  56.2914991  39.8611903
  54.9412537  56.4264822  39.5848703  56.6145372  55.0807190  39.4054389
  56.9946241  54.5251465  40.2627516  55.5930901  54.1852951  38.6831498
  54.6864605  54.2232561  39.2870474  55.2120543  54.5381355  37.7248096
  56.0651684  52.7591896  38.4394264  56.9258213  52.7193403  37.7717471
  56.4644718  52.0129633  39.7475648  57.2629881  52.5401068  40.2696753
  55.4613733  51.9356966  40.1669979  56.7814922  51.0390949  39.3744874
  54.9975395  52.0090961  37.7524996  54.2588043  51.6191769  38.4527397
  54.5947504  52.5542593  36.8988824  55.4485893  51.1046028  37.3444057
  57.6916790  55.4065895  38.3476520  58.7146473  54.6876431  38.3691382
  57.4194384  56.4462423  37.5910401  56.5151596  56.8629551  37.7605367
  58.3125925  57.0547676  36.5719557  58.6117601  56.2668133  35.8807755
  57.4582624  58.0264521  35.7764173  56.6087389  57.4274492  35.4483986
  57.1519947  58.8171101  36.4613700  58.1892538  58.5834217  34.5404315
  59.0270281  59.1867113  34.8901105  58.4226847  57.7955151  33.8243127
  57.2341251  59.4724369  33.7559652  56.3224792  58.9323425  33.5004354
  56.9962358  60.3327942  34.3815041  57.9004765  60.0283098  32.4283171
  58.2551575  59.1750145  31.8502259  57.1902370  60.5127525  31.7582583
  58.9990520  60.9739256  32.6925039  59.3678045  61.3457441  31.8288636
  58.7756443  61.6737986  33.3855939  59.7675228  60.4999781  33.1451917
  59.6045828  57.7682114  37.1588969  60.6824970  57.7374935  36.5666819
  59.4140005  58.4369421  38.3036184  58.4628725  58.5431719  38.6263752
  60.4871988  59.1981220  38.9733863  60.7395840  59.9314451  38.2074618
  60.1057625  59.8454809  40.2893877  59.3697357  59.2078972  40.7791424
  61.1968517  60.0024939  41.3693428  62.1101332  60.5134630  41.0644960
  60.7225037  60.5355310  42.1933413  61.5399742  59.0880489  41.8532419
  59.6224785  61.2990093  39.9967027  60.4603052  61.9575930  39.7677493
  58.9662218  61.3151789  39.1265512  58.7797880  61.9619894  41.1126661
  58.2834959  62.8672361  40.7629061  57.9427433  61.3390350  41.4279175
  59.4014215  62.2177076  41.9707346  61.7058039  58.3037043  39.1598678
  61.5563631  57.1848202  39.7363877  62.9395294  58.8272047  38.8281751
  62.9103565  59.7768497  38.4855032  64.2396069  58.0941772  38.9591575
  63.9990950  57.1207809  39.3866491  64.8548031  57.8549671  37.6129293
  65.6582594  57.1230412  37.6956391  64.0160036  57.4901009  37.0201421
  65.5151987  59.0745354  36.9029570  66.2593842  58.7809610  35.9217167
  65.2438021  60.2382183  37.3068929  65.2528715  58.5803413  40.0325108
  66.4729738  58.4624577  39.7795010  64.7505665  59.3181324  41.0880232
  63.7644100  59.3328762  41.3056707  65.6556702  59.9168730  42.0614672
  66.5791273  59.3398714  42.0125151  65.9637070  61.3727760  41.8430758
  66.5960264  61.4004993  40.9556627  65.1349020  62.0693588  41.7167091
  66.7089987  61.8581200  42.9261303  67.4873543  62.3389578  42.6353359
  65.1867199  59.6924400  43.5101080  64.0213633  59.7802591  43.8270473
  66.0593462  59.2169619  44.4094086  66.9559479  58.9529133  44.0266705
  65.7096529  58.9399815  45.8079290  64.9949837  58.1174517  45.8361292
  67.0223093  58.3570576  46.5244436  67.7721024  59.1354036  46.6661787
  66.7658520  58.0670166  47.5433731  67.5034237  57.5538492  45.9663343
  64.9751806  60.0902510  46.5744257  63.9428663  59.8300123  47.0690870
  65.5305386  61.3092804  46.4857054  66.4506340  61.3593864  46.0721588
  64.9141264  62.5618362  47.0629787  64.6120453  62.3585606  48.0903625
  65.9302044  63.7581587  47.0348597  66.8336248  63.4093237  47.5351000
  66.2966871  64.2750263  45.6253481  67.2490168  64.7968340  45.7196045
  66.4632988  63.4764290  44.9024487  65.4850817  64.9582529  45.3751230
  65.4083443  65.0139666  47.8218555  65.9855938  65.9062195  47.5794411
  64.4482183  65.4125309  47.4941206  65.3642559  64.8104572  49.3073606
  64.6689272  64.0887547  49.7360325  66.3225651  64.3651772  49.5747042
  65.3557205  65.7627535  49.8376131  63.7062311  62.9347038  46.2282610
  62.7333784  63.3909702  46.8737411  63.6159039  62.6386452  44.9302292
  64.4001579  62.2014713  44.4677162  62.3401546  63.1266308  44.2579508
  62.1053076  64.1696119  44.4704008  62.5149393  63.1706333  42.7431870
  62.9591656  62.2557354  42.3511076  61.4918470  63.2538033  42.3764801
  63.2398653  64.3830681  42.2139406  62.8576279  65.3214359  42.6157618
  64.3042994  64.3869734  42.4485874  63.2730389  64.3551254  40.6987286
  64.2760277  63.9703274  40.1276588  62.1691132  64.6324492  40.0025797
  62.1537352  64.5493078  38.9961243  61.3839436  64.9045372  40.5766726
  61.1283445  62.2896433  44.6502256  60.0372458  62.8597784  44.8763180
  61.3357258  60.9625340  44.7884083  62.2224283  60.5379152  44.5569754
  60.2788448  60.0608206  45.2581787  59.4100142  60.2358389  44.6236753
  60.8083630  58.6353445  45.0495291  60.7985067  58.4974098  43.9683342
  61.7969370  58.4570646  45.4726505  59.8634005  57.6488256  45.6686115
  59.8332739  57.7407598  46.7543077  58.8477993  57.8891754  45.3541517
  60.0607729  56.1952925  45.2457190  59.2350864  55.5832767  45.6087351
  59.8829889  56.0641861  44.1783381  61.3249636  55.6786489  45.7334042
  61.3761997  55.4275846  46.7103577  62.4243259  55.6896114  44.9640226
  62.4838257  56.1413479  43.7613726  61.7090654  56.3915443  43.1636667
  63.2985020  55.8485365  43.2411098  63.4825373  55.3658342  45.5482149
  63.5109377  55.1646709  46.5375710  64.3701267  55.6941938  45.1954079
  59.9195433  60.4060316  46.7108679  58.7629700  60.5610847  46.9580078
  60.8689690  60.5054045  47.6680899  61.7486429  60.0954151  47.3884773
  60.7121038  60.8018827  49.1602802  60.2756739  59.9594545  49.6968889
  62.1360111  60.9843636  49.6921015  62.7436972  60.1121664  49.4510794
  62.6884890  61.7929554  49.2135191  62.2376060  61.2133694  51.1736870
  61.6159201  62.0688391  51.4378309  61.9108868  59.9708557  51.9674349
  60.8270931  59.8621082  52.0082664  62.4881649  59.1194248  51.6070032
  62.1795893  60.1202106  53.0131817  63.6328316  61.6935110  51.6024828
  63.7244320  62.7335930  51.2895250  63.8652420  61.6492033  52.6664972
  64.3739700  61.1623907  51.0052204  59.8924065  62.0561171  49.2683840
  59.1299009  62.1888781  50.2279520  60.2419949  63.0683517  48.3418512
  60.9859324  62.8887510  47.6827621  59.7123480  64.4708157  48.3520842
  59.5966530  64.7812557  49.3905210  60.6824255  65.4320526  47.6753044
  61.6624880  65.2029705  48.0937529  60.7700062  65.2461386  46.6048527
  60.3603125  66.9161081  47.9126453  59.4637489  67.1665287  47.3455858
  60.1028109  67.1726274  48.9402628  61.4775372  67.8747368  47.4830294
  61.1978292  68.9026356  47.7138758  62.3352528  67.5579453  48.0763865
  61.6332436  67.6552439  45.9925032  60.8506250  67.3114872  45.4545021
  62.7815485  67.6459074  45.3436756  63.8847733  68.0511618  45.9114742
  63.8878489  68.0307865  46.9212627  64.7727060  67.9192829  45.4485655
  62.7685404  67.3757029  44.0932083  61.9195986  67.0727730  43.6375380
  63.6055851  67.5819016  43.5669708  58.3032227  64.4590950  47.8133297
  57.4362040  64.9809265  48.5281420  58.0152559  63.8736439  46.5818834
  58.7283993  63.3147287  46.1356401  56.7086172  63.7932062  46.1146927
  56.2820530  64.7928286  46.0315466  56.7854357  63.3099651  44.6717930
  57.0592594  62.2587967  44.5814323  55.7258368  63.3461332  44.4187403
  57.7711344  64.4298077  43.5847855  58.8708735  63.6788464  43.4774065
  55.7708454  62.9646301  46.9971085  54.6483469  63.3576202  47.1387625
  56.1704350  61.8588448  47.5811386  57.0711422  61.4898443  47.3115730
  55.4283094  61.1392546  48.6036396  54.5649672  60.7281590  48.0804253
  56.2564135  59.9416113  49.1545105  57.2670937  60.2934933  49.3614244
  55.7496166  59.6207476  50.0646210  56.3682890  58.7496519  48.1794357
  55.3820848  58.3600712  47.9269791  56.6486979  59.0959024  47.1846581
  57.3667860  57.6755571  48.5283613  58.4029484  57.9221773  49.2205191
  57.0711088  56.5170288  48.2190323  54.8504591  61.8898249  49.7718668
  53.6245108  61.7797041  50.0114679  55.6834888  62.6360464  50.5327749
  56.6857529  62.6499081  50.4087973  55.2562571  63.5602903  51.6298628
  54.6379137  62.9641533  52.3009634  56.4299202  64.0931892  52.3904800
  56.9979191  63.2184029  52.7070618  57.0579863  64.6116114  51.6660023
  56.0399389  64.8589659  53.6281538  56.8889856  64.7004795  54.2930651
  56.0276699  66.3568163  53.5294771  55.1215696  66.6244125  52.9858971
  56.0630178  66.6643238  54.5746040  56.9109726  66.6352844  52.9547262
  54.8625803  64.3740606  54.5110559  53.9314938  64.3857384  53.9444447
  54.9910069  63.3279276  54.7889423  54.6791410  65.0490427  55.3470278
  54.3401146  64.6581793  51.0627556  53.2211256  64.8707581  51.5348577
  54.7588158  65.2910089  49.9782991  55.5142498  64.8919010  49.4396591
  54.0154696  66.3565063  49.2213440  53.9853859  67.1850967  49.9288988
  54.7436714  66.7768669  47.9195023  55.7302380  67.1034098  48.2483768
  54.9157667  65.9112740  47.2797966  54.0683985  68.0290651  47.3299646
  53.7044525  69.0157461  47.9969883  53.8456869  68.0282879  46.1192322
  52.5035095  65.9447145  49.0209341  51.5711308  66.5817165  49.4929457
  52.1816063  64.7596312  48.3824682  52.9654837  64.1269016  48.3097076
  50.8816624  64.1911507  48.0878973  50.1973867  64.8845577  47.5989628
  51.0734081  63.1217289  46.9950533  51.8907642  62.4910641  47.3447514
  49.8772573  62.1814489  46.7140150  48.9413404  62.5955057  46.3388920
  50.2759409  61.4304686  46.0319710  49.6261120  61.7353535  47.6763058
  51.5595770  63.7845898  45.6284285  50.6564093  64.2984200  45.2992392
  52.3007298  64.5561075  45.8371162  52.1958876  62.7603722  44.6563578
  52.7603054  63.3153009  43.9069700  52.8318644  62.0765066  45.2184582
  51.3370991  62.3077250  44.1606855  50.2200079  63.7024069  49.3945312
  49.1069078  64.0255022  49.5751333  50.9677696  63.0708742  50.3058386
  51.9324780  62.8546906  50.0991917  50.3480721  62.4881887  51.5035534
  49.5099592  61.8578529  51.2063265  51.4172125  61.5366411  52.1796465
  51.7453432  60.6979132  51.5656710  52.2642899  62.1911860  52.3849392
  50.8049536  60.9566975  53.5136461  50.6125832  61.7351675  54.2519379
  49.8962307  60.4054499  53.2718611  52.0159769  59.9158096  54.4417048
  50.9309769  58.5222769  54.7165823  50.3670835  58.2240772  53.8327265
  51.5465784  57.6665211  54.9937439  50.1650047  58.7849808  55.4462242
  49.8478794  63.5790634  52.4621248  48.8185215  63.4698915  53.1306648
  50.5685139  64.6830797  52.6301575  51.4952135  64.6717834  52.2286558
  50.0907040  65.8972549  53.2413816  49.6476936  65.5778599  54.1846895
  51.2299252  66.7365408  53.6201525  51.9335365  66.1334324  54.1940022
  51.6162157  67.2677326  52.7502584  50.8944750  67.7996826  54.7196484
  51.4514494  67.7510548  55.8427191  50.0816154  68.7844801  54.3966722
  49.9644232  69.4475126  55.1495028  49.5643187  68.7875605  53.5292101
  48.9922380  66.6529608  52.4179173  48.2466459  67.3589277  53.0040216
  48.8281250  66.4859533  51.0752010  49.4681931  65.8212233  50.6646585
  47.7214003  67.1612692  50.3013039  47.5617361  68.1850243  50.6397343
  48.1181145  67.2754145  48.8356829  49.1784239  67.5245714  48.7937021
  47.9774475  66.2964916  48.3774042  47.3389769  68.3096981  47.9243279
  46.3332367  67.8897047  47.9379654  47.3129749  69.3382311  48.2842445
  47.7779293  68.1832790  46.4739656  48.8361454  68.3035660  46.2420130
  47.6075888  67.1709204  46.1076069  46.9914246  69.1442966  45.6231880
  45.9600115  69.1331577  45.9755516  47.3858786  70.1524067  45.7505417
  46.9288015  68.7960052  44.2264128  46.6143322  67.8479052  44.0770388
  46.2522650  69.3446779  43.7151814  47.8528976  68.8138580  43.8191986
  46.4142847  66.4094305  50.5498648  45.4044342  67.0669413  50.6892872
  46.4426041  65.0769949  50.5200481  47.2858286  64.5265722  50.4418564
  45.2141953  64.2426634  50.7260561  44.6187639  64.3957663  49.8259878
  45.7111740  62.7907419  50.6506872  46.4321661  62.6489496  51.4557743
  44.7990608  62.2154474  50.8093882  46.3123274  62.4446297  48.9066267
  47.5513935  62.9117727  49.0838194  44.5050526  64.5237970  52.0390797
  45.1581430  64.6783972  53.0455494  43.1655216  64.5624304  51.9582319
  42.7584791  64.4430780  51.0416222  42.1715498  64.9090576  53.0672455
  42.6626873  64.4445753  53.9223099  42.1586990  66.4034367  53.2929754
  41.9701004  66.9329548  52.3590899  41.0133934  66.8006372  54.2458487
  41.2114143  67.8395844  54.5094347  40.0493145  66.8223429  53.7377357
  41.0626316  66.2223530  55.1684904  43.3211422  66.9079781  53.9301729
  44.0786648  66.5415335  53.4681368  40.8314705  64.2236376  52.7893543
  40.8223200  63.0203581  53.0183744  39.8415351  64.9127102  52.1967888
  40.0277758  65.8856964  52.0000172  38.5778928  64.4180107  51.6941738
  38.0217361  63.8251019  52.4202967  37.5947976  65.5782032  51.3025761
  37.3304605  66.2804461  52.0931959  38.0428076  66.1445427  50.4860878
  36.4059544  64.9470186  50.8800793  35.6876850  65.1513243  51.4833593
  38.7215829  63.4501314  50.5087757  39.4238138  63.7985754  49.5415545
  38.0473304  62.3178148  50.3763866  37.2162485  62.1935034  50.9366989
  38.0666566  61.2769938  49.2895412  38.7992787  61.5215111  48.5204029
  38.5853362  60.0079727  49.8958969  38.0618930  59.9051428  50.8464384
  38.3228374  59.2183208  49.1918755  40.0902081  60.0361252  50.0362825
  40.4170561  61.0196829  50.3737640  40.4652214  58.9373636  51.0220480
  41.5488148  58.8662481  51.1162376  40.0506639  59.2785168  51.9706583
  39.9844599  57.9848337  50.7992125  40.8342695  59.6660709  48.7302017
  40.5741692  60.4975319  48.0751228  41.9076681  59.4934654  48.8084126
  40.4594278  58.7326717  48.3102560  36.6555262  61.1540365  48.6892462
  35.6711173  60.8430958  49.3768358  36.5270281  61.4249372  47.4060726
  37.3764467  61.3260174  46.8686628  35.3742957  61.5591574  46.5850210
  34.5686054  61.6395617  47.3147488  35.3676748  62.9274654  45.8035707
  36.3982868  62.9913139  45.4544830  34.6433949  62.9197550  44.9890375
  34.8877311  64.2468596  46.8977213  33.6937022  63.7367392  47.2123146
  35.2537513  60.2913761  45.6139231  36.2677765  59.5369816  45.3349638
  34.0756392  60.1344490  44.9557400  33.2698035  60.6191444  45.3242493
  33.8948846  59.4147205  43.7010908  34.2980242  58.4035683  43.7572670
  32.4035645  59.3180132  43.4463644  31.9018793  60.2749491  43.5901976
  31.9596076  58.6087561  44.1449022  32.0280433  58.7409210  41.7599297
  34.5856094  60.1701307  42.5115871  34.4456244  61.4004612  42.3988104
  35.3137445  59.4477129  41.5979433  35.5033684  58.4687662  41.7585945
  35.9377909  60.1128244  40.4218912  36.2493539  61.1196709  40.6998920
  37.2225308  59.2981386  40.0992441  37.7425361  58.9809752  41.0031843
  36.9032621  58.4172726  39.5422578  38.1731558  60.0547934  39.2056322
  37.9373384  60.0161314  38.1421518  38.2200933  61.0876131  39.5508504
  39.5648336  59.4637108  39.3735027  40.2303267  60.2384090  38.9926267
  39.8971534  59.2877722  40.3965902  39.7857046  58.2837486  38.4283900
  39.0688300  57.4695539  38.5345840  39.8293614  58.7505960  37.4443913
  41.1118412  57.7204561  38.7123275  41.2492371  57.5182676  39.6922970
  41.2746334  56.9637251  38.0635166  41.7803669  58.4353685  38.4631824
  35.0829101  60.2362347  39.1668844  35.4492760  60.9743261  38.1887174
  33.9219975  59.5758867  39.1331172  33.6832190  59.0472221  39.9599147
  32.9530382  59.5026493  38.0568457  33.5645008  59.5054531  37.1545124
  32.1548223  58.1693077  38.1050920  31.6673517  58.1076479  39.0780640
  31.3213325  58.1882954  37.4029207  32.9040408  56.8567419  37.7774239
  32.2658825  55.9732437  37.7942848  33.2366872  57.0043087  36.7499661
  34.0978622  56.5899181  38.7577891  35.2862692  56.6946507  38.4563851
  33.7618446  56.3071489  40.0383091  34.4310474  56.3236761  40.7946110
  32.7878952  56.3123608  40.3057051  32.0903659  60.7205772  37.9371834
  32.2478938  61.4622736  36.9605517  31.3048339  61.0269117  38.9862776
  31.3109970  60.4281855  39.7996593  30.5870318  62.3270273  39.0461707
  30.3003001  62.6582813  38.0480933  29.2412663  62.0852804  39.6999693
  28.7978768  61.2712622  39.1264844  28.4430289  62.8214312  39.6051025
  29.4815278  61.6182852  41.4033365  31.4239645  63.4589338  39.6765924
  31.4238667  64.5265818  39.0956879  31.9651771  63.2531786  40.8663702
  31.8661308  62.2800970  41.1181688  32.7021551  64.1737509  41.7588282
  33.1695938  63.5338593  42.5072575  33.8471079  64.8756599  40.9514856
  33.4261942  65.6718159  40.3374290  34.5330930  65.2698231  41.7012596
  34.6586227  63.8752556  40.0651550  34.9521160  63.0045795  40.6515694
  34.0943408  63.5738897  39.1826224  35.9611940  64.3608427  39.5234299
  36.3748860  65.5087185  39.7806597  36.6709709  63.4767294  38.7756300
  37.5263953  63.9193630  38.4716105  36.3413548  62.5753880  38.4609461
  31.7653322  65.0368404  42.6019144  32.2414947  65.8563042  43.3731174
  30.4302764  64.9599648  42.4008846  29.9589372  64.2754412  41.8269777
  29.4485855  65.7326460  43.1604958  29.7649407  66.7745686  43.2096863
  28.1806779  65.6116581  42.3479652  28.3559346  66.1269188  41.4035654
  28.0361485  64.5708275  42.0583439  26.8440700  66.1369276  42.8494072
  26.1586547  66.1020136  42.0026016  26.4160538  65.4826832  43.6089230
  26.8079829  67.5835228  43.4264040  27.6398993  68.3436489  42.8957033
  26.0570121  67.9558706  44.3451500  29.2852330  65.3409195  44.6621275
  28.7459183  66.0489798  45.4888582  29.9779773  64.2554617  45.0940847
  30.5597162  63.8041353  44.4027233  29.8599863  63.6355162  46.4063025
  29.3925405  64.3793344  47.0515347  28.8816333  62.4811745  46.3134718
  27.9607987  62.8688192  45.8777046  29.3605280  61.2682915  45.4766464
  28.8299894  60.4041719  45.8765602  29.1457272  61.5497541  44.4457579
  30.4249930  61.0346746  45.4975176  28.5532284  62.0203066  47.6218796
  29.2017937  61.3882971  47.9405069  31.1440420  63.1802320  47.0502234
  32.0142007  62.5929356  46.4301443  31.2421823  63.3495474  48.3661413
  30.6237793  64.0058327  48.8210869  32.3026609  62.7243996  49.2492962
  33.2663250  62.6230717  48.7501097  32.5588465  63.7118673  50.3955030
  33.0959010  64.5814323  50.0166416  31.6703248  64.0695810  50.9157658
  33.4718347  63.1860638  51.4757109  32.9185510  62.3970079  51.9849968
  34.3765426  62.7692461  51.0331488  33.8804913  64.1903019  52.5700712
  33.9890385  63.8559246  53.7523699  34.1981101  65.3343487  52.2789526
  32.0089936  61.2724161  49.6916819  30.9518123  61.0642910  50.2190256
  32.9100370  60.3507328  49.6455622  33.8539839  60.6512308  49.4486809
  32.7155542  58.8999891  49.9417543  31.6525578  58.7390423  50.1212931
  33.2644057  57.9493189  48.8210869  34.3266273  58.1609154  48.6985445
  33.1041789  56.4644766  49.2546797  32.0584750  56.2183571  49.4391346
  33.4906340  55.7405376  48.5372782  33.6932325  56.4198494  50.1707220
  32.6059031  58.2189417  47.4029493  32.7897668  59.2709684  47.1849060
  33.0801868  57.5609827  46.6747713  31.0525036  57.9712772  47.2820139
  30.6009245  58.4694338  48.1399250  30.6399131  58.4943199  46.4192867
  30.8449650  56.9039106  47.2062016  33.3566046  58.5655022  51.2824011
  32.7202034  57.8321457  52.0762110  34.5663476  59.0840673  51.5525818
  34.9610138  59.6673059  50.8285809  35.3112960  58.9618349  52.7327728
  34.6298194  59.2156506  53.5447311  35.8160877  57.4887371  52.8191137
  34.8900914  56.9565344  52.6014233  36.8978214  57.0851421  51.8672705
  36.6773701  57.3169184  50.8252621  37.7014709  57.7628326  52.1553516
  36.8631387  55.9968138  51.8178272  36.3019371  57.3099709  54.1425371
  36.0426068  56.4582729  54.5016527  36.3675976  60.0659847  52.9931641
  36.4949918  61.0480356  52.2928810  37.1554470  59.9074459  54.0246344
  37.1123171  58.9780712  54.4177055  38.2088566  60.8892250  54.3553400
  38.5639238  61.2389946  53.3859634  37.5896502  62.1019650  55.0260592
  36.6727805  62.3906183  54.5121241  36.9758797  61.8917656  56.4270258
  36.5023923  62.8210115  56.7438936  36.1931038  61.1332989  56.4173841
  37.6878881  61.4241552  57.1070862  38.4244418  63.2069349  55.0821590
  38.8489509  63.2512760  55.9420586  39.4520688  60.3142023  55.1154518
  39.4226885  59.2221832  55.5916882  40.5524254  61.0507250  55.0731802
  40.5649424  61.8796253  54.4962358  41.8875170  60.6915426  55.7142973
  42.3955727  60.0231075  55.0191927  42.6246309  62.0120144  55.7213783
  42.8157234  62.3091269  54.6902084  41.8997765  62.7321672  56.1009312
  43.8304234  62.2706985  56.5820789  43.6044550  61.9244194  57.5906086
  44.5630074  61.6529560  56.0626364  44.2945290  63.7570381  56.5028238
  44.6075726  63.9166212  55.4710102  43.3962822  64.3645144  56.6134071
  45.3225565  64.0450764  57.5412560  45.0663900  63.6537790  58.5258245
  46.2963343  63.6043835  57.3276138  45.4809237  65.4902935  57.7578974
  44.5489311  65.8779573  57.7924967  45.9819651  65.7477570  58.5962105
  45.8595753  65.9883928  56.9650459  41.8334770  60.0464821  57.0846796
  42.6278496  59.1804314  57.3603392  40.8832407  60.4092789  57.9437685
  40.2528238  61.1447239  57.6577759  40.9517288  59.9572420  59.3368435
  42.0252705  59.9307203  59.5236635  40.2764416  60.9443903  60.3089714
  39.2495847  61.1128426  59.9844790  40.2889967  60.5206537  61.3131571
  41.1063862  62.2391558  60.3819227  40.6688976  63.3464432  59.9145222
  42.2066927  62.2198009  61.0560417  42.7267218  63.0843401  61.1033535
  42.6511288  61.4279509  61.4982510  40.3318834  58.5546827  59.5440149
  39.9616933  58.2057333  60.6915426  40.0645781  57.8673220  58.4513664
  40.4033279  58.2894421  57.5986290  39.3208098  56.5594292  58.3228207
  38.9681244  56.2332916  59.3012619  38.0960393  56.8416834  57.4716377
  38.5337329  57.0581675  56.4971304  37.5271416  55.9163523  57.3809576
  37.1548510  58.1228352  57.8245115  37.8438807  58.9420891  58.0298519
  36.5764642  58.3790112  56.9368505  36.3608336  57.8550291  59.0581417
  35.7219362  58.8460064  59.5188046  36.4868832  56.7736721  59.6598625
  40.1427364  55.4523230  57.7658224  39.5722628  54.3634939  57.5310183
  41.3729286  55.7256985  57.3607302  41.8810034  56.5560532  57.6299286
  42.1058369  54.7861385  56.5199947  41.3265133  54.4504356  55.8358479
  43.0924129  55.5319738  55.5626154  43.8335228  56.0469770  56.1738729
  43.8924837  54.4735909  54.8133039  44.5375729  54.9789810  54.0945959
  44.5292521  53.9986610  55.5596685  43.4077024  53.6719465  54.2561150
  42.3319817  56.3926744  54.6171904  41.7444372  55.8196497  53.8998747
  41.6983891  57.0698977  55.1899338  43.2092428  57.5129080  53.9088154
  43.6905861  58.2143736  54.5902538  43.9677429  57.0090580  53.3097219
  42.7138329  58.1068611  53.1407738  42.6480675  53.5983610  57.3356056
  43.4144211  53.8256884  58.2987642  42.3049068  52.3767996  57.0443392
  41.8738604  52.2391415  56.1413717  42.3758841  51.1399221  57.9638624
  42.4742508  51.3987398  59.0181065  41.0049868  50.4984426  57.8644562
  40.3116703  51.2505245  58.2410002  40.6634140  50.4018259  56.8338680
  40.8064318  49.2357445  58.7299776  39.8374319  48.2926559  58.3058167
  39.1029978  48.5794544  57.5677443  39.7359920  47.0687199  59.0162468
  39.0430570  46.3214636  58.6586857  40.5638456  46.8217564  60.1723957
  40.5437517  45.8644819  60.6720161  41.4498997  47.8221703  60.6270218
  42.1090984  47.6091385  61.4555597  41.5439224  49.0400171  59.9277258
  42.2242022  49.7876024  60.3081703  43.4296894  50.1735306  57.5192785
  43.3470535  49.4710350  56.4849091  44.3714237  49.8693323  58.4265947
  44.3282795  50.3450632  59.3164921  45.4282713  48.9285231  58.0950928
  45.5087233  48.8993406  57.0084620  46.7984867  49.3224621  58.7487030
  46.6725349  49.3017006  59.8312044  47.5212669  48.5267305  58.5684061
  47.2370243  50.5794573  58.3571386  46.5141726  51.1607265  58.6045551
  45.0415421  47.5454235  58.5029030  45.6095695  47.0180130  59.4800854
  44.1675186  46.9146585  57.7042913  43.6985397  47.4721527  57.0047426
  43.8007784  45.4870462  57.7173615  43.6352682  45.2292442  58.7634230
  42.4424791  45.3811502  56.9519234  41.8028641  46.0519028  57.5255823
  42.4894619  45.7813358  55.9391356  41.6562557  44.0558243  56.8920135
  42.2562981  43.3923912  56.2691784  41.4290857  43.4015369  58.2237196
  41.1462355  44.0435839  59.0579081  40.6981659  42.5970650  58.1419706
  42.3694849  42.9406309  58.5259199  40.3059149  44.2635584  56.2213326
  39.5155811  44.5858192  56.8992901  40.3588009  45.0662851  55.4858494
  39.9495506  43.3859539  55.6819630  44.8655272  44.5123863  57.3029137
  44.9925423  43.5284233  58.0327654  45.6800842  44.7483969  56.2300968
  45.5715132  45.5879831  55.6792688  46.8546724  43.9114857  56.0230446
  46.6929770  42.9320049  56.4731359  47.2017050  43.8008165  54.4653368
  46.2764359  43.3913422  54.0599918  47.2565937  44.7930241  54.0174341
  48.3952856  43.0835676  54.1551304  48.3268499  42.8989601  53.2155323
  48.0764723  44.3268776  56.8111277  48.2275343  45.5166149  57.1260262
  49.0318060  43.4351826  57.1621656  48.8287401  42.5343943  56.7529726
  50.4236317  43.8091421  57.6734495  50.1711988  44.2240858  58.6492586
  51.2436962  42.5604439  57.8211498  51.3272142  42.0414162  56.8662977
  52.2481871  42.7521849  58.1984282  50.7265949  41.5657616  58.8501549
  51.0048485  41.8964911  59.8508024  49.6439266  41.4420128  58.8752985
  51.4907980  40.2381992  58.5757113  51.3742828  39.8906565  57.5491953
  52.5570202  40.4644871  58.5681200  51.1938524  39.1349268  59.4676399
  50.6832218  39.3843770  60.3025866  51.3611746  37.8342342  59.2189360
  50.7327032  36.9113612  59.9295425  50.3047609  37.1946907  60.7994223
  50.8341265  35.9299111  59.7137403  52.1376467  37.3725772  58.2998705
  52.7490044  37.9463220  57.7366972  52.2245979  36.3694024  58.2212448
  51.1231613  44.7936535  56.7504501  51.8816185  45.7256126  57.0854473
  50.9175396  44.5660734  55.5070639  50.4248285  43.7211227  55.2552843
  51.3573837  45.3259850  54.3878889  52.4452972  45.3668213  54.4414759
  51.1772728  44.6710825  53.0521679  50.1195049  44.7271395  52.7950859
  51.6607094  45.2721834  52.2820568  51.6234446  43.2414293  52.9183722
  51.2403917  42.6371241  53.7406778  51.2332249  42.8219414  51.9910860
  53.1802607  43.0142212  52.9285622  54.0194750  43.9851761  52.9001331
  53.6181545  41.8725681  53.1094933  50.7183361  46.7814827  54.4535017
  51.4727974  47.6930189  53.9707708  49.4548512  47.0364857  54.8057318
  48.8131762  46.3290215  55.1341391  49.0120459  48.3556557  55.0044346
  49.1764688  48.7270164  56.0159445  49.5552397  49.0796614  54.3970966
  47.5123739  48.4692287  54.6618557  46.8234539  47.4167633  54.7028255
  47.0520926  49.7027969  54.4322681  47.7076530  50.8844471  54.8287058
  48.5615444  51.1232471  54.1947126  47.9925823  50.8211279  55.8788967
  46.6417599  51.9730234  54.7634506  46.6065216  52.4879360  53.8033867
  46.8453693  52.7666616  55.4823256  45.3971910  51.1493778  55.0572968
  44.4748068  51.7263889  54.9911356  45.5461788  50.7112932  56.0442066
  45.6910896  49.9738169  54.1117477  45.0111818  49.1541243  54.3439722
  45.2704191  50.2795601  52.6181746  44.1112137  50.6788397  52.4099922
  46.2354469  50.1769018  51.6606951  47.1298981  49.9752140  52.0842171
  45.9759855  49.9139023  50.2549171  44.8957348  49.7688675  50.2435589
  46.2051868  51.1510181  49.3325377  45.9936142  52.0440102  49.9206734
  47.2394800  51.0761881  48.9967823  45.2428341  51.2431574  48.1663322
  44.2741680  51.6797686  48.4095526  45.6284046  52.0494795  47.5424147
  45.1295280  49.8590279  47.0806789  46.8371248  49.7297955  46.4636183
  46.8819141  48.8850594  45.7762146  47.0913839  50.6062984  45.8676386
  47.5278091  49.5145178  47.2789192  46.7075491  48.6325836  49.7674751
  47.9536438  48.5689354  49.9285936  46.0783863  47.6179266  49.2191315
  45.0755024  47.7073622  49.1396427  46.7232323  46.3254738  48.8432074
  47.7401352  46.5417957  48.5157585  46.7991924  45.5601978  50.1560163
  45.9322357  45.6156015  50.8143616  47.0125628  44.5058823  49.9799681
  47.6505947  45.8638763  50.7651091  45.8156776  45.7053852  47.7694654
  44.6182489  45.8463955  47.7906799  46.3133669  44.9100065  46.8470573
  47.2975588  44.6882200  46.7992258  45.5142879  44.2660522  45.8303022
  44.6629715  44.9132252  45.6192827  46.3444424  44.1798830  44.5395851
  47.1977711  43.5107374  44.6499443  45.7337666  43.6708736  43.7938833
  46.6487741  45.1672363  44.1922712  44.9280643  42.8974390  46.1288166
  45.5730200  42.0664978  46.7910910  43.7110519  42.6554775  45.6640053
  43.2882357  43.4565496  45.2172279  42.8101015  41.5302658  45.9888220
  43.4547853  40.7470131  46.3875723  41.9467974  41.8148851  47.2083282
  41.3926697  42.7449942  47.0820713  41.1872339  41.0375166  47.2910976
  42.6762486  41.7615175  48.5453653  42.6200294  40.6363344  49.3752718
  42.1184874  39.7373819  49.0485525  43.3675623  40.6255245  50.5334473
  43.3126831  39.7930384  51.2192678  44.1562843  41.7423677  50.8684826
  44.9702883  41.6963768  51.9867229  45.0169420  40.7956553  52.3155546
  44.1265631  42.9206085  50.1112223  44.7078037  43.7801456  50.4108286
  43.3880091  42.9381752  48.9461899  43.5483027  43.8290501  48.3570766
  41.9611454  41.0358620  44.8094749  41.6081238  41.7574310  43.9129877
  41.6109896  39.7334647  44.8265934  41.7517996  39.2011714  45.6733179
  41.2485600  39.1314220  43.5000420  41.0543346  39.9583817  42.8170204
  42.4767590  38.3044529  42.9044056  43.2670784  39.0438151  42.7746391
  42.9133511  37.1894813  43.8509750  42.2089481  36.3582659  43.8193655
  43.8831425  36.7950797  43.5475731  43.0195713  37.5240517  44.8829031
  42.2471905  37.6169038  41.5702438  41.6299725  38.2131362  40.8981991
  43.1793928  37.5551772  41.0087395  41.7743301  36.6402030  41.6729641
  40.0300646  38.2144022  43.4779263  39.8713803  37.4184203  44.4196320
  39.0825248  38.4439421  42.5360489  39.2847753  39.0695691  41.7693758
  37.8923678  37.6656342  42.3937178  37.5195312  37.6426482  43.4177160
  36.8311572  38.4275031  41.5439939  35.8442855  38.0977583  41.8687344
  36.8416190  39.4682217  41.8678713  36.9055128  38.2656097  40.0349617
  37.4309802  37.3023152  39.4860101  36.1704445  39.0701628  39.3373966
  36.1032939  38.9369011  38.3384800  35.9037519  39.9486446  39.7583938
  38.0258465  36.1544847  41.9280148  39.1134501  35.8019114  41.4806271
  37.0423055  35.2585721  41.9404602  35.6474042  35.3951812  42.2709942
  35.1936674  35.9850001  41.4745426  35.5825233  35.9537053  43.2047701
  35.1177120  33.9936447  42.4981880  34.3014359  33.9893317  41.7758465
  34.8060083  33.7961125  43.5238218  36.2902355  33.0480623  42.2061539
  36.0544825  32.1493816  41.6361618  36.7681217  32.7037430  43.1233120
  37.3276949  33.8358283  41.5359831  38.2450294  33.4925508  42.0142698
  37.4478722  33.4830141  40.0306320  37.7618432  32.3596525  39.6508884
  37.2873402  34.4806242  39.1289806  37.1622229  35.4174280  39.4851375
  37.7414370  34.4931984  37.7229500  37.8717995  33.4906697  37.3154664
  36.6957569  35.1877332  36.8823600  36.6377687  36.2203884  37.2263908
  36.9741011  35.1993394  35.8285570  35.3361535  34.6100497  37.0455647
  34.7218347  33.5904717  36.2683725  33.4140205  33.5514379  36.5613770
  32.7601790  32.7708054  36.2015152  33.2445788  34.4143009  37.5790048
  32.4004602  34.6367931  38.0870032  34.3724823  35.1722312  37.7802706
  34.5435143  35.9931827  38.4608483  39.0561008  35.1765156  37.4721646
  39.5115829  35.3504372  36.3507199  39.8444629  35.3127933  38.5314798
  39.4779253  35.2842307  39.4721889  41.2309504  35.6844616  38.3452249
  41.7879868  35.3959012  39.2365956  41.6351795  35.1554418  37.4821830
  41.5427303  37.2052741  38.1684971  42.7142191  37.5846505  37.9952765
  40.5545807  38.0448604  38.1766558  39.6321630  37.6899815  38.3847690
  40.7073212  39.4644761  37.9280496  41.5688229  39.6696734  37.2925806
  39.5439196  40.0654030  37.1097159  38.6666632  39.9637675  37.7486110
  39.7304964  41.1257267  36.9394088  39.2227983  39.3851256  35.7670712
  38.2484198  38.3939362  35.7350802  37.8128695  38.2145619  36.7069459
  37.9718900  37.6457810  34.5692134  37.2026777  36.9020844  34.7162867
  38.6087847  38.0015898  33.3364296  38.1656814  37.4093819  32.1851134
  37.4015307  36.8728280  32.4082327  39.6416569  38.9972258  33.3491755
  40.2294683  39.2379665  32.4757218  39.8474169  39.7937918  34.5385885
  40.5818701  40.5815363  34.4583678  40.9092140  40.2239370  39.2277980
  40.2578068  39.9816203  40.3134823  41.8815184  41.0826540  39.1636467
  42.3662853  41.1733866  38.2822418  42.4485016  41.7687750  40.3660679
  42.2096872  41.2623835  41.3012886  44.0286779  41.6080570  40.3366280
  44.1844177  40.5933905  39.9701643  44.6429396  42.5231361  39.2972016
  44.4198561  43.5352707  39.6347117  45.7256269  42.4043369  39.2549133
  44.2238474  42.3273277  38.3102274  44.6663570  41.8339443  41.7152500
  44.4775343  42.8564215  42.0423508  44.2982388  41.1579895  42.4870539
  45.7527256  41.7638826  41.6605949  42.0027161  43.2234764  40.4498577
  41.9076204  43.9140511  39.4051909  41.8628550  43.6851978  41.7222881
  41.9196558  43.0346489  42.4927807  41.5282774  45.0554657  42.0834303
  41.4591217  45.6634045  41.1813641  40.1548624  45.0071335  42.6873207
  40.2984571  44.4896793  43.6358547  39.9013066  46.0282516  42.9721546
  39.0004086  44.4326019  41.9290257  38.2648230  45.0848866  40.9543753
  37.3774862  44.2531252  40.4251003  36.7634249  44.5542192  39.5892334
  37.5684381  43.0350685  41.0160017  37.0432878  42.2000790  40.7989597
  38.5985494  43.1332922  42.0131969  39.0906835  42.3155880  42.5187349
  42.4555588  45.7196474  43.0622339  42.9713058  45.0934696  43.9907742
  42.8230000  46.9715929  42.8732300  42.5146818  47.4693632  42.0502663
  43.5097694  47.7613783  43.9457273  44.2525911  47.1491385  44.4570827
  44.2166996  48.9404392  43.3418417  43.5102510  49.6397352  42.8946114
  44.8281908  49.4433260  44.0910292  45.1312304  48.7078810  42.1600628
  45.9219265  47.9881144  42.3718166  44.5359325  48.2647610  41.3617134
  45.7763815  50.0355625  41.6510057  45.8369493  50.2091932  40.3821230
  45.9890461  50.9586191  42.4104023  42.4570465  48.2334948  44.9729013
  41.5006447  48.9161015  44.5397472  42.6588440  47.8205347  46.2807178
  43.5119963  47.3412609  46.5307713  41.7748499  47.9636097  47.3804855
  40.8997345  48.5509109  47.1023607  41.1213541  46.6277361  47.8814793
  41.9130230  46.0294247  48.3324671  40.1932812  46.7038012  49.1339445
  40.4787397  47.4583435  49.8669434  39.2086792  47.0111084  48.7814951
  40.0964880  45.7324743  49.6189737  40.5834103  45.7582712  46.7861843
  41.3626814  45.5143070  46.0641527  40.2405405  44.8617601  47.3027182
  39.3520379  46.3283396  46.0714340  38.6170816  46.6182995  46.8223429
  39.6173596  47.2695923  45.5900335  38.8768387  45.7243967  45.2984285
  42.2844791  48.7178516  48.5807467  43.1154490  48.2144737  49.3674040
  41.8456364  49.9959373  48.6792326  41.2320042  50.3928995  47.9821110
  41.9513464  50.8409691  49.8443222  42.9708385  50.7850790  50.2259254
  41.5036488  52.3122644  49.4648552  42.1079397  52.6166964  48.6103058
  40.4610634  52.3401403  49.1480923  41.7439175  53.3754683  50.5782127
  41.3924265  52.9408503  51.5139771  43.2270288  53.7367582  50.7647943
  43.7042952  53.1010151  51.5105486  43.8229370  53.6106348  49.8608637
  43.2589960  54.7937727  51.0290146  40.9529972  54.6804047  50.2391958
  41.4126778  55.0630808  49.3279552  39.9272871  54.3526936  50.0699854
  41.0191059  55.4271078  51.0305023  40.9725952  50.3432512  50.8870506
  39.7591066  50.2028561  50.6329632  41.3998890  50.0957870  52.1071672
  42.2746849  50.4296112  52.4858427  40.4915190  49.6102190  53.1818247
  39.4455314  49.5155287  52.8901863  40.9662437  48.2557392  53.7999678
  40.1221657  47.9841757  54.4339180  41.1585188  47.1783638  52.7453041
  40.1802778  46.9607449  52.3166037  41.9348764  47.4615383  52.0345354
  41.5234995  46.2630987  53.2113314  42.1595860  48.2334661  54.4761610
  42.2278166  48.9670706  55.0916100  40.2900743  50.7469988  54.1929436
  41.1767387  51.5472937  54.3780470  39.1257238  50.8722448  54.7217083
  38.4202361  50.1546717  54.6352148  38.6996937  52.0550346  55.5447578
  39.5699024  52.3065329  56.1510468  38.1234431  53.2805967  54.8139334
  37.9213834  54.0135431  55.5949974  39.1386461  53.9054489  53.8898563
  40.1407528  53.9359713  54.3175840  39.1863585  53.4925985  52.8821993
  38.9551950  54.9618244  53.6935663  36.8177629  53.0898190  54.0859652
  36.0348773  52.8103304  54.7909975  36.6317177  54.0467453  53.5983324
  36.9354296  52.3168898  53.3264685  37.6920962  51.5360785  56.6269112
  36.8196177  50.6741667  56.4183950  37.7385521  52.1382236  57.8035259
  38.3912206  52.9037237  57.8937149  36.7307854  51.8484974  58.8480425
  36.6629505  50.7964087  59.1248274  37.2127819  52.5911856  60.1005745
  37.4290872  53.6433649  59.9155712  36.4094615  52.5451231  60.8358669
  38.4963822  52.0818424  60.6688356  38.4195423  51.0077763  61.6023636
  37.5183964  50.4326391  61.7558575  39.5540190  50.6016445  62.3383522
  39.5184183  49.7142267  62.9528618  40.8022928  51.2294245  62.1212196
  41.9043398  50.7259941  62.6802158  42.5478506  51.3969421  62.9196215
  40.8751869  52.2893429  61.1413860  41.8411064  52.6945782  60.8783579
  39.7407293  52.7625513  60.4696035  39.7856069  53.5746765  59.7590828
  35.3346896  52.2526932  58.5066509  34.4805312  51.7113686  59.2391634
  35.0707340  53.2470655  57.6397324  35.8000731  53.5679102  57.0190716
  33.8168979  53.9257765  57.3612833  32.9782295  53.2301664  57.3907042
  33.4985733  54.8426056  58.5748959  33.4908175  54.2459202  59.4870424
  34.3185472  55.5601454  58.6047697  32.1508765  55.6664562  58.4605074
  32.1708107  56.3071394  57.5788975  31.4084673  54.8702526  58.4058714
  31.7897153  56.4739847  59.7012901  30.8266544  56.9403791  59.4937134
  31.6144443  55.7861090  60.5284548  32.8452134  57.4896145  60.1264095
  32.6363873  57.7829885  61.1552095  33.8216400  57.0092392  60.0637388
  32.7292299  58.6548424  59.1750956  33.4696174  59.3318558  59.2916679
  32.8114724  58.2562923  58.2507086  31.8631887  59.1726875  59.2187881
  33.8059449  54.7291756  56.0236740  34.8194218  55.2160501  55.5399990
  32.6236391  54.7464085  55.4486513  31.8792582  54.1242123  55.7294846
  32.2905445  55.2928066  54.1196394  32.8266692  56.2367439  54.0213728
  32.7743745  54.3428802  53.0018473  33.8188171  54.1726685  53.2631493
  32.1818805  53.4333801  52.9025507  32.7073860  54.9132872  52.0754290
  30.7707477  55.6485748  54.0390682  29.9994731  55.1062346  54.8265171
  30.3273249  56.4899826  53.2101631  30.9455919  56.9103956  52.5311232
  28.8889170  56.8198347  53.0126143  28.2573533  55.9415245  53.1460285
  28.5012460  57.8930664  53.9902496  28.7674975  57.6495790  55.0188065
  29.0735054  58.7935591  53.7672424  26.6856360  58.1782198  53.9511728
  26.3947868  57.5319338  55.0837040  28.5487175  57.2791862  51.5324879
  29.4308949  57.3209047  50.7321024  27.3134160  57.5622797  51.2197351
  26.5559578  57.5119638  51.8859339  26.8997478  58.0351305  49.8875809
  25.8173060  58.1354046  49.9674225  27.5974727  59.3586636  49.3337345
  28.6725068  59.2721176  49.1759014  27.1311736  59.5753622  48.3726406
  27.1708846  60.5910254  50.1558113  25.9919095  60.7802153  50.3862047
  28.1403899  61.3041210  50.6404209  27.8472066  62.0797443  51.2171030
  29.0936732  61.2143040  50.3190422  26.9732118  56.8056202  48.8826942
  27.4598265  56.9419098  47.7552032  26.4789128  55.6142473  49.2559004
  25.8791971  55.5283642  50.0640249  26.7280674  54.3659067  48.5844707
  26.7523932  54.5245218  47.5063419  27.9846764  53.6101723  49.0512323
  27.9070663  53.4866190  50.1314211  27.8755140  52.6016712  48.6523294
  29.3429995  54.2931032  48.7944508  29.3432856  55.3613234  49.0112734
  30.5659294  53.5823679  49.4819593  31.5136814  53.9818048  49.1209650
  30.4566169  53.7799740  50.5483055  30.4704404  52.5071526  49.3306541
  29.5562649  54.1256762  47.2823477  30.5128908  54.5895910  47.0420361
  29.5360851  53.1040096  46.9030190  28.8207102  54.7228622  46.7434406
  25.5186605  53.4148407  48.7149429  25.3561926  52.8595924  49.7501612
  24.5985746  53.3849859  47.7379704  24.8977780  53.7770557  46.8565750
  23.6308074  52.3246479  47.5802803  22.8523231  52.4724817  48.3287573
  22.9903173  52.5855970  46.1808109  22.7782321  53.6546993  46.1687231
  23.6501598  52.2793865  45.3690577  21.6072416  51.8783188  45.9969282
  20.8853459  51.6105270  46.9136286  21.1876273  51.6260958  44.7794628
  20.3045154  51.1826229  44.5707798  21.7640758  51.9722891  44.0258360
  24.2796636  50.9317017  47.6803255  25.3763461  50.7846212  47.1103954
  23.5805511  49.9872971  48.2715893  22.6267886  50.1860666  48.5379219
  24.0391278  48.5823393  48.4387398  25.0629473  48.4979153  48.0743694
  24.1137910  48.2464886  49.9415064  23.0705905  48.3833265  50.2263021
  24.2491627  47.1743011  50.0835943  25.0595236  49.0241718  50.9055519
  25.0136471  50.0909185  50.6863451  24.4817185  48.8134193  52.3429918
  23.4807873  49.2121172  52.5081635  24.4332027  47.7573633  52.6084995
  25.1309538  49.2486954  53.1026840  26.5255237  48.6779690  50.7798147
  26.9688320  48.9601564  49.8248529  27.1341729  49.2208195  51.5029764
  26.5951657  47.6057482  50.9630919  23.1916642  47.5459957  47.6642561
  21.9451094  47.6417589  47.7750778  23.7539244  46.4836168  46.9803238
  24.7379851  46.2586784  47.0139027  22.9983354  45.8307409  45.9047842
  21.9472384  46.0824823  45.7636499  23.6508703  46.2632656  44.5577145
  24.6820998  45.9105396  44.5738792  23.0810642  45.6175470  43.2808971
  22.0748949  46.0036945  43.1177711  23.7895083  45.8106089  42.4753284
  22.8861165  44.5457983  43.2428026  23.7709117  47.8204775  44.4252110
  24.5878983  48.1574726  45.0632286  24.1303635  47.8776836  43.3977747
  22.5992084  48.7620115  44.6595192  22.0119095  48.6644316  43.7464714
  21.9174767  48.4071636  45.4324532  23.0801940  49.6897984  44.9693298
  23.1063199  44.3026018  45.9737110  24.2251182  43.7271118  45.8046961
  21.9898629  43.6478996  46.2668133  21.1783409  44.2299747  46.4175558
  21.8980074  42.2250128  46.4167404  20.9012032  41.8285465  46.2236118
  22.4815392  41.8084955  45.5957031  22.4068642  41.6653299  47.7423573
  23.1100821  42.3744535  48.5091543  22.0997047  40.3995800  48.0389786
  21.6701269  39.8849630  47.2835112  22.3340273  39.6853328  49.2837381
  21.7848325  40.3610992  49.9393511  21.6861844  38.2982588  49.1894436
  20.6253982  38.4398246  48.9825726  22.1023774  37.8162766  48.3048105
  21.8603969  37.4253154  50.4228830  22.8985548  37.3128963  50.7354403
  21.3197541  37.8999758  51.2417221  21.3492870  36.0056996  50.2168131
  21.3235474  35.4394960  51.1478615  20.3478336  36.0397553  49.7878265
  22.1827531  35.1981449  49.3152857  23.0005670  35.5997586  48.8794136
  22.1460819  33.9367270  49.1248226  23.1029344  33.4522820  48.4251690
  23.8608003  33.9802337  48.0165100  23.0439544  32.5099373  48.0665493
  21.1869240  33.1129694  49.5563793  20.5764651  33.5116982  50.2552748
  21.1962366  32.1161985  49.3936968  23.7962818  39.6033454  49.7840118
  24.6160841  39.2847896  48.8901901  24.1157126  39.8529077  51.0236788
  23.2734013  40.6946850  51.8923092  22.7581382  40.0074434  52.5633574
  22.8161860  41.5023804  51.3207531  24.2485213  41.4563751  52.8047752
  23.7011456  41.6201019  53.7330389  24.6096587  42.3775721  52.3475313
  25.2800441  40.3876591  53.0120230  24.8800969  39.7702193  53.8163280
  26.2109089  40.8458281  53.3461952  25.4203749  39.7730350  51.6255713
  26.1158681  40.3850698  51.0512781  25.9192061  38.3317065  51.5803289
  25.1388359  37.3854661  51.7102337  27.2439504  38.1392241  51.4009571
  27.8050804  38.9729333  51.3001633  27.8039265  36.8500757  50.9815645
  27.1715069  36.0480690  51.3622618  27.9358459  36.7035055  49.4990540
  26.9535732  36.9070530  49.0726614  28.7101865  37.4162912  49.2154551
  28.4064746  35.4623079  49.1562223  28.4811425  35.3354836  48.2075691
  29.2200375  36.6050053  51.5582180  29.8842001  37.5229883  51.9628382
  29.5398736  35.3648829  51.8397141  28.8780117  34.6550059  51.5602303
  30.8390045  34.9267769  52.3050928  31.3275433  35.7931757  52.7509403
  30.6829834  33.9750743  53.5144997  31.6470146  33.6625671  53.9158535
  29.8887014  34.6048641  54.7032309  30.2767205  34.1954732  55.6359339
  30.0987768  35.6739187  54.7362757  28.8135266  34.5198703  54.5455122
  30.0407720  32.7900290  53.2216835  30.7771516  32.1819401  53.1238317
  31.6722274  34.2576909  51.2059164  32.8593373  33.9972329  51.3848877
  31.0817909  33.9975309  50.0591898  30.1552606  34.3914366  49.9786997
  31.5929842  33.2441950  48.9252710  31.9686103  32.3586440  49.4379282
  30.5044627  32.7631640  47.9537868  29.8687029  32.0811844  48.5184240
  29.9338841  33.6085653  47.5692940  31.0976100  31.9518590  46.7302561
  30.2193141  31.5240121  46.2468863  31.6229820  32.6715755  46.1024904
  31.9545054  30.7366705  47.0560074  31.6517234  30.0458598  48.0684280
  32.9679847  30.4692793  46.3581753  32.7425241  34.0443873  48.2115364
  32.5481248  35.0403428  47.4561548  33.9714956  33.5733509  48.3796501
  34.0965152  32.7315354  48.9235449  35.1778507  34.2566872  47.9525661
  36.0113406  33.6989021  48.3794975  35.2009487  34.2392778  46.4264107
  34.7264075  33.3181000  46.0882711  34.6232581  35.1195097  46.1443281
  36.5876865  34.2822075  45.8524942  37.3945498  33.1691074  45.6713533
  38.5865307  33.6446953  45.1863670  39.4515967  33.0779099  44.8752117
  38.6448312  34.9623346  45.2702856  39.4435191  35.5358648  45.0394964
  37.3382473  35.3985238  45.5969191  37.0155501  36.4090014  45.7999039
  35.4619789  35.6140924  48.6127758  36.1855054  36.4184499  48.0409908
  34.9820852  35.7526350  49.8607731  34.4667077  35.0426149  50.3611326
  35.3838491  36.9420958  50.6948566  35.1431870  37.8261685  50.1044369
  34.7485018  37.0459437  52.0811176  33.6736679  36.9057488  51.9663191
  35.0537658  36.2213516  52.7252913  35.1555824  38.3005238  52.6400566
  35.0316811  38.3308005  53.5915470  36.8985462  36.9338703  50.8035564
  37.4819040  35.9683633  51.3415146  37.5541663  38.0220985  50.3830147
  36.9605327  38.8030744  50.1426411  38.9712739  38.2820916  50.5602694
  39.5822263  37.5040984  50.1024818  39.2633653  39.6585393  49.9484825
  38.5211253  40.3104639  50.4091072  40.2671623  39.9816489  50.2243376
  39.0532613  39.7752428  48.4739065  39.1083694  38.7246561  47.6526880
  39.4055653  37.7109218  47.8772211  38.7998438  39.1155291  46.4016867
  38.6722279  38.3765006  45.7251835  38.5746503  40.5009556  46.3570547
  38.0453253  41.3177538  45.3417397  37.8676200  40.9502792  44.3418455
  37.6185560  42.5854969  45.6584787  37.2803712  43.2398272  44.8686171
  37.7402639  43.0807161  46.9660473  37.5319910  44.1138506  47.2019577
  38.2643533  42.2216082  47.9774714  38.4400034  42.5846100  48.9793587
  38.5912514  40.9025860  47.6973724  39.4573116  38.2957625  52.0449781
  40.6779766  38.2922244  52.3430490  38.5075498  38.3393478  52.9958248
  37.5449967  38.3859205  52.6934624  38.6400223  38.3092856  54.4891787
  39.6619940  37.9871535  54.6889400  38.5415649  39.7180080  55.1306438
  37.5347757  40.0417662  55.3945637  39.0801477  39.7645783  56.0771465
  39.1213870  40.8658218  54.2485523  40.4842091  41.0872221  54.2258024
  41.0146713  40.3697824  54.8343229  41.0291147  42.0659828  53.3530331
  42.0777130  42.3175144  53.2932234  40.1799202  42.8816175  52.5876808
  40.5430365  43.6158991  51.8838453  38.8126135  42.6243258  52.5532198
  38.2587838  43.2076883  51.8325520  38.2781672  41.6336393  53.3879948
  37.2382140  41.3484955  53.3280230  37.6029325  37.4591780  55.2303267
  36.4744759  37.9059386  55.4047489  38.0003953  36.2340879  55.6685543
  39.3506002  35.6268668  55.5081940  39.9416304  36.0061812  56.3418055
  39.6833777  35.9249330  54.5139503  39.1612458  34.2098856  55.5448771
  40.0227213  33.6216593  55.8610296  38.7507701  33.8387251  54.6058083
  38.1240487  34.0366220  56.6569614  38.6454725  34.1107965  57.6112747
  37.4929476  33.1499505  56.5967655  37.2256637  35.2575421  56.4933729
  36.3524723  34.9215984  55.9341002  36.8465161  35.8869457  57.8541946
  37.6787734  36.5760088  58.5256243  35.6594753  35.5270648  58.2613945
  35.3490853  34.6482468  57.8722382  34.8806977  36.1780214  59.3247652
  34.3241382  35.3466010  59.7572994  35.5611038  36.6062164  60.0608349
  33.8258386  37.2071576  58.9231920  32.9891729  37.4755263  59.8127079
  33.9554596  37.8190899  57.7633953  34.5318508  37.3863363  57.0558643
  33.1950688  38.9995337  57.3059559  32.4884176  39.3448734  58.0606031
  34.2281628  40.1633835  57.2247982  35.0390172  40.0119734  56.5122747
  33.6359286  41.0276079  56.9240046  34.8579025  40.6775999  58.5426569
  36.0258532  40.1732206  59.1038275  36.4416385  39.3452501  58.5488605
  36.5818954  40.6691122  60.3269053  37.5529385  40.3663826  60.6899881
  35.9446859  41.7783737  60.9473228  36.5894079  42.5576258  61.8727207
  36.1315918  43.3287811  62.2152424  34.7790337  42.3509789  60.3946304
  34.2800927  43.2120419  60.8141947  34.2795110  41.7424011  59.1767216
  33.3926415  42.2170305  58.7835455  32.5576234  38.8099170  55.9094143
  33.2409763  38.4646368  54.9525642  31.2491775  39.0610695  55.8402538
  30.9331822  39.5019984  56.6922092  30.3601480  38.9237571  54.6619225
  30.6277943  38.0859494  54.0180635  28.9193988  38.9048553  55.0974846
  28.8083911  38.1736541  55.8981848  28.6280799  39.8869944  55.4698229
  28.3035231  38.4936595  54.2976618  30.5689764  40.1999378  53.8288260
  30.4736805  41.3079977  54.3703222  30.8623910  40.0856590  52.5549269
  30.6546974  39.1788864  52.1615648  30.8960485  41.1977434  51.6146803
  31.3804913  42.0618773  52.0693207  31.7896795  40.9504890  50.3627539
  31.7586470  41.8212986  49.7079039  32.8288770  40.8760595  50.6831074
  31.4866710  39.8125172  49.3531370  32.1373224  38.6130023  49.3606234
  32.9263186  38.2861018  50.0217009  31.5376329  37.8205514  48.3661652
  31.8014741  36.8508315  48.2654953  30.5439854  38.5151243  47.6507092
  29.7020817  38.0511618  46.6767740  29.8449111  37.0766544  46.2336731
  28.7326813  38.9548397  46.2077618  27.9880238  38.6478281  45.4883003
  28.6804819  40.2282572  46.7400742  27.9198742  40.8549786  46.2983704
  29.5719457  40.6894016  47.7335739  29.4681120  41.6855621  48.1376553
  30.5206919  39.8064208  48.2481813  29.4737387  41.5722513  51.0969877
  28.6195064  40.6888628  50.9356689  29.3055654  42.8849030  50.7787085
  30.0136423  43.5131407  51.1309147  28.1395602  43.4601355  50.0759649
  27.6122046  42.6137161  49.6359968  27.1707249  44.1429234  51.0328531
  27.5598192  45.0908375  51.4045620  25.8003998  44.4258690  50.3334665
  25.8170152  45.2037621  49.5701218  25.3550291  43.5089588  49.9474382
  25.1420951  44.7380686  51.1441851  26.9175291  43.3135080  52.1358967
  27.7352118  42.9799509  52.5123739  28.5568595  44.5536566  49.0529299
  29.2958498  45.4851055  49.4177771  28.0732608  44.4127560  47.8192186
  27.5355005  43.5698557  47.6762819  28.3864212  45.2454567  46.6118860
  29.4759059  45.2757168  46.5976000  27.7748847  44.6069479  45.3422642
  26.7343307  44.4051933  45.5965185  27.8123903  45.5193043  44.0672159
  28.8301754  45.8567762  43.8714314  27.3529148  45.0644779  43.1896544
  27.0629478  46.2754345  44.3010998  28.6698651  43.3921432  45.0235271
  29.7416806  43.5700274  44.9359512  28.6358476  42.7200127  45.8809566
  28.3229113  42.8488731  44.1445637  27.8115296  46.6391516  46.8426943
  26.7723918  46.8038130  47.4384117  28.6540174  47.6645470  46.5862560
  29.5841479  47.3833561  46.3107729  28.3588552  49.0677166  46.8681431
  27.3047924  49.2130852  47.1046162  29.2454338  49.4323540  48.0568695
  29.1546440  50.4589319  48.4118414  29.0780473  48.8245821  48.9460802
  30.2554560  49.1833735  47.7313519  28.8218117  49.9919271  45.7706499
  29.8908663  49.8047018  45.2275419  27.9049659  50.8909464  45.3751612
  27.1547604  51.1224174  46.0105467  27.9717135  51.7856693  44.1855145
  29.0047598  51.8853283  43.8523674  27.0005631  51.2905312  43.0831003
  25.9843683  51.3965797  43.4628439  27.0292139  51.9590521  42.2226572
  27.1411467  49.8229742  42.6615191  28.1248808  49.8858261  42.1963120
  27.1439767  49.1129494  43.4885406  26.1399484  49.3548203  41.6200590
  24.9722457  49.7732306  41.6224384  26.5260291  48.4168386  40.8252764
  25.7702756  47.9520607  40.3426600  27.4926448  48.1240463  40.8202648
  27.5442863  53.2288742  44.5194817  26.6457772  53.4019899  45.3772926
  28.1678963  54.2170572  43.8368273  28.7424779  53.9956665  43.0362368
  27.8814411  55.6565762  44.0112400  28.3878827  55.8713436  44.9522543
  28.5865927  56.4424944  42.8774166  28.1924367  56.1731863  41.8975115
  29.6657276  56.2941408  42.9169035  28.4131670  58.2349682  43.1798458
  26.3696599  56.0280657  44.2039633  25.5716968  55.7869816  43.3294153
  26.0206366  56.7783546  45.2361012  26.6502762  56.9164848  46.0136414
  24.6104741  57.2147131  45.4171038  23.9224529  56.3693810  45.4052877
  24.5297766  57.8826189  46.8338442  24.5242238  57.1218729  47.6144409
  25.4254031  58.4935999  46.9464111  23.2768130  58.6933136  47.0140171
  23.1428361  59.5328140  46.3318253  22.4604559  57.9723072  46.9714403
  23.2981443  59.2296553  48.4393501  23.2594132  58.3645344  49.1012955
  24.1797066  59.8235321  48.6807203  22.0700741  60.0378370  48.7874460
  21.8656445  60.4994822  47.8214264  21.2608528  59.3693542  49.0813732
  22.2377133  61.1018419  49.7999811  22.5474429  60.8974171  50.7393312
  22.9343939  61.7682552  49.4989300  21.4442205  61.7003250  49.9796724
  24.1839337  58.2060480  44.3091869  23.0641890  58.2326365  43.9023972
  25.1052642  58.9702892  43.7390089  26.0435987  58.8970995  44.1054392
  24.8346066  59.8818922  42.6395035  23.9075065  60.4086685  42.8655481
  25.9812498  60.9007978  42.5039864  26.8877149  60.3648376  42.2226048
  25.7476902  61.9110537  41.3180971  25.7991624  61.3067436  40.4124069
  24.7791982  62.4080849  41.3736248  26.5918756  62.6005745  41.3144207
  26.3190651  61.6610146  43.8070488  26.7795587  61.0013866  44.5425320
  27.0793533  62.3834944  43.5102558  25.2272201  62.5187969  44.5303106
  25.5577970  63.0425262  45.4272652  24.9718285  63.3105898  43.8260746
  24.3559170  61.9249964  44.8065948  24.6253920  59.2033577  41.2824917
  23.6781287  59.4438887  40.5888414  25.6120157  58.3578348  40.8286428
  26.3811445  58.0374336  41.3995171  25.8510900  58.0017662  39.4540858
  25.1222348  58.5079098  38.8210821  27.1992755  58.6360168  38.9768648
  27.2984004  59.5757818  39.5201111  27.1935844  58.8821554  37.9150343
  28.7013888  57.7804136  39.5169258  25.5658793  56.4959192  39.1748571
  25.5237913  56.0884190  37.9982615  25.4733467  55.7282019  40.2543879
  25.4074168  56.1623907  41.1639118  25.5670929  54.2455101  40.4035997
  25.6543922  54.0279770  41.4681005  24.2516494  53.4591722  39.9706364
  24.2058849  53.2958460  38.8939166  24.3966508  52.4659252  40.3955317
  23.3224678  53.8718987  40.3635454  26.8435621  53.6931944  39.7297859
  26.8312287  52.5928879  39.1778588  28.0292392  54.3491030  39.8070049
  28.0391979  55.1778030  40.3843021  29.3885207  53.8046503  39.5150232
  29.2548203  53.1123352  38.6838055  30.3367162  54.9226761  39.1219592
  31.1706948  54.3880415  38.6672640  29.8803878  55.4592800  38.2901430
  30.8854294  55.6056547  40.1902866  30.1994610  56.2251377  40.4496813
  29.9727106  52.8632116  40.5349159  29.6032357  52.7679634  41.6888666
  30.8857822  52.0636129  40.0534534  30.9852052  51.9578791  39.0539360
  31.3287306  50.9724474  40.9529209  30.5179858  50.5617380  41.5546799
  31.7450237  49.8283720  40.0506020  32.5389647  50.2364731  39.4251370
  32.3390722  49.0922022  40.5921316  30.7489157  49.2170095  39.1081285
  29.5200109  48.7133646  39.4765425  28.9025307  48.3581114  38.3587551
  27.9167557  47.9462481  38.2005954  29.6645665  48.5864401  37.2448111
  29.3303394  48.5300732  36.2933826  30.8521652  49.1730738  37.7465224
  31.6801977  49.5801401  37.1852231  32.4017978  51.4619160  41.8832779
  33.5191011  51.6635942  41.4319515  32.1391630  51.6863251  43.1486273
  31.2060714  51.4789486  43.4748650  33.0962992  52.2124290  44.0940475
  33.8253450  52.7212620  43.4634304  32.4856138  53.2838154  44.9754381
  31.6531229  52.8525782  45.5313969  33.6214280  53.8951635  45.8900499
  34.4527769  54.2305756  45.2699947  33.2218218  54.7939777  46.3596773
  33.9209557  53.3065224  46.7571640  31.7143416  54.4643116  44.3084097
  30.8346033  54.0925741  43.7830830  31.3347554  55.1259613  45.0870180
  32.4598122  55.3456402  43.3410740  33.2770801  55.8652544  43.8412523
  32.8414965  54.7692108  42.4983692  31.8256760  56.1501169  42.9685307
  33.8193297  51.0157394  44.7824764  35.0083756  50.8839083  44.6644068
  33.0814052  50.1916456  45.5678034  32.0817423  50.2395725  45.7037354
  33.6384535  48.9939356  46.2643957  34.2032528  48.3797503  45.5630541
  34.3095946  49.3952179  47.0237684  32.6071954  48.0265331  46.9045115
  31.6027284  47.6673365  46.2696457  32.9006386  47.7259350  48.1980562
  33.7660766  48.0259943  48.6235857  32.1912646  46.7781782  48.9932489
  31.1534142  46.7745066  48.6601496  32.8569579  45.3915071  48.7517786
  33.8797450  45.5403376  49.0979815  32.4637556  44.7008181  49.4977283
  32.9826880  44.8851109  47.3743963  32.3125124  43.8150167  46.7096186
  31.5127897  43.2401037  47.1526909  32.7556658  43.6387014  45.4668140
  32.4798298  42.8721571  44.8697996  33.8592219  44.3276119  45.2242327
  34.7217321  44.3861866  44.1467714  34.5311666  43.7001610  43.3346987
  35.8165121  45.2944946  44.1831636  36.4850497  45.3889704  43.3402348
  35.9965396  46.1357689  45.2436304  36.7917705  46.8662786  45.2245378
  35.1161528  46.0335779  46.3605261  35.4218316  46.6963577  47.1565676
  34.0343928  45.1202393  46.4324713  32.2040176  47.0669794  50.5384398
  33.2349634  47.4544668  51.1638212  31.0975671  46.8370914  51.1559534
  30.3558898  46.5257788  50.5451345  30.8972144  46.8239212  52.6520443
  31.4766788  47.6705885  53.0201197  29.4046450  47.2092581  52.8973103
  29.2144322  48.1376266  52.3587418  28.7788320  46.3933039  52.5358200
  29.3966556  47.5384188  54.4435883  29.5283985  46.6328907  55.0358486
  30.2206230  48.1879807  54.7389603  28.0059409  48.1383610  54.7920227
  27.9890108  49.0489292  54.1931248  27.2303462  47.4486780  54.4590235
  27.8655028  48.3311653  56.3123369  28.1657791  47.3927164  56.7784309
  28.5370755  49.0954685  56.7034006  26.5363407  48.5596466  56.7212391
  26.0228658  47.6901627  56.7422628  26.6259742  49.0412331  57.6044941
  25.9899545  49.2498636  56.2261057  31.3536525  45.4651403  53.2294178
  30.9136581  44.4747734  52.6781416  32.0570612  45.4666233  54.3369770
  32.1662641  46.3232088  54.8608446  32.4750328  44.1716766  55.0537491
  32.0269775  43.3030701  54.5711899  34.0117478  43.9700747  55.1361036
  34.5083141  44.8705864  55.4974937  34.3053055  43.2190514  55.8695126
  34.6084619  43.5672808  53.7922668  35.1972103  44.5196581  52.8460503
  35.2529526  45.5761290  53.0632162  35.6262064  44.0991592  51.5808773
  36.0205364  44.8626423  50.9266567  35.3062701  42.7661037  51.1784649
  35.6389880  42.4189901  50.2114058  34.7804856  41.8610811  52.1027231
  34.7693586  40.8047247  51.8782282  34.4633222  42.2220230  53.4224701
  34.3120146  41.3955975  54.1010904  31.9327521  44.0988350  56.4612007
  32.2134185  44.9859190  57.2792578  31.2712455  43.0704784  56.9307566
  31.0552669  42.2860670  56.3322878  30.5466795  43.0817747  58.1990671
  30.9985423  43.7886095  58.8949823  29.0731525  43.3748531  58.0303621
  28.5563254  43.1994200  58.9738750  28.7407231  44.8117685  57.6631165
  27.6599836  44.7380686  57.5419998  28.9914441  45.4478645  58.5120153
  29.3882203  45.0769234  56.8273258  28.5360265  42.5150061  57.1584797
  28.6645651  41.6550589  57.5653744  30.6765270  41.6948748  58.7423897
  30.4414558  40.7021236  58.0372429  31.0154510  41.6082525  60.0395679
  31.1179900  42.4525642  60.5843019  31.2637973  40.3518677  60.8053970
  32.1166134  39.9185014  60.2829075  31.6646743  40.7557106  62.2300053
  32.4254298  41.5324211  62.1520519  30.7955527  41.0798454  62.8024292
  32.1585226  39.9093580  62.7073956  30.0865793  39.3348980  60.7644558
  28.9503574  39.7651672  60.6860733  30.4760933  38.0445433  60.8111620
  31.4649391  37.8909039  60.6744862  29.5626211  36.8582797  60.8426142
  28.5502362  37.2620845  60.8315372  29.6999955  36.1103201  59.5350075
  28.8719678  35.4192615  59.3771839  29.8606777  37.0068026  58.2165766
  30.7311678  37.6265717  58.4315872  29.8617983  36.3564372  57.3418665
  29.0041614  37.6808047  58.2307959  31.0078478  35.5121160  59.5681572
  31.0082340  34.8009610  60.2130270  29.7207737  36.0135937  62.0541430
  28.9661098  35.0605321  62.3006344  30.8008075  36.2167001  62.8383732
  31.4520764  36.9730210  62.6836824  30.7612991  35.7376146  64.2018986
  30.2858615  34.7580504  64.1517830  32.2021651  35.5578208  64.7083044
  32.6235676  36.5243220  64.9847126  32.1028304  35.0671411  65.6765366
  33.1711388  34.7351217  63.8903236  32.8440046  33.7024927  63.7688255
  33.2541561  35.1814413  62.8993607  34.4964242  34.7119880  64.7031784
  34.9022985  35.7175303  64.8139048  34.3321490  34.1776061  65.6388855
  35.5321264  33.8541150  63.9713717  35.0614715  32.8907609  63.7750435
  35.8066273  34.3439078  63.0371046  36.7229605  33.7285495  64.7682571
  36.6071057  33.1706476  65.6021786  37.5108075  33.3186960  64.2871904
  36.9547367  34.6332765  65.1527739  29.8549604  36.6392946  65.0902176
  29.9079251  37.8564835  65.0873661  29.0751171  35.9088540  65.9376001
  29.2363000  34.9375105  66.1625671  28.2946610  36.5421343  66.9552660
  27.5137901  37.0357895  66.3767815  27.5400567  35.3999782  67.7793217
  26.9428420  34.8521495  67.0504045  28.1804895  34.6775222  68.2852888
  26.6560793  35.9142709  68.9400768  27.2604489  36.3814235  69.7176409
  26.0186028  36.6785622  68.4955692  25.7349253  34.8355150  69.5850468
  25.0791550  34.4646430  68.7973166  26.3368535  34.0085864  69.9618387
  24.8653793  35.4503226  70.6341457  25.5144477  35.7932615  71.4398766
  24.2323351  36.2804151  70.3206158  23.9953852  34.3871593  71.1852598
  24.6089602  33.6783075  71.5609646  23.4190750  34.6063089  71.9852209
  23.4416389  33.8421321  70.5399561  29.0400648  37.5667667  67.8678513
  28.3706951  38.5646725  68.1930208  30.3407407  37.3882341  68.1517839
  30.7483864  36.5318608  67.8045750  31.1630559  38.4362769  68.7883091
  30.7600045  39.4369793  68.6325932  31.1845827  38.1538773  70.3133297
  30.1692247  38.2818413  70.6885290  31.5593100  37.1662354  70.5821085
  32.0482183  39.1805577  71.0454512  32.7013516  38.7641716  72.0113564
  32.1232486  40.3844404  70.6974888  32.6129365  38.4609795  68.2525587
  33.3810472  37.4987221  68.4953213  32.9683423  39.5427847  67.5567913
  32.1985459  40.1630926  67.3500729  34.3355203  39.9260020  67.1601439
  35.0827217  39.8475194  67.9498529  34.8551369  39.0380168  66.0045290
  35.9179187  39.2240477  65.8496428  34.7393012  37.9865885  66.2675476
  34.0776134  39.3045855  64.6882915  33.0123472  39.1689014  64.8751020
  34.2123365  40.3490114  64.4070053  34.3538475  38.4379268  63.2236052
  36.1777091  38.7088275  63.0506086  36.4867401  38.4696341  62.0330667
  36.4162827  39.7218513  63.3745956  36.7737889  38.0533242  63.6855173
  34.3770862  41.4132977  66.7180777  33.2743573  41.9363546  66.3401413
  35.5272317  42.1046495  66.6452932  36.3802242  41.5824366  66.7860079
  35.6668878  43.5450506  66.7501783  34.7821569  44.0235424  66.3301849
  35.8132005  43.9407063  68.2263184  34.8605084  43.8073444  68.7388563
  36.5556979  43.2838726  68.6794901  36.0844684  45.3376818  68.3432865
  36.1295915  45.5012369  69.2881775  36.9556808  44.0320873  66.0601234
  37.9593515  43.3165646  66.0760689  36.9080424  45.1674271  65.3336859
  38.0846357  45.9157085  64.8161554  38.7297487  45.3353119  64.1565609
  38.8142514  46.2118864  65.5698395  37.6069617  47.1964121  64.1773939
  38.1330442  47.5732899  63.3002949  37.5707626  47.9650021  64.9494410
  36.2261629  46.8219566  63.7988186  36.3443279  46.2411070  62.8840828
  35.5205798  47.6354742  63.6301517  35.6929636  45.8756828  64.8320675
  35.2282166  46.4341640  65.6446028  34.6652389  45.0243807  64.1343784
  35.0331330  44.1166162  63.4138250  33.3619905  45.3218889  64.2245150
  33.1537962  46.1902761  64.6963978  32.2548938  44.5324564  63.7860680
  32.3856354  43.4618425  63.9435339  31.0140491  44.9724150  64.5668650
  30.8800697  46.0448408  64.4252586  30.1407719  44.4695711  64.1513729
  31.1326003  44.5441723  66.0434580  31.4373827  43.5002232  66.1167955
  31.8746519  45.0520706  66.6594934  29.8029232  44.7991514  66.7338085
  28.8488913  45.2662945  66.1428690  29.7612786  44.8575878  68.0622339
  28.9690828  45.3485012  68.4515095  30.5483675  44.6137810  68.6463070
  32.0149755  44.6900988  62.2503042  31.4517403  43.8298368  61.6097403
  32.4447465  45.8492517  61.6893435  32.8990412  46.4639616  62.3495340
  32.3005581  46.2434769  60.3010845  32.2996664  45.3361845  59.6970034
  30.9105492  46.7322826  60.1294565  30.6424356  46.8305492  59.0775251
  30.1856446  46.0632658  60.5931711  30.6263590  48.1516981  60.6882095
  30.7026720  48.1175423  61.7750025  31.3339639  48.8848305  60.3010225
  29.2214799  48.4958792  60.3639078  29.0208507  48.5652304  59.2947817
  28.5436487  47.8089762  60.8706760  28.9830756  49.9186325  60.9654665
  29.9257851  50.4468060  61.1083937  28.2945395  50.4611635  60.3176403
  28.2974458  49.8438072  62.2806835  28.9267755  49.5403051  63.0100203
  27.8217435  50.6660938  62.6236868  27.6435924  49.0747166  62.2478485
  33.3771276  47.1977425  59.8088455  33.9459848  47.9853868  60.5240870
  33.5813618  47.0762968  58.5160255  33.1068802  46.3579702  57.9878473
  34.4559622  47.9383564  57.7500391  34.4305921  48.9671183  58.1093550
  35.9626484  47.5312233  57.9648685  36.6746712  48.2453108  57.5510979
  36.0393596  47.5978231  59.0501261  36.2910366  46.1352634  57.4084187
  36.1253309  44.9612856  58.1665564  35.9018850  45.0568008  59.2188644
  36.3480949  43.7237263  57.4932671  36.2291837  42.8605604  58.1313944
  36.9032931  43.5420942  56.2391520  37.0996737  42.5972080  55.7543516
  37.2229123  44.7348833  55.5564642  37.7698183  44.6552277  54.6285915
  36.8854785  46.0197401  56.1273146  37.0276451  46.8982983  55.5154848
  34.0288162  47.9647732  56.2118530  32.8807020  47.6352739  55.8210945
  34.8693109  48.5201263  55.3801823  35.6700468  48.8999796  55.8645773
  34.7937322  48.7666845  53.9694643  34.0714788  48.0191326  53.6414146
  34.4088697  50.2448940  53.6801577  35.2481031  50.8482027  54.0262938
  34.4809008  50.4308224  52.6085520  33.0949998  50.7509804  54.1949797
  32.9317904  51.3441277  55.4018879  33.6952472  51.5171814  56.1459255
  31.6220498  51.5018892  55.6522131  31.2459564  52.1225548  56.3546562
  30.8460402  51.2782145  54.5723820  29.4915414  51.5753222  54.2021942
  28.7673497  52.1084452  54.8002958  28.9927053  51.2352085  52.9264593
  27.9430866  51.3754702  52.7142477  29.8484421  50.6776714  51.9603157
  29.4846892  50.4333544  50.9732056  31.2115264  50.4292727  52.3390627
  31.9475913  50.1584816  51.5965796  31.7482519  50.6963396  53.5867834
  36.0658479  48.4911633  53.2370043  37.1795583  48.6682892  53.7165833
  36.0130239  48.1027651  51.9462156  35.1161909  48.0194378  51.4892149
  37.1249390  48.1574917  50.9187365  37.9107165  48.8006353  51.3149929
  37.5164795  47.1404409  50.8987093  36.6747451  48.6579895  49.5670414
  35.5735970  48.3705568  49.0441656  37.4743128  49.6119881  49.0435696
  38.3346772  49.5949650  49.5723248  37.0830655  50.5163479  47.9520559
  36.1585546  50.1193476  47.5328112  36.8325353  51.9865990  48.4322596
  37.8604126  52.2933149  48.6259127  36.3650799  52.4963856  47.5898218
  35.9254909  52.0654297  49.6853065  36.2915421  51.4596415  50.5142450
  36.0516167  53.5256290  50.0718498  35.5807042  54.1109848  49.2821074
  35.5375671  53.5521078  51.0326576  37.0935583  53.7401772  50.3094053
  34.4106269  51.7028904  49.4515228  34.1478658  50.6450987  49.4630957
  33.8932753  52.0816231  50.3330040  33.9774036  52.1923304  48.5792446
  38.1068921  50.5001450  46.8302011  39.3134570  50.4134274  47.0493603
  37.6668620  50.6783342  45.6306648  36.6642714  50.7983780  45.6082201
  38.5098290  50.5799818  44.4277239  39.1972470  49.7671604  44.6619844
  37.7143407  50.1637506  43.2342386  37.1886802  51.0963488  43.0291891
  38.4359407  49.8682737  41.8857288  39.2450261  49.1561460  42.0480633
  37.6108384  49.5557547  41.2456989  38.8725448  50.7661200  41.4482832
  36.7560387  49.1773415  43.4626007  36.2578082  49.5662689  44.1851759
  39.3300152  51.8735123  44.2793703  38.8099313  52.9637098  44.0389252
  40.6348562  51.7652988  44.3334198  40.9850693  50.8885431  44.6922302
  41.5855503  52.8653145  44.2239714  41.4251232  53.3703041  45.1765156
  43.0201674  52.3304367  44.3011427  43.0684900  51.6886234  45.1808310
  43.3368444  51.8059921  43.3996010  44.0782356  53.4136391  44.6314001
  43.6898899  53.9903784  45.4708385  44.9080944  52.7986240  44.9795294
  44.6000671  54.3439531  43.5398436  43.7442589  54.9756622  43.3018494
  45.3929424  54.9847984  43.9255428  45.1509047  53.5693932  42.4389362
  45.2945900  52.5874662  42.6267385  44.9353361  53.8454151  41.1982536
  44.4920206  55.0235653  40.8503580  44.4465446  55.7595110  41.5405846
  44.2098856  55.1853132  39.8941469  45.1798820  52.9176998  40.2806759
  45.5062294  51.9906521  40.5134487  45.1096058  53.1788921  39.3075681
  41.2959671  53.7429190  42.9947996  41.3900328  54.9429750  43.2220984
  41.0298634  53.1325769  41.8517876  41.2407255  52.1493959  41.7569637
  40.8367300  53.8832712  40.5747604  41.5554285  54.7019529  40.6113338
  40.9924603  52.9118633  39.4183898  40.5019808  53.3464909  38.5473943
  42.0475292  52.7294111  39.2143154  40.3293896  51.6656065  39.7479534
  40.2930164  51.1623335  38.9312577  39.4638801  54.5152807  40.4727554
  39.2123675  55.5862951  39.8190403  38.4529281  53.9330101  41.1463308
  38.6555171  53.0919933  41.6676235  37.0760131  54.5350361  41.2719917
  36.5308952  54.7014284  40.3428745  36.1621261  53.5676765  41.9678926
  35.1145244  53.8674784  41.9404888  36.2794375  52.6254511  41.4325857
  36.4835477  53.4494686  43.0026960  37.0455718  55.8772850  42.0733261
  36.1732841  56.7258692  41.8958759  37.8841376  55.8860970  43.1516457
  38.5643268  55.1401281  43.1828070  37.9918051  57.0259857  44.0628290
  36.9779086  57.4040794  44.1938543  38.6103797  56.6054964  45.4265165
  39.6215796  56.2723494  45.1928663  38.6303639  57.3824453  46.1907482
  37.8516507  55.4890442  46.1310005  37.5275898  54.7283936  45.4207230
  38.7274480  54.8892879  47.2475243  38.1487942  54.3110991  47.9679060
  39.2904735  54.1528797  46.6741085  39.2361522  55.7260180  47.7262735
  36.6265202  56.0568142  46.7954636  35.7995367  56.2427473  46.1101723
  36.2414742  55.4388523  47.6066208  36.7875886  57.0802212  47.1342754
  38.8514519  58.2031012  43.4998274  39.6432137  57.9698467  42.6525545
  38.7591147  59.4092178  44.0503454  38.2001376  59.4380856  44.8910666
  39.6979809  60.5462933  43.8113260  40.6729794  60.1125574  43.5891819
  39.2367959  61.2902784  42.6120901  38.9731240  60.6624556  41.7609644
  37.9052520  62.1056032  42.8339911  37.1672273  61.3884354  43.1932735
  38.1343055  62.8815174  43.5644627  37.6187181  62.6254368  41.9197798
  40.4291821  62.1345568  42.0555305  40.7259226  62.8538609  42.8188419
  41.2285614  61.4133358  41.8854427  40.3559542  62.9930782  40.8494329
  39.5654416  63.7399435  40.9228182  41.2249041  63.6483574  40.7891512
  40.1924038  62.4522638  39.9173021  39.8214579  61.4487123  45.0875139
  38.7488270  61.5983152  45.7221270  41.0315228  61.8046665  45.5512667
  42.3569918  61.3112926  45.1755190  42.5006104  61.3350582  44.0952873
  42.4003601  60.2709627  45.4979181  43.3915138  62.1006107  45.9606791
  43.7759399  62.9047728  45.3332758  44.2794704  61.5477848  46.2673092
  42.5891638  62.6259995  47.1297979  43.0416584  63.5641289  47.4511480
  42.6496744  61.8088913  47.8486681  41.1868334  62.7876759  46.6273928
  40.4744720  62.7176285  47.4494219  40.9975386  64.1874361  46.1206913
  41.6513491  64.6205187  45.1451969  40.0480700  64.9454832  46.7573786
  39.4921422  64.5839071  47.5191593  39.6623111  66.3291073  46.2274885
  40.1621485  66.4962912  45.2733850  38.1276655  66.4802885  45.8828640
  37.6206589  66.4151239  46.8455696  37.6056170  67.7791739  45.2360821
  38.1375098  68.0260134  44.3172455  36.5313983  67.7734232  45.0513506
  37.8049064  68.5420799  45.9886456  37.7177072  65.4227686  45.0429106
  37.3584056  64.7574997  45.6344461  40.1186371  67.4140310  47.1626282
  40.8948612  68.3729124  46.8016148  39.5871115  67.3214149  48.3454800
  29.6357346  59.3333244  41.4624453  34.1705394  40.0916195  45.2966309
  33.3308363  40.5565262  46.5676928  34.2223692  41.2814856  47.6533604
  35.3686094  40.2574873  48.0776548  35.7889438  39.4197202  47.0828199
  35.4527354  39.3405247  45.7703400  32.8485250  38.0140543  42.5202417
  32.6530051  37.1031499  43.5740805  33.0501199  37.7672195  44.9090195
  33.3478522  39.1534543  44.3867588  33.3730912  39.2509913  42.9980087
  31.9811034  36.3349724  40.9629154  31.6443181  35.5155230  42.0160532
  32.1543503  35.8156300  43.3306551  32.5412750  37.5875211  41.2599707
  33.7651920  40.1457119  42.3093796  32.0151353  34.8505878  44.2895317
  36.0807323  38.6170626  45.0398779  35.5469036  40.0439215  49.2371225
  34.5822072  40.9943199  44.8253012  36.4303493  38.6842752  47.3553944
  31.8835306  36.1134911  39.9042296  31.2665105  34.5231104  41.7885160
  32.6811910  38.2173491  40.3863955  33.8976312  37.1817255  45.2868748
  32.1978331  37.7746916  45.5999613  32.0192409  35.0106978  45.2881670
  32.1126962  33.8815284  44.0168810  32.8199959  39.7307825  47.0801163
  32.4847722  41.1595201  46.2127781  33.7512088  41.6893530  48.5572624
  34.6457982  42.1071291  47.0664978  78.8804293  50.4429197  39.8133612
  58.8061380  22.9691243  48.9262867  54.1698980  53.0428886  24.6916437
  16.2114072  60.8481407  36.2709904  47.2042990  19.1015565  36.2641168
  33.6892414  59.0627766  64.2115736   1.5981444  36.5924239  25.4236293
  46.0057688  54.6897030  10.9038901  80.3220912  77.0157035  46.1129882
  79.9768278  77.9059061  46.0454109  79.7177574  76.5687712  46.7056682
  12.2083999  17.2358925  19.0789726  12.8595687  16.5705664  19.3015602
  11.4100982  16.9471009  19.5211818  79.0074846  71.6411622  29.4527176
  78.2162019  72.0044502  29.0550640  79.0977165  72.1129163  30.2806881
  33.6604476  25.6718373  62.6459837  33.6725807  26.6214132  62.5260258
  32.7543640  25.4195285  62.4682570  10.5689098   3.6271365   4.9880817
  11.1050798   4.0304644   5.6707790  11.2004281   3.2047493   4.4058349
   3.2918196  73.4688457  49.7820594   3.3156757  74.4128807  49.9384620
   3.9795618  73.3159669  49.1340854  51.4533424  36.6474819  73.9264154
  51.5237474  35.9517002  73.2728386  50.7724619  36.3440442  74.5268822
  80.6299945  69.9872168  32.1324852  79.6904680  70.0280984  31.9540146
  80.7054731  70.1871761  33.0655220  24.0719129   1.7325671  48.5650661
  23.4984924   2.0465071  49.2642429  24.9531795   1.7895539  48.9343288
  70.3430864  68.6252292  34.8123577  69.4405648  68.3513053  34.9756076
  70.5955573  69.1016730  35.6032398  59.6559760  85.0381001  15.2139404
  59.5894786  85.1193436  16.1653640  60.5724784  84.8113020  15.0563934
  25.0771388  72.6668127  41.8661049  25.3875073  71.9543870  42.4249866
  24.9067220  72.2512635  41.0208156  57.7416297  68.7188562  15.7664802
  56.8779847  68.8938840  16.1402633  58.2964155  69.4210251  16.1061790
  79.3957588  58.8044938   6.1412647  79.8015949  59.6604784   6.2784317
  78.6490652  58.9823266   5.5693748  85.9492656  62.1310159  47.0919826
  85.8428737  61.5010603  47.8047683  86.1169740  61.5919717  46.3189724
  82.7267265  41.4260578  68.1329012  82.0891476  41.2651634  68.8284826
  82.3735619  42.1750832  67.6528406  32.8498365   9.2327054  19.3000534
  33.2978393   9.9338849  18.8268974  33.3935501   8.4588416  19.1525867
  11.5585833  49.1276660  23.3971622  11.0881262  48.7004658  24.1129806
  11.8587761  49.9569829  23.7691047  88.0127880  59.6910163  25.3467682
  88.7703153  59.9445959  25.8741024  88.3806201  59.4642278  24.4926670
  39.2021779  78.8245280  66.9944000  39.8702935  78.6399425  66.3342619
  38.6444501  78.0465985  66.9947481  19.6620445  62.6505192  50.1327255
  19.6555500  63.4083446  49.5480087  19.1943531  61.9702121  49.6482876
  89.4961422   7.5511248  39.6945694  88.8261574   7.4134285  40.3641918
  89.6367138   8.4979184  39.6875312  75.5593702  53.3144184  27.2272899
  75.6144353  54.0404197  26.6059044  74.7977277  52.8107061  26.9402340
  90.0423448  14.0992959  33.4618213  90.9606235  13.8363440  33.3997562
  89.9210232  14.7175629  32.7412155  16.2944843  12.7083046  32.8028896
  16.6471960  11.8609316  33.0745151  15.9066535  13.0725033  33.5986068
  73.3848020  60.1825925   8.0408790  73.0498144  60.4540225   7.1862724
  74.3340274  60.1424499   7.9243210  68.8178131  80.5196961  41.3148906
  67.9393121  80.1519712  41.2187412  69.2716738  80.2692707  40.5101898
  18.2603737  66.8481263  11.7884472  19.0064939  66.7986806  11.1908748
  17.5024101  66.6374882  11.2431457  76.4961740  58.7280258  17.0975425
  76.5067359  59.4803782  16.5058639  75.9015962  58.1041177  16.6810730
  79.2720577  78.9454015  30.1820305  79.4853422  79.8700818  30.3073719
  79.5313856  78.5264214  31.0026672  74.1983700  38.7773347  61.2503481
  74.9285364  38.9813519  60.6659985  74.3304777  39.3483639  62.0071220
  19.6282674  24.8215802  32.6652839  19.2769863  25.5834849  33.1260803
  18.9365436  24.5724375  32.0523575  24.2060471  48.9988995  66.5226507
  23.3778524  49.0909481  66.0516405  24.0702748  48.2487679  67.1015310
  70.5124092  44.0233517  70.3795242  69.9689674  43.2997417  70.0675964
  70.0024796  44.4182539  71.0868120  28.7521888  13.0517561  20.2336815
  28.2699300  13.6185439  19.6316745  28.8968421  13.5939772  21.0091236
  28.0253577  13.8315785  72.3291016  28.7071848  14.2856705  71.8339825
  28.4265041  13.0000913  72.5819731  90.5419895  67.6443442  17.5262382
  90.8189365  68.5498126  17.6664474  90.5509159  67.2531541  18.3998039
  16.1890249  65.5595001  14.9273327  15.6660776  65.3617009  14.1503933
  15.5954580  65.4029902  15.6617763   1.6761332  56.6990431  15.1519611
   0.7485800  56.4627858  15.1597145   2.0567350  56.1526032  14.4643715
  83.4086009  71.4853176  49.9625995  83.8092967  70.6281193  50.1071003
  82.9170915  71.3855775  49.1473034   4.5826988  76.9081100  39.3160751
   4.7644787  76.7558177  38.3887127   4.0940647  76.1336192  39.5947006
  27.4524356  26.2847216   8.4265163  27.8958942  26.1319334   9.2609241
  27.9236318  27.0207865   8.0361107   1.5479021  52.5112750  55.9072330
   0.6057816  52.6009079  55.7636955   1.6198044  52.0008256  56.7137745
  16.5051700  16.9761021   4.8671701  16.6643669  16.5210659   5.6941059
  15.9918310  17.7459080   5.1123550  50.3490782  41.2631083  68.4760809
  50.3671694  42.1836805  68.2144403  51.2173510  41.1019611  68.8453579
  81.2646457  79.7444662  23.4123256  82.0892402  79.3525680  23.6998966
  81.3228818  80.6578000  23.6928013  25.7398968  55.0407895   2.5563648
  25.0659256  54.3996437   2.3306968  26.5338593  54.7122129   2.1345880
   3.6581685  48.4764893  25.5183056   2.7930881  48.3314164  25.1351288
   3.4873392  48.9898713  26.3079193  75.2600527  24.1502810  71.2786865
  75.4139948  25.0923800  71.3492823  75.6028414  23.7896442  72.0964098
  25.6845498  24.4068813  71.4525509  25.8960676  24.2383933  70.5343437
  25.0151443  23.7572360  71.6672373  78.1908703   7.8740662  65.4016304
  78.9223623   7.7766567  66.0112715  78.5908127   7.8053302  64.5347071
  73.9748022  59.0883490  45.1677158  74.4410201  58.5695442  45.8232429
  73.8240835  59.9324294  45.5932071   7.6918583  69.1873296  17.2654941
   8.1712656  69.9427422  17.6057174   8.1959515  68.9081558  16.5011814
  35.1939298   8.0061657  19.0701034  35.4784442   8.8916810  18.8439491
  35.6450702   7.8121502  19.8917225  61.2471029  69.2893585  16.7412021
  61.3488742  69.0598782  17.6648929  61.6896912  68.5840949  16.2690189
  37.2474147   2.2949440  35.8064010  37.4454547   2.5846131  36.6969612
  36.5553047   1.6427071  35.9150245  77.9887267  81.7417391  17.4261120
  77.0420047  81.8479975  17.5191906  78.2008573  82.1908744  16.6078785
  16.7987396  31.5424807  31.8461731  16.7216493  32.1486933  31.1094310
  15.8989955  31.2714703  32.0285061  64.3804265  -0.2370851  57.9754284
  64.7112085   0.2908595  57.2487285  63.4580232   0.0078280  58.0489853
  90.8318615  35.0063086  65.7008934  90.0558949  35.2270770  65.1857615
  91.2149715  35.8526254  65.9315538  59.3472338  21.5601778  65.1157379
  59.9905348  21.6173029  65.8222294  58.9898729  20.6751490  65.1881886
  18.9453089  38.9752865  59.0405750  19.2942429  38.5742283  59.8365831
  18.2504261  38.3808637  58.7576771  62.9706761  36.0999956   5.8071067
  62.8678605  35.4302617   6.4832046  62.3221942  35.8700748   5.1416423
  44.7584774  18.5302670  16.2995460  44.6684028  17.6847060  16.7390278
  45.7001926  18.7017376  16.3008144  70.5233690  73.4620436   6.3514164
  70.1125547  74.3006285   6.5617492  71.2562724  73.6910447   5.7798889
  60.5458164  21.4317751  61.3717175  60.2775335  20.7013512  60.8142853
  59.7599363  21.6529226  61.8714428  45.6181766   4.5445998   5.4594686
  45.0721599   4.4726880   6.2423637  46.4859392   4.2594225   5.7456424
  27.7755739  26.3157303  25.7766941  27.6068880  27.1252377  26.2588527
  28.7046339  26.1384709  25.9238460  82.8100913  25.7936032  13.4870174
  82.3983591  26.4214022  12.8932312  82.2355192  25.7754834  14.2523697
  79.5860883  77.0099195  14.4751575  78.8569709  76.7270692  15.0270870
  79.9214956  77.7962144  14.9058273  55.9104296  71.0955437  47.7523163
  56.5766498  70.4733499  47.4603203  55.1182004  70.5680307  47.8539589
  78.2210350  41.0599613  68.1047535  79.0864515  41.0520458  68.5136843
  77.6530504  41.4745760  68.7541580  83.0808067  82.3340988  55.9134769
  83.4972191  81.9430923  56.6815567  82.2968483  82.7619553  56.2578201
  14.3216230  20.7275469  13.8009002  14.2094614  21.1667140  14.6439769
  13.7686063  19.9485905  13.8611534  30.7869411  64.1399050  71.6873217
  30.4675460  63.3263206  72.0775700  30.4009175  64.1531420  70.8115101
  85.6954234   0.8667786   4.4420221  85.1936858   0.1775153   4.0068128
  85.3912680   0.8478625   5.3494146  34.3874742  24.6121724  32.4525287
  34.0761377  23.8102419  32.8722980  34.0958072  24.5357497  31.5440586
  60.8542538  36.4224553  70.2461052  61.4095688  35.6430674  70.2663994
  60.0464535  36.1300611  69.8239660  79.8726845  49.9081278  61.5079069
  80.8195782  50.0182247  61.4212704  79.5018482  50.6832552  61.0861397
  74.2557880  76.3766726  45.6891086  74.4707128  77.2967323  45.8424881
  73.4647676  76.2259968  46.2066200  33.0157424  17.8243573  23.0560520
  32.1699144  17.3768456  23.0792930  33.6264039  17.2030528  23.4526756
  39.2051460  21.5054018  28.2446029  39.2610599  22.4551232  28.3501461
  40.1076080  21.2284834  28.0861404  67.7433007  20.3565629  26.3309410
  67.9449629  19.7748072  27.0638302  67.6201414  21.2159140  26.7341545
  86.3506576  79.6647485  12.0680740  85.6372711  80.0633987  11.5696838
  86.0725805  78.7585696  12.2012832  23.3099081   8.1113369  33.8703945
  22.6280357   8.3623583  33.2472828  24.0636159   7.8888447  33.3239105
  42.6130867  67.6835012  69.7360420  43.0534554  67.1055317  69.1129398
  41.6809845  67.5709581  69.5496225  10.4833604   9.4608958   5.1736858
   9.5836975   9.1465170   5.0842121  11.0193922   8.6691792   5.1279905
  82.0116874  72.9628118  25.1594570  82.3482105  73.8249501  25.4037883
  81.5123054  72.6752122  25.9237411  14.2059450  61.7408546  36.3310268
  14.1075640  61.9266721  35.3971985  13.5635643  61.0534986  36.5074279
  76.8094635  52.3512506  47.4327230  76.8679905  52.5469589  48.3678722
  76.4393663  51.4692879  47.3953056  66.2568017  75.8509549   7.4741581
  66.2768289  75.4390391   8.3379581  65.9202954  75.1699027   6.8917778
  80.1015159  79.6785267   7.0822933  80.5402299  79.1119965   7.7169635
  79.8229619  80.4390272   7.5924614  77.2423765  78.4031089   7.2875240
  77.8350755  78.1373008   7.9905822  76.7237398  79.1125663   7.6668861
   4.0962943  14.3049765  69.9083710   4.9310263  14.1499102  69.4663286
   4.3328532  14.4417346  70.8257437  90.8349228  31.9650626  62.7865458
  90.0603867  31.4027333  62.7758360  90.9494209  32.1975017  63.7080097
  77.7610683  55.3909540  29.3042731  76.9624567  55.5044127  29.8196125
  78.2079935  56.2351465  29.3661261  27.1178628  29.3232472  15.1430919
  27.4003412  30.1616509  15.5085018  27.9029895  28.9661868  14.7279861
   7.9587059  85.7636221  73.2089355   7.4803906  85.9960326  74.0048244
   8.5548763  85.0665863  73.4827163  74.3017721  71.2173653  49.5330811
  74.9116087  71.1725044  48.7966585  74.5952463  70.5285120  50.1293898
  85.3999751  41.7789681   5.1129224  84.7399013  42.0421441   4.4716194
  85.1152866  42.1867497   5.9307792  35.3844142  23.1116366  51.0993576
  36.2470508  22.7009034  51.1575651  35.3910279  23.5641742  50.2559137
  45.1507427   5.3791697  36.6693714  45.3465845   6.1637909  37.1814754
  45.9013559   5.2820904  36.0833767  69.9137115  61.6982841  67.1319866
  68.9933205  61.7135811  67.3944426  70.3954649  61.8893051  67.9367590
  58.1575390  70.5327185   7.1207836  58.4444329  70.9111103   7.9518917
  57.8187796  71.2768658   6.6230705  17.2763424  69.6742423   8.4102848
  18.1678610  69.3286642   8.3655574  17.0683746  69.6802147   9.3446090
  23.2771589  10.5824120  31.8330505  22.6548721   9.8644669  31.7166736
  24.0823556  10.2708228  31.4197662  44.7312307  61.1092281  68.0741835
  44.2512226  61.9373703  68.0716038  45.1558542  61.0811806  68.9315844
  66.8673488  67.5145443  25.6372669  67.5579544  68.1467851  25.8361747
  66.2840458  67.9781278  25.0363662  61.8978692  11.2922747  43.4273460
  61.2537958  10.5931265  43.5396030  61.4514257  11.9448264  42.8878048
  32.8043891   8.8755209  32.7649715  33.4986879   9.4536622  33.0810859
  33.2680370   8.1606371  32.3288467  79.5821541   6.4063914  33.2451751
  79.6357947   5.4542859  33.3278968  79.9643975   6.5942414  32.3879459
  62.6201010  70.9113312  71.8771505  62.3888874  70.3232622  71.1581612
  63.5399771  71.1270571  71.7237568  19.4585590  83.5107811  52.1705845
  19.4824677  82.6035412  52.4748447  18.7760572  83.5204323  51.4995125
  74.8806926  85.9842452  16.7382076  74.6687957  86.1577853  17.6553848
  75.7511302  85.5869015  16.7645195  67.3791504  27.9388690  59.6836376
  66.7654610  27.5293112  59.0738153  66.8244886  28.3006477  60.3747940
  15.2668266  54.6439966  40.2657249  14.7824268  55.1133974  39.5865753
  14.8100786  54.8603793  41.0786178  68.4349585  48.5863113  66.6399717
  67.6677084  48.0798483  66.9065380  68.0844736  49.4446278  66.4018917
  76.6667128  18.3172226  68.1061983  76.0136032  18.1296742  68.7803650
  76.1862755  18.2473445  67.2812557  34.7661190  56.8546041  17.6680687
  34.8815517  57.7548715  17.3640564  34.2011814  56.4500602  17.0097187
  73.3520385  79.1141613   9.4329384  74.2634841  79.3676241   9.5787170
  72.9649040  79.0983590  10.3082206  22.4375774  11.2877495   8.3106449
  23.0142499  10.5429442   8.4807708  23.0022623  12.0546753   8.4065178
  87.7350494  60.6334563  12.7205208  88.2887288  61.2632819  12.2590091
  87.0437595  61.1657055  13.1142929  84.1527387  67.3849472   6.7971447
  85.0117561  67.2554644   7.1990898  84.3122932  68.0048569   6.0854747
  65.4945465  77.4540814  39.7603443  65.8419343  76.7393096  40.2938774
  65.2406260  77.0369180  38.9370945  31.9600774  14.1265137   8.6293914
  31.6750289  13.2231839   8.7671211  32.8902866  14.1211827   8.8550308
  75.6701251  56.0657724   8.9744880  76.4171764  56.5604742   8.6377075
  75.6119844  56.3175674   9.8961380  75.7052728  71.0392650   6.1754444
  74.7770330  70.8202489   6.2569359  76.1557599  70.3669818   6.6866424
  16.7798234   4.5235712  61.8540981  16.4789392   4.4754488  60.9466865
  16.4366485   3.7288887  62.2626903   8.5165907   6.0959704  13.2928493
   8.9003445   6.0757096  14.1695240   7.7342249   6.6394694  13.3863666
  12.0880919  65.1626690  47.5166347  11.3569956  65.0185188  48.1174305
  12.6342945  64.3824752  47.6125076  65.6261064   9.3212540  16.4226272
  65.8606340   9.7235377  17.2589233  65.8029081  10.0007470  15.7720497
  31.7156963  62.4325057  13.6686542  31.8893795  63.2561239  14.1244152
  31.8553715  62.6364084  12.7439144  76.1987115   5.8354695  58.2629326
  76.1607362   5.9269125  59.2149952  75.2823163   5.8236868  57.9867008
  41.6225033  63.6487707   7.5368622  40.6679802  63.6208971   7.4710300
  41.8855934  64.3288239   6.9167450  80.4369089  68.7756952  29.4108036
  81.0156509  68.0564221  29.6636608  80.5408737  69.4232019  30.1080539
  28.6286117   0.7689841  28.5760715  28.8682558  -0.0080793  29.0810135
  29.2939474   1.4179547  28.8049724  66.6894436  13.1695688  51.5716934
  66.4564943  13.7100399  52.3265839  66.7654991  12.2835445  51.9258213
  44.9523355  36.0851700   2.2594288  44.9952890  36.1542160   3.2131698
  45.6138231  36.7012722   1.9446542  27.2262718   9.0860875   5.6715992
  26.3736679   8.9587433   6.0876300  27.2778226  10.0289471   5.5147817
   6.3614731  69.0066751  41.9517639   6.2270193  68.1188806  42.2833851
   7.2895699  69.1822704  42.1068123  27.1690704  13.9019186   3.4398868
  27.2836591  14.8402436   3.5903623  27.0295717  13.8260014   2.4959543
  87.6480103  39.5161128  64.0220499  87.9627514  39.0565753  63.2435989
  88.0520248  39.0508747  64.7545528  46.1038019   7.7356656  24.2945697
  45.9486343   8.6576540  24.0894058  45.8667375   7.6526339  25.2182224
  54.4917103  61.7275389  17.5272014  54.0915796  62.0987113  16.7408397
  53.9906141  62.1032449  18.2510593  24.6344233  40.3306627  60.1889944
  23.9249969  40.9632397  60.0758934  24.3930721  39.8377919  60.9732533
  73.6055395  74.6455368   1.2094190  73.4138891  75.5259689   1.5324381
  73.0059215  74.0772422   1.6928795  40.3771210  16.6837275  68.3468246
  40.2175522  17.4614358  68.8815594  40.7751083  17.0220935  67.5447369
  57.8668639  50.5904617   3.7784317  57.7943727  50.6948938   2.8297069
  57.0750352  50.1141491   4.0281561  23.0433202   8.8326854  72.6836348
  22.8278565   7.9093397  72.5523329  22.8890657   9.2382979  71.8304539
  90.9490749  53.2646509  16.1128738  91.4613172  53.7680574  16.7456653
  90.1729366  53.8012572  15.9519603  75.2320501  38.7379246  10.7555416
  76.1346837  38.5362353  10.5089500  74.9321052  39.3518462  10.0851944
  84.0269109  15.3394946  37.3057678  83.3200427  14.8086890  36.9386032
  84.7609016  15.2093013  36.7053154   9.1610101  57.0250107  39.1795111
   8.4350160  57.1793033  38.5750651   8.8492278  57.3621989  40.0193501
  80.6304046  54.5626589   2.0125702  80.5912944  54.8912414   2.9107549
  81.3862487  53.9753958   2.0050695   8.3295851  54.6366902  19.4201782
   8.4729080  53.9042970  20.0195911   9.1203623  55.1700576  19.5003250
  77.2247335  33.4129103   2.0513609  76.8196508  34.0034660   1.4162376
  76.5459129  33.2679220   2.7104643  34.5442891  26.0265899  58.7287760
  34.2462850  25.2875829  59.2591476  35.4915714  25.9066606  58.6616611
  77.2708293  59.8269030  32.1112564  78.0229017  60.1905974  32.5785282
  77.6319763  59.5165714  31.2809017  24.5419911  81.9754888  65.8059740
  23.6193970  81.8105073  66.0004854  24.7907094  81.2700550  65.2087021
  37.8473043  12.0582700  72.5392485  37.4726796  11.8823922  71.6761398
  37.0921755  12.0869803  73.1267786  36.5288997   9.0557128  59.2028284
  37.3086238   8.5036057  59.1441584  36.7630720   9.8522890  58.7265301
  21.1795045   6.5131981  14.8552349  22.0221378   6.8056519  14.5078590
  20.6018926   7.2692759  14.7506454  88.2646486  59.0400883   9.7988727
  88.5134717  59.4543513   8.9726188  88.9492246  59.3027337  10.4141834
  74.2760202  46.7403411   6.6143539  74.3809101  47.6567497   6.3585689
  75.1706478  46.4195888   6.7283466  24.4684294  77.7878917  64.7315454
  25.0528124  78.4771944  64.4159651  24.2092923  78.0757416  65.6068897
  66.2176081  43.3316526   0.6923225  66.3565370  44.2516451   0.9171465
  66.1434933  42.8872621   1.5368679  75.6559806   1.4820178  17.1224430
  75.5023246   0.5829318  16.8321445  76.0742467   1.9072468  16.3737991
  60.8815023  80.8788951  46.0309055  61.4023873  80.1557978  46.3802459
  61.4579650  81.3046344  45.3963401  70.0544688  42.4990425  14.7235229
  70.9015390  42.9431995  14.6857288  70.2561447  41.5822991  14.5360687
  62.7482649  47.5077524  20.0252178  62.0122048  47.0148920  19.6625450
  62.8867575  48.2229765  19.4043281   6.9370106  65.8052112  48.8020325
   6.9293288  65.1852394  48.0727816   7.3386410  66.5952862  48.4405041
  70.4477310  34.6712160  70.0220156  70.4072094  33.7373114  69.8160791
  71.0090780  35.0424433  69.3413448  88.6503792  32.2171235  68.9233923
  87.7373981  32.4751282  69.0504169  88.7862492  31.5028429  69.5459461
  38.6613464   5.3904504  46.1646128  38.1997824   4.5865336  46.4031649
  38.4917974   5.4951578  45.2283859  82.4971792  42.0226189  19.1793754
  82.5045558  41.2895103  18.5639599  82.2379180  41.6321359  20.0139644
  53.6977216  73.5792669  21.9001415  54.5867511  73.7339457  22.2194126
  53.5925504  72.6285203  21.9355419   7.4098520  83.9306649  16.6680076
   7.0225458  84.6825131  17.1162822   8.2153111  83.7514170  17.1531322
  67.8324028  56.2074943  40.7396152  67.4828884  56.9136580  40.1961067
  67.2072431  55.4906627  40.6320980   9.3423465  84.5671553  62.5554180
   8.8180712  85.2847901  62.1999359   9.6190432  84.0688913  61.7863894
  50.4829189  18.3255871  23.7894085  51.3769456  18.0702837  23.5618904
  50.5865809  19.1206964  24.3121841  58.4473773  62.4466713  18.4692314
  58.8714167  61.7038282  18.0395725  58.7028262  62.3694285  19.3884781
  24.1759804  78.1066991  52.0328283  25.0352839  78.5235334  52.0967102
  24.1352061  77.5244779  52.7915049  53.5603094   7.1955919  56.1252308
  52.9772806   6.4508337  56.2723494  53.5199594   7.6960003  56.9402122
   7.9135828  28.1229206  31.7348602   7.3910265  27.3682042  32.0060947
   8.0429630  28.6260482  32.5388267  45.2978524  32.8798254  11.0214355
  45.8392903  33.6443194  11.2179687  45.5180105  32.6565083  10.1170566
  88.6337825  67.3338469  35.6811645  88.1383726  68.0057343  35.2127960
  88.3032009  67.3744329  36.5785530  89.3206855  82.1433052   7.5244167
  89.7080823  81.6781457   6.7829349  89.1369935  81.4583643   8.1673267
  46.5177965   5.8196276  48.2575417  47.0633173   5.4928195  47.5421143
  45.9247828   6.4445448  47.8403521  89.8577997  12.0506700  28.6031940
  89.7039434  11.1526116  28.3098343  89.2404386  12.1763237  29.3238189
  56.6152573   4.4157493  67.4167871  55.8640385   4.7849146  66.9524384
  56.5617037   4.7912091  68.2956457  87.2732231  56.3037773  12.2723606
  88.0927297  55.8135637  12.2065952  87.0202991  56.4704462  11.3643482
  11.5564899  59.8023113  23.0972889  12.1067600  60.3552993  22.5426319
  11.9313316  58.9260097  23.0088356  71.4896699  65.5834111  17.1354416
  70.8311244  66.0056861  16.5838649  71.0571977  65.4719075  17.9820659
  78.5442182  48.9357223  17.6372078  79.4587823  49.1354730  17.4374416
  78.0527278  49.6698399  17.2687748  47.8871679  23.4426188  52.3385715
  48.4891319  22.7118087  52.1979046  48.2680273  23.9293456  53.0695152
  44.2846107  18.0192208  58.8073635  45.1080656  17.5738025  58.6079884
  44.5386696  18.7532091  59.3667841  39.9971938  37.8609347  69.6505451
  40.9084082  38.1179380  69.7915125  39.5503139  38.1094813  70.4597139
  65.4929495  19.2656195  53.4350252  65.8811951  18.4107423  53.2487869
  65.1371765  19.5552421  52.5949192  72.0704385  85.3714713  40.0166061
  72.1147319  86.3151225  39.8623398  71.7750379  85.0060566  39.1826751
  37.6330757  26.0862517  47.9299021  37.5881147  26.9576740  47.5364113
  38.2534361  25.6071067  47.3805332  67.7780581  43.2854652  67.0768118
  67.8590393  43.9034033  66.3502979  67.0613098  42.7056408  66.8193150
   9.9716691  69.5461393  71.1530542  10.7116345  69.2284943  70.6355715
  10.1424626  70.4811359  71.2663794  90.0138588  68.0686081  45.7945681
  89.6619792  67.7414013  44.9667120  89.3182940  68.6231638  46.1479664
  74.8297140  54.7773119   6.6291263  75.2329990  55.0870129   7.4400928
  73.8973686  54.9643143   6.7386463  43.8057431  66.5508135   1.7477205
  44.0902647  66.8309840   2.6176527  44.0696522  67.2651561   1.1678054
  34.9889302  11.9341171  59.9054146  35.8874178  11.9955683  60.2297258
  34.8749256  12.7166390  59.3660688  33.6646536  81.5968812  53.5406160
  34.2722729  80.8681310  53.4143066  34.1615656  82.2376261  54.0492964
  47.1608051  42.2376487   3.1439712  46.5581616  42.5115871   3.8353517
  47.5031313  43.0568184   2.7861908  86.7035362  82.6908215   4.8952367
  87.1122142  81.9701847   4.4157627  85.7634469  82.5304135   4.8131969
   4.7156029  55.1511343  21.8310859   5.4982834  55.7003470  21.8759182
   4.4732647  55.1546415  20.9050777  51.3036728  25.0172138  56.4375305
  51.0871696  25.8718729  56.0648203  51.7782497  24.5650077  55.7400227
  10.4665737  43.4402596  37.5090339  10.7151680  43.2025830  36.6157558
   9.8439055  42.7627548  37.7726677  58.6447191  28.0314589  54.4077110
  58.0096197  28.7430716  54.3271494  58.9543867  27.8844786  53.5139894
  85.8514615  55.3819545   7.9894569  85.6191656  54.4556244   8.0541256
  85.1989051  55.8306225   8.5271385   3.4589510  65.1780017  22.4700000
   3.6223583  65.5330404  21.5962246   2.5258379  65.3300889  22.6196697
  69.8179099  56.1101027  31.5105751  70.6403943  56.3410171  31.9423416
  69.5260307  55.3168734  31.9598224  50.4206371   8.1836516  74.6357870
  50.6805515   8.8689393  74.0201092  49.9315262   7.5563049  74.1034031
  88.6697933  68.2728013  19.8352935  88.9761325  69.1781219  19.7825172
  89.3578025  67.8149112  20.3182151  50.1145554  37.3389626  67.1755171
  50.8775902  37.2945046  67.7517366  49.5205784  36.6682172  67.5124502
  86.6340944  63.5376390  14.4132545  86.1298295  64.0108546  13.7514236
  87.5357791  63.5665520  14.0933159  70.9567595   7.2085565  40.1808596
  70.5289221   7.3499370  39.3363452  71.1296034   6.2674606  40.2072144
  71.7868015  62.7932378   1.8920353  71.4228269  63.5680397   1.4637401
  71.2810203  62.7063867   2.7000406  72.9832670  62.5950428  20.2458313
  73.0390951  63.0514749  19.4063213  73.0675146  61.6684993  20.0207737
  82.1679946  48.7018128   3.0418089  81.4031860  48.1577863   3.2297876
  81.8453952  49.6004077   3.1102779   5.0554924  79.0253313  22.0868519
   5.4754763  79.7268971  21.5892151   5.7065229  78.3239468  22.1081855
  84.7543308  60.7359823  15.2522400  84.1395303  60.0119313  15.1338985
  84.7549840  61.1898061  14.4094589  21.5707876   1.5903075  20.7130459
  21.4060642   1.6333230  21.6549804  22.5080110   1.4092810  20.6418159
  40.5132942  74.4480165  -0.0531075  40.0952702  73.6660393   0.3074339
  40.9911041  74.8261341   0.6851032  59.4430494  23.3352566  59.0844727
  58.6869717  23.8689280  58.8399982  59.4779110  22.6495314  58.4175396
  79.2462751  44.9472842  15.1279953  79.8512479  44.2754545  15.4424598
  78.9639160  45.4049270  15.9198787  83.3056756  58.0362888  24.0189006
  83.9897939  58.5001548  24.5016411  82.6537486  57.8123625  24.6830394
  74.4242811  15.4302967  67.6794481  74.7244644  14.6593142  67.1980858
  73.8176298  15.8654594  67.0804167  85.0272294  56.6518315  19.9678638
  85.4219552  56.8587991  20.8149746  85.4472705  57.2545465  19.3542411
   2.1217562  24.5179732   5.5273559   3.0240394  24.7823079   5.3477886
   1.5948893  25.2748425   5.2708557  44.0655088  28.4730959  62.6160765
  44.2937279  27.5722122  62.8453207  44.6737814  29.0107250  63.1232119
  69.9235031  58.8860591   8.0791309  70.7245943  58.3641883   8.1253364
  69.5261809  58.7921031   8.9448955  66.6006088   6.1163563  57.0370960
  67.0465755   6.8650585  56.6411257  66.6775131   5.4196090  56.3852835
  74.2842361  46.1660295  46.4702537  75.0923368  45.8117961  46.8413665
  74.4534322  46.2134331  45.5293205  90.4058858  60.5381461   2.5247505
  89.5061990  60.2518578   2.3671558  90.3417655  61.1261769   3.2773092
  13.0944758  34.0374424  25.8168819  13.2591419  33.1705548  26.1878612
  12.3455458  33.9104118  25.2344730  61.5664339  30.0213456  73.0612898
  61.5056324  30.7441425  72.4367094  62.5058460  29.8618317  73.1523085
  25.0116329  46.7837756  12.7328518  25.6449871  46.2346008  12.2707966
  25.1209908  47.6525964  12.3462989  88.8158294  71.1142167  19.0053489
  88.9206001  71.4051398  18.0994728  88.0477926  71.5895279  19.3222549
  53.7296391  34.8221636  58.9906645  53.8101959  35.0171995  59.9243164
  54.5247746  34.3332505  58.7786388  82.1245384  16.4157975  72.4494219
  81.5066719  16.4432776  71.7188597  82.3396873  15.4881454  72.5463772
  17.0001679  71.9243034  34.4029644  17.2832232  71.8831428  33.4894970
  16.2325268  72.4959620  34.3903186  48.2065936  53.6953076   7.1505668
  48.6305388  53.0660029   7.7340725  47.3548969  53.3046158   6.9551113
  84.7093460  68.8068088  40.7291629  85.2607700  68.1526335  40.2999618
  83.9199230  68.3271678  40.9801510  90.2708742  80.6819733  36.1372020
  90.3926965  80.3153141  37.0129612  91.1588165  80.8545764  35.8241680
  83.2046052  60.2382978   4.4725826  83.3231708  59.2910655   4.5427683
  84.0944883  60.5889948   4.4358375  37.7321601   1.3612998  66.3128376
  37.1476245   1.3168082  65.5561543  37.1720123   1.1536703  67.0607376
  15.1979523  58.4892066  63.3478000  15.4435616  58.0152365  64.1423156
  14.2708712  58.6946495  63.4683921   4.1403414  17.7029974  10.8969619
   4.3576457  16.8776352  11.3303020   3.1839539  17.7084668  10.8579185
  53.6878157  29.4581652  72.2954941  53.5329533  29.4910336  71.3514757
  54.4469976  28.8835263  72.3937988  27.4574069  82.3447211  63.5607576
  28.0300263  82.3935393  62.7952766  27.8088645  82.9987491  64.1648722
  79.4304820  74.4990047  38.1927612  78.5126897  74.3436798  37.9696872
  79.3972370  75.0098308  39.0015819  40.2638198   1.5347083   4.3970325
  40.5077363   0.6542094   4.1116216  40.1674463   2.0317109   3.5846737
  73.1214639  44.5432795   7.9811790  73.4139034  45.3662564   7.5894859
  73.3896419  44.6057268   8.8979175   6.3715344  81.4562543  21.7116668
   6.4249163  81.4688405  22.6672867   6.9397907  82.1734031  21.4305713
  16.7810755  67.9566701  16.0999706  16.6459208  67.0267924  15.9175232
  16.9797401  68.3418115  15.2464893  69.2112207  21.8793988  69.6388817
  69.5182753  21.0099936  69.8959541  69.8646307  22.1882963  69.0112925
  54.5246097  52.7338406   0.7502535  55.1082107  52.0207497   0.4911354
  53.8879177  52.7930935   0.0379732  24.3342571  70.0775417  54.5980766
  24.5164375  70.3530487  53.6996677  25.1340656  70.2880152  55.0799873
  62.1864244  65.3690299  34.7487381  62.7061960  66.0494002  34.3207576
  62.6261112  65.2230628  35.5863598   1.7106848  82.5798639   8.5479381
   1.4590817  81.9948872   9.2625930   2.0546846  81.9969471   7.8711059
  88.9386960  77.3269876  19.2129924  88.1744834  77.2807511  19.7875145
  88.7819454  78.0977400  18.6674621  30.4599833  13.1242156  29.0960836
  30.3388190  12.4441707  28.4334445  31.1117625  12.7609897  29.6956515
  56.1587858  38.5407734  51.2501001  56.8345213  38.2417130  51.8585205
  56.0418272  39.4676018  51.4587545  51.0321474  12.3176897  67.4771643
  51.4737940  11.9620383  66.7060041  50.6627035  11.5515447  67.9162169
  67.8997946  21.2188101  52.6097059  67.0097065  21.5706849  52.5970936
  68.3497810  21.6801691  51.9019651  46.5795469   0.8383309  55.2596855
  45.8422947   0.2841504  55.5157661  46.2604332   1.7325875  55.3809452
   8.8130721   2.7581352  65.3789997   8.6365660   1.8208897  65.2974701
   8.1374987   3.0779582  65.9769535  38.8260678  81.6684196  50.7319593
  39.1737727  81.7659415  49.8454952  38.1321076  81.0147060  50.6464720
  15.4498653  71.1937197  28.2059028  14.6748047  71.2139257  27.6445511
  15.1101427  70.9837635  29.0758064  90.4732009  85.4420289  42.0614078
  90.6162139  85.2247866  41.1402157  89.5945140  85.1133116  42.2513893
  87.7550527  75.3499778   0.7562807  88.1771442  76.1662515   0.4883840
  88.0439731  74.7071417   0.1085785   5.1727562  56.9067176  35.2064350
   4.7178583  56.1107989  35.4817798   5.8938150  56.5936979  34.6602466
  27.3157024  31.9299912  45.8902121  27.7311635  31.3453817  45.2562952
  27.2495389  31.4080453  46.6898537  22.9844742  55.1298591  24.4105365
  23.5211735  54.3526681  24.5659855  23.3066540  55.4813047  23.5805252
  39.0214540   4.4063218  32.6348999  38.2700921   4.7421963  32.1461418
  39.4622947   5.1894553  32.9644420  90.5568477  35.5852469   9.7356155
  90.1629802  34.9065860  10.2838161  90.0808641  36.3837149   9.9639156
  21.8154362  76.3062800  66.3228321  22.2753695  77.0892466  66.6255760
  21.6961793  75.7782746  67.1122742  87.6144103  77.0680577  44.8088026
  86.9866732  76.3480086  44.8697042  87.0945338  77.8539277  44.9772167
  73.6636850  55.9708794   1.4260080  74.3945619  56.0851820   0.8185651
  74.0790674  55.7893284   2.2690561  24.6031857  10.7155752  57.3724365
  25.4848695  10.8916962  57.7008390  24.3464041   9.8993480  57.8014660
  17.4223833  59.0292593  16.4813068  18.1175451  58.9885362  17.1380642
  17.7769785  58.5575648  15.7276466  51.6835575  68.7939175  22.1042755
  52.5843029  68.4726866  22.1455314  51.5582638  69.0385111  21.1873748
   8.5360011  38.0944109  74.6270275   8.6267050  37.3421955  74.0420675
   8.2507476  38.8082862  74.0567303  71.2575742  71.5618118  15.0455215
  71.5334865  72.0672282  15.8101490  71.7811176  70.7614883  15.0857761
   4.7538909  27.5917459  70.2514172   4.3660029  28.3708930  69.8530436
   5.4443320  27.3298287  69.6423817  49.0172720   4.6870673  59.3842220
  48.8705873   4.5481625  60.3198624  48.4164953   4.0781924  58.9546061
  27.8259517  36.0816367  32.9456737  28.7372352  35.8791335  33.1572941
  27.8744604  36.8755276  32.4131229   2.8163700  76.2380227  12.6546600
   3.6829786  76.6100057  12.8185108   2.9929142  75.3878435  12.2518470
  63.6533785  14.0564191  54.2255640  63.2957888  14.3840408  55.0508070
  63.2821512  14.6331918  53.5579157  26.1178044  82.0515607  59.7516155
  25.3997019  82.2858615  60.3395462  26.9076661  82.1701379  60.2791500
  20.4252319  57.5223704  22.2299316  20.0819473  56.7172142  22.6173713
  20.6700020  57.2738262  21.3385513  80.9101364  56.0547658   9.6815994
  80.1149341  56.0418435  10.2142456  81.1416313  55.1321872   9.5743969
  78.9418364  28.3348966  66.5940475  78.1868696  27.7566433  66.7030478
  79.0587521  28.7406516  67.4530745   8.0260878  31.5918036  36.9838169
   7.5410967  31.8867572  36.2130859   8.1860046  30.6615742  36.8246486
   2.0182952   0.8416539  62.0887947   1.7471179   1.6544542  62.5154734
   2.9518851   0.9621573  61.9152641  84.7027179  70.9353479   4.6356180
  84.4407531  70.8257969   5.5497339  85.5030843  70.4170187   4.5520666
  30.6148892  67.0976957  20.6105354  29.7892933  66.6204055  20.5279854
  31.0451584  66.9802531  19.7635963   6.8287810  27.1193194  47.9862499
   7.2892817  26.3689733  47.6105595   6.1577185  27.3369384  47.3392916
  50.2483655   2.7794440   6.3118961  50.7163907   1.9621975   6.1407402
  50.0453760   2.7479298   7.2467926  56.0315228  21.4819837  52.5660992
  56.8177891  20.9555316  52.7105665  55.4146528  21.1789918  53.2323503
  89.8685857  55.1552673  12.7516582  90.8222743  55.1261993  12.8282192
  89.6539422  54.4359430  12.1577480  43.9107656  51.8525028  65.9521961
  43.9706564  51.1701202  65.2836132  43.9448643  52.6731157  65.4606056
  67.2884389  52.6271161  25.2550056  66.5853044  53.2237204  24.9983051
  67.1482417  52.4800821  26.1903980  56.7484571   3.7049658  45.0019863
  56.8335630   3.2698519  45.8503177  57.2307111   3.1432373  44.3952491
  16.0098105  54.2370816   1.6038778  16.9666748  54.2133876   1.6130092
  15.7892351  54.6919592   0.7910659  70.8640289  35.8324456  58.6239624
  70.1598024  35.6202245  58.0113745  70.6703997  36.7245960  58.9117289
  28.9467602  58.7639769   9.8001697  29.5435505  58.1383654  10.2108791
  28.4491711  58.2423612   9.1704395  56.5217066  14.2600799  34.7774410
  55.5839157  14.2264199  34.9662423  56.5706873  14.4252002  33.8358641
  24.0365391  72.2784480  19.2476871  23.8911800  73.1271251  19.6658352
  24.6724014  71.8390139  19.8123195  76.9676038  55.4485675  21.4686420
  76.4996311  56.0024174  20.8437565  77.5483486  56.0504909  21.9341114
  85.3739187  36.6253408   9.3601444  85.5028459  37.5094297   9.0166309
  86.1378166  36.1359896   9.0548160  87.4464989  28.4340644  66.2442350
  87.4243355  29.3499422  65.9669113  88.3681774  28.2652521  66.4397621
  34.2200901   0.5024893  11.5087917  34.2647983   1.3719447  11.9066360
  34.0862562   0.6723578  10.5763462   9.6041163  40.9702396  66.4711761
  10.3715762  41.4175034  66.1145306   9.5353564  40.1657248  65.9571171
  89.2064783  63.6314233   2.0852878  89.3980762  63.6365374   1.1474731
  88.2941457  63.9148386   2.1449020  86.6007900  41.4867496  57.3478556
  87.1048737  41.6066360  56.5430212  87.2375202  41.1581755  57.9825640
  72.3484727  23.2982489   8.3672455  72.0599529  22.8914436   9.1842487
  73.1956359  23.6894413   8.5805824  20.2867680  71.5898045   3.6476066
  21.0169773  71.0270532   3.9051655  20.2348785  72.2473439   4.3412807
  76.5206357  48.2480975  52.5600174  77.0855876  48.7181880  53.1732586
  75.7102271  48.0989601  53.0470779  41.4856148  11.7877781  66.3064003
  41.3058043  12.1237767  65.4283333  40.8187389  11.1156368  66.4468622
  90.9012243  83.2050570  15.2155235  90.2345153  83.8369759  14.9464252
  91.5190812  83.1829413  14.4847706  62.6264334  25.2171135  73.6052990
  63.5620594  25.3556800  73.4582043  62.5047588  25.3775454  74.5410824
  85.5627537  43.2476330  37.5323844  86.2712383  43.8901758  37.4946833
  86.0004234  42.4199057  37.7312469  80.1089403  44.6530657   9.0747001
  79.7848770  45.0668374   9.8747089  79.3855640  44.0988687   8.7817409
  24.8582078   6.5022404   5.9387520  24.1146566   6.1823494   6.4496639
  24.5621730   6.4551241   5.0297001  49.8798350  67.3685826  35.5666852
  49.5931748  68.0837227  36.1346912  49.2967824  67.4160565  34.8090363
  50.6496525  40.1989508  62.0016813  51.0111809  41.0323334  62.3033428
  49.7014761  40.3289032  62.0190096  18.2327728  51.7166021  10.2521255
  17.9039555  52.1443679   9.4614818  17.9293900  50.8117267  10.1787021
  17.8886081   7.2168906  22.4476173  18.5175802   6.6224511  22.0386341
  17.1577503   7.2537692  21.8305996  67.4064871  53.0279847  20.9418609
  67.6932546  52.8383674  21.8351867  68.1739065  53.4156974  20.5211666
  84.3680784  72.6534279  18.5995605  83.5836812  72.9323657  19.0719440
  84.4451543  73.2746371  17.8754070  16.2938814  63.0793842  10.9695270
  15.8164291  62.2657259  10.8075550  16.9985752  63.0765899  10.3217342
  37.7173305  28.9425755  49.6376705  38.0990076  29.5944262  50.2255869
  37.2619104  28.3333921  50.2188063  12.1195917  69.2120417  10.3643062
  12.5507526  69.9311908  10.8259895  11.2785893  69.5754631  10.0870445
  45.7056626  63.1527384  38.4373310  44.8447391  62.9007038  38.1033828
  46.3243600  62.6463362  37.9110172  78.9953375  21.0895729  71.4280081
  78.2972240  20.8481145  70.8192682  79.8035002  20.8645988  70.9670401
  61.0937119  36.2592101  45.5522919  61.6618729  36.5053821  44.8223400
  60.5773544  35.5261660  45.2172470  23.3831502  13.5721476  28.1126621
  23.8648321  12.7469761  28.0552128  22.9842330  13.5565550  28.9826324
  75.8286640  55.6141551  18.1285789  76.4108201  55.3301176  17.4238422
  75.3919574  54.8124393  18.4162738  63.2176348  33.2626261  10.2632168
  63.9440080  32.6703771  10.4577758  62.4397203  32.7057250  10.2939060
  74.7826910  46.6901588  65.8107519  75.6512213  46.5392971  65.4377556
  74.2168331  46.0620546  65.3618336  71.6576358  44.8038425  14.3072441
  71.0957929  45.5029970  13.9729622  72.4219772  45.2590618  14.6605041
  21.3304022  76.4760728  48.3710861  20.6194190  75.9848894  48.7827539
  21.4162139  77.2659791  48.9048576  67.0016718  37.4654508  67.3484325
  67.8994513  37.4032068  67.0223236  66.5606546  36.6981387  66.9837904
  60.4067135  26.9815183  73.7245703  60.8215284  27.7913570  73.4273767
  61.0694504  26.3060617  73.5804319  70.0951287  38.5577496  17.8868034
  70.5157730  37.9209002  18.4644821  70.6703016  38.6049350  17.1231392
  10.9916191  48.5867210  20.7019928  11.4283543  48.6979588  21.5464618
  10.0633125  48.7209704  20.8929184  86.7291662  80.1192411  50.0448444
  85.9096309  80.0507625  50.5346420  87.3140880  80.6080206  50.6238010
  29.9228240   7.8851635  39.5474270  29.4730712   8.7286742  39.4979980
  29.3433048   7.3352654  40.0746849  84.1539117  82.0198949   4.1672495
  84.0367814  81.3248666   3.5195997  83.2642766  82.3037203   4.3775442
  38.5785084  56.1292764   5.1574876  38.6351757  56.8013771   5.8366802
  37.6397018  55.9781762   5.0477770  67.5282955  51.4797974  71.7574453
  66.9100142  50.8014584  72.0291376  68.0781603  51.6249657  72.5273895
  56.0956478  39.2712116  59.0424728  56.4988279  38.9487743  58.2364273
  56.5021324  38.7533903  59.7373581  81.0136672  64.9002608  27.3188999
  80.5871555  64.2948159  26.7124775  80.2962324  65.4170211  27.6856163
  74.8475763  84.9497422  23.4243324  74.0156576  85.1492890  22.9950073
  74.7602912  84.0384539  23.7039116  39.0586834  82.1860703   3.1032922
  39.2901115  81.5216359   3.7522962  39.0799694  81.7213877   2.2667244
  62.9562851  64.7672089  11.2521675  62.5130841  63.9408358  11.4442947
  63.8605043  64.5159014  11.0638454  57.6802301  37.5937581  69.6502638
  57.3762465  37.4548483  70.5472183  57.5702286  38.5331202  69.5028591
  12.3021270  11.8315489   2.1537759  13.0948736  12.1711237   2.5690773
  11.8778039  12.6039393   1.7801502  43.4202557  49.2263754   4.0239074
  42.9553871  49.9331411   3.5760143  44.0149670  49.6743723   4.6254471
  82.0154306  20.1534375   7.3008087  81.4890977  19.9645003   8.0776718
  82.6692172  19.4546517   7.2787025  81.2573501  22.3020228  10.9454181
  81.1785242  21.4925536  10.4406669  80.3613254  22.5049480  11.2141159
  90.2076980  36.7466976  42.7363517  89.7207281  37.0446511  43.5046699
  90.9210798  36.2186964  43.0948570  72.2750568  33.8406587  72.1758270
  72.0254850  34.0107536  71.2675285  72.6091862  32.9436994  72.1684551
  78.0264206  61.6771389  69.3295288  78.8459880  61.1882044  69.4035912
  78.2516594  62.4437571  68.8024664  86.8118020  53.7929555   4.3649414
  87.5637599  54.2269095   4.7680261  87.1096059  52.8974929   4.2046621
  38.4213233  29.1768074  58.3312893  38.8152409  29.5071149  59.1387272
  37.9990530  28.3572364  58.5886288  34.2875985  73.4376443  66.6287804
  33.9632634  74.2998482  66.8888617  33.6788348  73.1476725  65.9494066
   2.4650936  61.6046139  16.3309696   1.6509705  61.8406769  15.8863285
   2.7653198  60.8163961  15.8784130  42.4415874  38.5078740  69.6274090
  42.6890850  38.8269496  70.4952621  42.9427624  37.6998186  69.5174026
   9.0942861   8.0807002  24.0727451   8.8799073   7.1797736  24.3148258
   9.4147827   8.0171521  23.1730297  19.7380210  13.9316590   5.6352642
  19.9301149  14.1711028   4.7286251  19.5409061  12.9956706   5.5991771
  79.4176245  22.0389009  67.5351191  80.3116608  22.2096109  67.2388363
  79.3305969  22.5491595  68.3402872  43.4273716  84.2709311  45.9545639
  44.1720244  84.7592028  45.6034019  43.3070454  83.5447892  45.3426197
  25.1092224  54.3657680  14.3393448  26.0587673  54.3241592  14.4527843
  24.9885826  54.6756991  13.4417846  60.2824136  63.5939105   7.0996883
  59.5704051  62.9573830   7.1637848  60.4307076  63.6935051   6.1592987
   3.4221964  44.9438666   7.0292881   3.6468248  44.1924113   7.5780037
   2.6150494  45.2873934   7.4123504   5.1702242  38.2514762  11.5175941
   4.4286089  38.5237618  12.0580604   4.8891048  37.4255933  11.1237362
  12.9707127  84.2585715   7.4451473  13.5997849  84.0035971   8.1200531
  12.4006205  83.4957417   7.3486450  54.9493885  14.2776895  69.7379255
  54.5387030  13.6677110  69.1251516  54.4469786  15.0869191  69.6432447
  43.9003134   7.0753771  56.1246252  43.8270855   7.6696640  56.8714094
  44.1015291   7.6462227  55.3830862  77.6906538  26.4221644  73.6189365
  78.3616447  27.0646548  73.3882618  77.0747709  26.9060802  74.1691542
  48.9107276  34.2063029  17.4905899  49.1596509  33.2821496  17.5050190
  48.4677650  34.3481333  18.3271911  -0.0780240   2.9533657  71.3660860
   0.8593997   2.7953866  71.2542439  -0.3414193   3.4080765  70.5660295
  35.4017496  11.2541604  54.6318960  34.5462513  11.6792119  54.5711994
  35.3611374  10.7490039  55.4439306   1.2343251  85.5741859  45.6940031
   2.1294057  85.3157286  45.9136820   1.0973871  85.2351155  44.8094082
  40.8089638  40.5618668  70.7790804  40.6116104  40.7278824  69.8572731
  41.7650318  40.5707932  70.8247089  46.4096214   1.7974789  17.4548271
  46.3255264   1.4342005  18.3364132  47.3022129   2.1415980  17.4217251
  25.0901796   1.7707283   0.8305433  25.3213407   2.6981623   0.7788923
  24.8619701   1.5304024  -0.0674555  17.4973251  31.8917496  10.4419449
  17.3676921  32.2639449   9.5696476  17.7670337  32.6347954  10.9817341
  72.5475980  12.1162589   3.8663461  72.2129728  11.2815268   3.5385063
  71.7644979  12.6457055   4.0169075  89.5360565  52.2492743  61.6975260
  89.5591259  52.9901505  61.0918856  89.8025322  51.4981556  61.1673832
  32.7601605  71.2147172  23.8612297  32.4202423  71.8215331  23.2036140
  32.1632175  71.3072117  24.6037510  56.6761495  22.5765974  10.4994419
  55.9186746  22.0894368  10.8236911  56.8423273  22.2106106   9.6307304
  61.5703392  53.5478973  58.8767624  61.3024950  52.6412392  58.7268925
  62.3941994  53.6365843  58.3975744  68.0638124   2.6545413  10.9193733
  68.5330488   2.9370100  10.1343467  67.1423246   2.6538069  10.6603553
  84.9277210  81.3341427  61.7437029  84.8396397  81.3936615  62.6949787
  84.2649937  81.9353294  61.4037180  69.4612123   3.8281519   8.8210228
  70.0781919   3.3812649   8.2415035  69.8070432   4.7172673   8.8991859
  28.3187486   9.2500527  28.4258011  28.2354595  10.0753767  27.9481628
  28.8329078   8.6884530  27.8457287  73.1915617  71.3085699  72.9127169
  72.8723240  70.5799389  73.4450817  72.8461742  71.1347723  72.0370817
  12.5231554   7.9928906   7.7442577  12.9645969   8.7179406   7.3019245
  13.2133819   7.3462422   7.8914383  18.5485964  64.2709692  27.0790699
  18.8191013  63.6242016  26.4273479  17.8078251  63.8634165  27.5278404
  84.4288846  67.6218303   3.5019996  83.5773536  67.6732763   3.0678585
  84.9686548  68.2689866   3.0480554  37.9429512  58.6344763  30.2314212
  38.4518509  58.8313766  29.4449833  37.3562794  59.3842240  30.3310135
  42.6366978  56.3853832   9.3924549  41.9711094  55.8293911   9.7975471
  42.2246532  57.2472759   9.3324688   7.1751719  83.6721476   4.7704580
   7.8005438  82.9988059   5.0383213   6.9221048  83.4238823   3.8813284
  88.9606953  37.6420379  65.5651474  88.6184025  37.7993059  66.4451075
  88.5795307  36.8030238  65.3062963  86.6862679  54.8024559  68.6580133
  87.1859932  54.4471169  69.3930197  87.1317291  54.4658852  67.8805113
   9.3600704  24.8401577  18.9272716   8.8915945  25.6683667  19.0313366
  10.2839042  25.0892575  18.9006069  26.7129613   4.0162499   7.7583053
  27.6460792   4.0167792   7.9716613  26.6782762   4.2655880   6.8348053
   0.7133444  72.0226908  71.9675064  -0.0129072  71.9696665  71.3462305
   1.2567099  72.7395105  71.6401720  30.1353531  68.5721048   6.5384224
  30.6334572  68.4257825   7.3426082  30.8017998  68.6698063   5.8583191
  39.0034248   0.4067023  38.0727985  39.2350627   0.6145699  38.9779976
  38.0886461   0.6765635  37.9916504  52.9046918  22.6916344  17.9598262
  53.4213830  22.1393712  17.3730781  53.0783369  22.3410733  18.8334301
  64.4453287  33.9297557  62.0546246  63.6122513  33.8008332  62.5080490
  64.3668413  33.4075022  61.2563038  78.9789677  42.4226427  62.5863218
  78.4633398  42.5044441  63.3886147  79.8654127  42.2274208  62.8901815
  72.9061937  29.5975494  56.6900110  72.3155022  28.8533807  56.8063259
  72.6039410  30.2450824  57.3268604  76.5294600  42.3012686  48.3466864
  76.1969662  42.7497101  49.1242361  77.2438669  41.7540741  48.6729193
  67.7403613  76.7043813  49.2091968  66.8103858  76.5606268  49.3844440
  68.1863686  76.3537296  49.9801376  48.7552309  58.0158138  72.8598595
  48.0351400  57.9607916  72.2316265  49.5033312  58.3120203  72.3413610
  82.1228477  79.4929155  26.8406418  82.0949670  78.6173781  26.4547851
  83.0331537  79.7707208  26.7386749   0.6020602  62.4698305  49.1925144
   0.7930812  61.6196871  49.5887470   1.4528044  62.7917290  48.8944387
  45.2322149  32.9021406  73.5407543  44.4845867  32.5337958  74.0115023
  45.9136963  32.9925752  74.2068195  52.9450704  16.3042290  48.3585193
  52.9292871  16.1374791  49.3009498  52.1992589  16.8843586  48.2054069
  83.3027935  25.5696082  65.3809357  84.0849209  26.0883188  65.5692101
  83.3652592  25.3726768  64.4463015  72.1094179  44.1691446  47.6399851
  71.9809055  43.3450842  48.1097126  73.0187893  44.1362524  47.3430109
  46.4546394  33.1938219  60.6168032  45.5254984  33.0608606  60.8045435
  46.9093895  32.6587176  61.2672615  81.6834450  52.9762936  57.2335911
  80.8502769  53.3461380  57.5256157  81.4926434  52.6075602  56.3711166
  90.9373399  73.7789091   9.7934654  90.3489133  74.4415005   9.4315841
  90.4469463  72.9597648   9.7245529  64.0035868  40.0337791  55.4858446
  63.2175016  39.7776771  55.0034380  63.6715317  40.4650640  56.2732220
  28.6441900  27.3586686  20.3656795  27.8586580  26.8744309  20.1113441
  29.0199281  26.8465073  21.0817363  57.0596792   6.6099436   8.8882759
  57.7640153   7.1493847   8.5289028  57.0563508   5.8246739   8.3409527
  40.2216482  35.8125901  72.9686832  41.0950136  35.6584311  72.6085377
  40.1064539  36.7615700  72.9196882  65.1998044   7.2138913  54.5256927
  65.5062772   6.5233977  53.9378765  64.3468191   7.4674923  54.1730812
  73.7659618  58.0459531   5.0987985  73.5277339  58.6419483   4.3886783
  74.2518636  58.5919412   5.7168796  59.8968172  72.2642612  69.4215155
  60.0352478  71.6451740  68.7047148  60.6127882  72.0879793  70.0318766
  80.8704281  39.2925239  63.1289148  81.1852360  40.1802778  62.9585695
  81.6248894  38.7319779  62.9478025  54.3334198  42.9414129  62.7539587
  53.4173536  42.7478647  62.9529285  54.5242691  42.4206495  61.9738197
  19.1763048  71.8807300  16.8633297  19.3736057  71.0201772  16.4935234
  19.3729572  72.4958452  16.1567905  57.6007673  72.9154595   5.7440307
  58.4802696  73.2930931   5.7340171  57.4981567  72.5243314   4.8764303
  28.8357334  59.6780714  35.9494808  29.3864040  59.6557256  35.1668575
  28.1424599  60.3028603  35.7367733  14.6470793  48.1451416  47.4710226
  14.4491824  48.5126352  46.6096210  14.7554167  48.9086866  48.0380297
  11.8347646  10.9765799  20.5055740  12.0608093  11.3789351  21.3441780
  12.3179151  10.1502926  20.4984024  31.6680767   9.3525488  15.4856422
  31.8561603   9.6218188  14.5865562  32.0728017  10.0294716  16.0280445
  67.9017450  25.2338679  34.8296669  67.4009897  25.7761748  34.2202690
  67.7972318  24.3420250  34.4981125  58.4207153  43.1395864  55.7792425
  58.0843592  43.7566376  56.4291239  57.6420689  42.8331041  55.3144741
  25.8091145  58.7086233   0.6909063  25.5658131  59.2697676   1.4272192
  25.1576500  58.9021214   0.0168207  39.4367935  70.3266556  18.0444839
  39.0224410  70.6548340  17.2464588  39.0420867  69.4656403  18.1826236
  61.3112451  12.7154620  40.7676532  61.8074991  13.4917529  41.0271576
  60.8739473  12.9711802  39.9554851  53.2975389   3.9454110  47.4453476
  53.8758565   4.7080500  47.4576881  53.8447858   3.2352335  47.1100834
   7.1749171  35.3246689  64.4028711   6.5787276  36.0730624  64.3764210
   6.6030654  34.5602942  64.3325663   3.8195952  17.4854004  45.6147194
   4.4171485  17.1007490  46.2559700   3.0744990  16.8849683  45.5913591
  42.9090309  55.4996538  66.7577839  42.8443289  55.0344944  65.9237146
  43.2122612  56.3759756  66.5204144  14.7734337  83.3600720  39.6138599
  14.5151548  82.7643259  40.3171470  14.3030100  83.0401143  38.8440826
  56.9365980  35.4035599   5.6493404  57.8131296  35.7821496   5.7171753
  56.3452436  36.1504729   5.7423523  68.2253647  68.0392170  61.4881945
  67.9204035  68.9313841  61.6533327  67.4753284  67.6001072  61.0871124
  65.3636552  16.6921980  20.0400188  64.9682332  16.7633564  19.1712215
  65.8349897  15.8592970  20.0211551  81.2912560  50.0663996  65.9265184
  82.0530796  49.5283365  66.1417818  81.6448212  50.9490824  65.8165455
  19.0726547  65.7228216  18.6438396  18.8251476  66.6471775  18.6670425
  18.9522152  65.4654892  17.7297809  23.3483295  65.2896317   0.6823852
  22.7417641  64.5908125   0.4375055  24.1726856  64.8384341   0.8642891
   9.4557409  63.6832674  30.9302547   9.8932295  62.9238769  31.3151767
   9.9705010  63.8857540  30.1490715  58.6508465  52.4520350  68.2268763
  58.1686687  52.7487469  68.9986944  59.3286085  53.1155872  68.0981588
  59.9314119   8.1487353  11.1713817  60.2369310   9.0372879  10.9887245
  60.3139116   7.6158888  10.4742458  82.8357288  79.3878897  32.3276832
  82.2958776  79.3729552  31.5373829  83.1526157  80.2893408  32.3842838
   3.6986025  24.5021009  58.8484287   3.1136092  23.8294840  59.1971540
   4.2004641  24.0536046  58.1678295  13.2363702  14.7258933  37.7028968
  13.6486627  15.0870068  36.9181373  13.2721425  15.4380114  38.3415249
   6.9235953  79.0226173  48.8675070   6.2794169  78.6603594  48.2592058
   6.4458045  79.1224766  49.6908998  65.4489708   5.8306217  28.0394864
  65.1479340   6.1873066  27.2037911  66.3886499   5.6951499  27.9175067
  61.6438103  51.7255974  70.9589720  61.7789030  51.3850689  71.8432951
  61.5051842  50.9462547  70.4207945  59.4417191  62.1155691  65.4930544
  59.3740463  62.5346184  64.6351194  60.3807449  61.9801760  65.6200743
  44.2806225  75.6338366  15.6337001  45.1487713  75.9106453  15.3405693
  43.8749485  75.2531084  14.8547962   9.9268206  45.2352285  63.3576298
   9.8206195  46.1383963  63.0589008  10.1007422  44.7375774  62.5586748
  55.0502443  15.6922138  43.6900806  55.6416702  15.9727287  44.3884802
  55.0089979  16.4414573  43.0958080  84.8641937  19.8830445  47.4833419
  85.0196188  18.9426692  47.5714996  84.6354859  20.0026305  46.5615966
  75.4861642  19.5676501  14.7329834  75.3295137  20.4940112  14.9161270
  74.7465040  19.1149647  15.1381996  14.2051153  50.2193626  11.2253597
  14.3641167  49.3006673  11.0086849  13.2683067  50.3428354  11.0724571
  85.3651810  51.3519192  49.1365147  85.9722328  50.6147194  49.2017746
  85.1632881  51.4140081  48.2029104  70.7938147  21.3579607  73.1849098
  70.4497337  21.9605136  73.8442850  71.7327213  21.3152504  73.3661890
  52.5565815  44.2167473  65.3256130  53.4738302  44.3884802  65.5386829
  52.5175190  43.2715559  65.1796055  30.0264053  82.1894391  17.3148849
  29.3509750  81.6690954  17.7499416  30.4520302  81.5764078  16.7154911
  75.3763247  44.5534325  70.3849602  75.2960730  45.0421286  69.5658302
  74.6103001  43.9796019  70.3975439  46.8880750  23.3719141  -0.0723908
  46.1870576  23.8969738  -0.4585574  46.9858123  23.7181456   0.8146265
  22.8242855  79.7693094  18.5364845  23.3542519  79.9100860  17.7519157
  21.9270783  79.7000154  18.2102134   5.7412013  61.8087053  51.0655594
   6.4864119  62.2622728  51.4594936   5.9498080  61.7712116  50.1321220
  88.9084693  45.6598573   1.6378763  88.1507083  46.1548807   1.9492939
  88.7950536  44.7867896   2.0135381  79.2034054  48.2914686  67.1672010
  79.9162149  47.7246332  67.4618816  79.5603466  48.7490702  66.4060020
  53.1296922  15.7181199   1.1526611  52.5424291  16.4345486   1.3936737
  52.6572801  15.2402003   0.4710033  63.2206918   7.2775156   2.1272686
  63.7120248   7.1601374   1.3142231  63.2555963   8.2193692   2.2943714
   0.5209618  76.9803890  30.8849170   0.4042416  76.5381058  30.0440815
  -0.3671951  77.0834835  31.2266376  18.8163146  40.9143734  49.5223093
  18.9779528  40.8758736  48.5796404  17.8647860  40.8512592  49.6049404
  58.3765793  20.0358081  60.0317717  57.7484512  20.5748224  60.5125475
  58.3905840  20.4118347  59.1516352  85.3297997  34.0880394  72.1720123
  86.0499668  34.4632053  72.6788139  84.9051762  33.4776974  72.7748489
  52.2203447  19.5006068   5.4141119  52.5541307  19.2440684   6.2737682
  52.9663755  19.3898518   4.8247078  70.2237293  75.9524735  35.4388836
  69.6535274  76.2842854  36.1324241  69.6228405  75.5925115  34.7865131
  20.4082470  69.2990597   0.6215503  19.6078091  68.9516743   1.0150650
  20.7916241  68.5530957   0.1602533  26.7152406  10.0659163   8.8395813
  26.2438346  10.0974877   8.0071094  27.3065092   9.3183024   8.7518051
  76.7306614  54.6963882  66.0303354  76.4837837  55.4835558  66.5157747
  75.9348440  54.4444132  65.5619240   6.5837603  76.5076073  16.5245369
   7.0605831  76.7641862  15.7352092   6.6475515  77.2690566  17.1010425
  30.8958988  59.9813195   1.2428548  31.4277916  59.7028383   1.9883564
  29.9936371  59.9220177   1.5569236  78.9640665  14.7528672  60.5152559
  78.9744282  14.8927045  61.4621305  79.8693895  14.5328009  60.2957249
  69.6934938  12.8764582  64.0720367  69.2889595  12.5627851  64.8808622
  69.7825241  13.8209593  64.1994095  10.7422122  17.1181822  42.3413801
  10.2099284  17.0561838  41.5482473  10.1109847  17.0601404  43.0586052
  10.5181505  16.2575657   7.1520355  10.9300996  15.8575041   6.3862159
   9.7367431  16.6886218   6.8058899  21.9973068  73.8524326  34.2671898
  22.3190193  73.1244882  34.7990062  22.5074272  73.8022431  33.4588077
  85.2516937  59.0697384  68.1951523  85.5497265  59.6783829  67.5191641
  86.0432434  58.8522768  68.6874866  20.9350737  37.7741909  67.8914309
  20.6857833  38.6030984  68.3000803  20.1073512  37.3932481  67.5981808
  19.6651726  56.0472830  43.3986976  20.4900436  55.7509538  43.0139663
  19.0006046  55.4817291  43.0053451  18.2860240  30.6891131  35.7721949
  18.8723715  31.1701155  35.1881909  18.8150462  30.5119491  36.5499973
  15.6536826  51.4650726  57.4696255  15.5957087  51.4570713  58.4250307
  15.6344756  50.5409861  57.2207594  45.0896772  66.9891675  17.2139194
  44.8123320  67.1670946  18.1126144  45.4162272  66.0897048  17.2376659
  66.6577768  46.7363596  68.3838081  66.5292168  46.6423464  67.4399519
  66.3916349  45.8917141  68.7470865  70.3815699   9.4452125  71.5434599
  70.5057096  10.3403676  71.8589211  70.8864355   8.9048940  72.1512365
   7.6975592  47.1105003  43.9387608   7.4586447  47.6304197  44.7061157
   7.9666957  47.7567387  43.2859373  66.6853666  28.2763433  70.7118845
  66.8000317  27.6686025  69.9813128  67.2163820  27.9061294  71.4170074
   6.9139891  53.9360329   5.9209278   7.7324038  53.5267170   5.6400612
   6.2469082  53.2666012   5.7689693  14.6896677  76.6595658  33.5147598
  13.8803654  77.1678599  33.5686233  14.7540932  76.2211927  34.3632343
  84.6276646  30.7397219  10.8362510  84.9389725  30.0339516  11.4030006
  83.9892941  30.3199395  10.2596309  67.9901029   2.8482754  21.3359478
  67.9123212   3.7946494  21.2152794  67.0859434   2.5354130  21.3650158
  68.9162111  36.4619946  41.8849182  69.4438696  36.9679213  41.2669802
  68.1368494  36.9985247  42.0297050  33.4878780   9.9518902   4.3571499
  34.1396238   9.9460108   3.6561372  33.2928373  10.8788044   4.4950845
  64.4125272  42.7508004   5.8758476  63.7814714  43.0920632   5.2421882
  64.2317106  41.8115170   5.9118679  88.3016035  54.1616174  30.5818393
  88.7741443  53.3975395  30.2515056  88.1380626  53.9620193  31.5036037
  45.6496240   2.9181225   2.7751758  46.2416650   3.4545310   2.2479322
  45.3568174   3.5018046   3.4750440  56.4012909  39.5063066  65.5273247
  56.1072302  40.1980925  66.1199331  55.6555367  38.9092398  65.4673958
   4.1614016  45.3617048  69.7905874   3.9700946  45.8391190  68.9833021
   4.6555289  45.9833050  70.3250790   6.4544277  84.9895914  10.1561096
   6.9718962  85.5633076   9.5910385   5.6294231  85.4583081  10.2822139
  36.9299202  66.4996441   2.6609781  37.4920826  66.9904264   2.0615270
  36.6677074  67.1403106   3.3220556  71.9002104  27.2975302  70.9572506
  71.9026709  28.2140493  71.2333298  71.2395525  26.8821883  71.5115547
  81.3363552  34.2591763  67.8208160  81.0960960  35.0710893  67.3743820
  82.0227337  33.8786030  67.2728348  35.4296066   5.6815512   2.4610784
  36.0723402   6.0786850   1.8733576  35.9547998   5.2696021   3.1471565
  17.4257164  81.0273679  26.5481308  17.1974258  81.9393452  26.7281749
  17.5906258  81.0033472  25.6055477  23.1121426  79.4688066  11.4919117
  23.5989838  80.2019318  11.8683937  23.2788734  78.7390264  12.0884445
  66.3277340  18.9319134  57.0566082  65.4377317  19.2225921  57.2556925
  66.2110424  18.2043815  56.4456177  55.2845003  19.5132000  11.8502929
  54.7976114  18.6909134  11.9051769  54.7459032  20.1429017  12.3294952
  75.3742981  29.2943478  66.7760563  75.7968092  28.4590673  66.9761086
  75.5971003  29.4622159  65.8604097  11.5024929  77.6001152  40.4791095
  11.9966679  78.4198769  40.4755523  11.9453745  77.0506533  39.8324421
  45.4288816  40.1226854  73.9617634  45.1289558  40.4143333  74.8227024
  46.0154343  39.3895769  74.1481495  18.3581905  72.8968676  26.1985805
  18.4987049  73.4054764  25.3999546  18.6371355  73.4789332  26.9054248
  11.5216025  31.7215037  42.2849846  10.9642275  32.1944022  42.9029942
  11.1412104  30.8441758  42.2422695  23.7632991  -0.0136201  12.4117592
  23.3495237   0.5164511  13.0929687  23.8688995   0.5857499  11.6729572
  55.5931520  31.4679646  70.7648945  56.2251425  32.1195507  70.4611588
  56.0524130  30.6322002  70.6823730  37.2685243   8.0419619  28.7878540
  37.7654602   7.2589524  28.5508278  37.4485876   8.1669695  29.7196224
   0.4184132  71.7543443  26.3886192   1.1206226  71.8906744  27.0246627
   0.7465248  72.1499690  25.5811241  19.2898159  53.2469054  12.1985557
  20.0483112  52.7121361  12.4329593  18.8228207  52.7266546  11.5447357
  90.5793422  23.6757739  23.6219433  90.3466647  22.9900057  24.2478874
  91.3197558  24.1279824  24.0263298  64.7462082  40.2167797  52.7072954
  64.8132133  40.4625082  53.6299849  63.8078165  40.2421808  52.5202036
  79.5992022   3.5361226  38.8617542  79.3432908   4.3294318  39.3322876
  79.0405052   3.5278733  38.0845668  56.3756323  45.7811737  67.8047514
  57.2720623  45.4506779  67.8632545  56.4666986  46.7322350  67.8633118
  57.0536879  77.5338216  66.8967295  56.2807826  77.0569194  66.5943956
  56.7503337  78.4346361  67.0096064  89.3087101  20.8259177  56.8486357
  89.0854549  21.3793492  56.1002350  89.6689224  21.4322042  57.4958611
  74.7702312  62.6805592  48.8605976  75.5946255  62.2213554  48.7001848
  75.0309372  63.5821819  49.0485859  18.8972502  68.8410505  13.6319759
  18.5587244  68.0236038  13.2667186  19.4886665  69.1774329  12.9587009
   2.3634871  33.8472199  69.2498875   1.5729388  33.6845136  68.7353134
   2.0427855  34.2260456  70.0683451  56.9927122   6.4810116   2.2436979
  57.8596784   6.2068112   1.9446924  56.6989519   7.1085055   1.5832498
  22.3615791  30.2395995  15.3494098  23.1690265  29.8481448  15.0162056
  21.7701913  30.2460511  14.5967796  80.2313709  33.4069371  42.6322508
  80.0295544  33.8499570  43.4564066  79.3843222  33.0937457  42.3150015
  86.5040684  29.1699862  57.1846819  85.7719517  29.1949439  56.5685511
  86.6988945  28.2384849  57.2875404  70.9665537  37.8524613  62.8678560
  70.9672785  38.4405947  62.1126556  70.6164122  37.0284200  62.5293493
  81.4392090  58.5524750  71.2396717  81.8420792  58.0306673  71.9336748
  80.7815361  57.9728651  70.8553076   3.8654118  82.9940089   1.2504509
   2.9304104  82.8116854   1.1568382   4.2473583  82.7210267   0.4162862
  79.3341494  23.0475450  73.1648350  80.0394154  23.4923530  72.6947451
  78.9498997  22.4567938  72.5170708  38.9456635  56.4001676  21.1557319
  38.8431339  55.6084784  20.6275776  38.5357456  56.1840816  21.9932869
  66.9823980  64.4177485  34.1033864  66.8761730  63.6028242  33.6126280
  66.3150740  64.3736553  34.7882009  54.0903665  17.3907263   4.3631675
  53.3597948  17.4774725   3.7508276  54.7879316  16.9855769   3.8479164
   2.4540385  37.9931498  53.1757641   3.3478984  37.7251434  52.9626560
   2.5331267  38.9138031  53.4255075  30.5973102   8.0632050  27.0568683
  30.7663061   8.4603579  26.2025001  31.1419107   8.5628064  27.6651695
  70.6287718  58.4072113  56.5869188  70.1757526  58.6622906  55.7832146
  70.4525566  59.1222143  57.1984291  67.1416521  67.8279495  49.3521976
  67.6768398  67.4305153  48.6652803  66.3949347  68.2043505  48.8863945
  81.3273832  85.2783831  12.2388103  80.4048034  85.1374730  12.0261505
  81.6131517  84.4507321  12.6255348   9.0989360  58.7731981  45.3970814
   8.7858542  59.6298456  45.1066160   8.6137637  58.6019421  46.2042379
  72.1860429  78.5618742   4.3363979  72.5587055  77.9184922   3.7335613
  72.7879163  78.5694750   5.0806596  79.3132373  67.2340544  19.8572376
  79.7611543  67.1812066  20.7015159  79.1778156  68.1710704  19.7161892
   2.8937586  75.3837776  53.3431435   3.3087023  75.7503271  54.1239738
   2.9675635  74.4360304  53.4552240  71.4933206  14.5698292  13.8540294
  72.4271299  14.6588261  13.6634567  71.1096479  14.2616065  13.0330398
   0.0178012  83.3011723  55.9237909  -0.4436437  84.1222095  55.7528496
   0.9389075  83.5062122  55.7633018  40.3783657  24.1801245   7.2166469
  40.4422809  25.0391085   6.7991665  41.0798074  23.6664278   6.8162277
  36.1058593  60.6268072  70.5956936  36.7220688  59.8943424  70.5916595
  36.5309882  61.2944984  71.1339188  85.4620838  59.6360970  72.1131468
  85.4863739  60.4901886  71.6816711  84.8157120  59.1348743  71.6159391
  82.1598312  82.5270279  12.2913768  83.0889341  82.6704892  12.1113231
  82.1471950  82.0576390  13.1254890  90.9143639  50.7020617  59.5161724
  90.2280235  50.5459023  58.8675022  91.7319393  50.5665302  59.0371704
   4.1515856  15.3224730  47.3620319   3.8420801  15.5909418  48.2271099
   3.3545284  15.2329420  46.8396235  48.2949258  29.7804196   2.0520666
  48.8796998  29.3922741   2.7029207  48.6660291  29.5177443   1.2097385
  35.3352528  85.7515915  25.6788948  35.2804356  84.9030121  26.1183765
  35.6644325  86.3485106  26.3508728  45.6748058  38.6937840   1.7016676
  46.4465000  38.9063580   1.1767605  45.1669742  39.5049508   1.7203405
  50.8759003  63.3535798   2.7506139  51.6621571  63.4793719   2.2193744
  51.0554009  63.8306530   3.5608032  72.5389338  42.0507145  49.8375177
  72.4953604  41.1087036  49.6733713  73.3743095  42.1770525  50.2874327
  61.9572306  68.9326906  70.0979280  61.3008404  69.1597414  69.4392681
  62.2527170  68.0567646  69.8495817  85.1251316  79.0826797  54.2278862
  84.3825054  79.6856165  54.2627144  85.8926773  79.6513367  54.1668081
   1.4488564  15.0743420   2.4834564   1.4620743  14.7701199   1.5759828
   2.0599136  14.4953520   2.9390934  15.8984022  84.8166951   1.9699123
  15.1322775  84.3014534   2.2225168  15.7020025  85.7027873   2.2740486
   4.7771530  63.3868726  31.2281349   5.3739529  63.4963020  31.9684627
   3.9546471  63.0988725  31.6240719  33.5479070  37.7082093   1.4313295
  33.9094163  36.9384987   0.9919050  34.1237737  37.8473027   2.1831634
  67.9997064   0.8557494  37.0701244  67.2892477   1.4359314  37.3437431
  68.7595369   1.4315302  36.9842651  45.4929544   9.9446423   8.9029148
  45.7425024   9.6502717   8.0269554  45.5356361   9.1549571   9.4421795
  24.1828518  51.3475665   3.0481079  24.6950512  51.0854795   2.2831276
  23.5859757  52.0191630   2.7180698  33.9721279  83.5659798  12.6839092
  33.3928661  83.1964405  13.3503463  34.4501858  82.8124746  12.3376110
  29.3263627   5.7759411  25.7327869  28.3820058   5.8994324  25.6370475
  29.6379806   6.5972455  26.1130264  54.2873765  44.7864468  15.2059009
  54.6881296  44.8316796  16.0739925  53.3647443  44.5979817  15.3775528
  48.1727934  20.3887367  67.6869059  47.3377132  20.8550882  67.6495886
  48.5010481  20.4130077  66.7880774  73.8280773  39.1485810  40.6750965
  74.2342806  39.8727369  41.1513662  72.9442215  39.4580746  40.4769802
  37.5310089  24.8312743  15.0174549  37.8530551  25.3164132  14.2577484
  36.5820791  24.9549563  14.9959495   5.8097514  14.0968263  59.0310240
   5.9918173  13.3690858  59.6255636   6.6737040  14.3999052  58.7518263
  58.5847139  71.5820980  71.8173504  57.6456642  71.6537380  71.6462374
  58.9937925  71.6946554  70.9593201  82.3149034  61.9269510  40.3914097
  81.3975450  62.0680650  40.1573684  82.3665782  60.9957751  40.6069782
   5.6106787  76.7514785  30.7776096   6.3776665  76.2522777  30.4969623
   5.5724840  77.4922093  30.1725509  33.9179040   3.6779816   4.9460247
  34.7566987   3.8322957   4.5114591  33.3035470   3.5157282   4.2301586
  88.9493179  33.6213183  72.3370028  89.5516777  33.6719036  73.0791807
  88.7786961  32.6855040  72.2303629  68.4334566  36.8765576   2.8108862
  67.9513647  37.5789292   2.3744323  68.1541349  36.9265015   3.7250641
  56.7764570  30.2007802  16.8275573  55.9114839  30.5723841  16.6544750
  56.7729475  29.3613846  16.3675335  89.4270992  52.6711130  51.4142418
  90.0855064  52.8858662  52.0750093  89.0013218  51.8815231  51.7481565
  22.9661350  65.3464445  10.2097442  22.4908238  64.5159419  10.1856926
  23.5561638  65.3066071   9.4570759  10.5668219  62.5985336  43.5473251
  10.7153376  62.7847624  42.6202393   9.9711569  63.2891607  43.8379240
   4.3550452  36.3356042  52.0007515   4.3747100  35.4507613  52.3653030
   4.1698512  36.2073040  51.0704422  84.2847349   6.8649323   4.9945619
  84.2995454   7.3846991   4.1909101  83.3546640   6.7236979   5.1713445
  66.3531305  17.0003827  38.5565593  65.8086492  16.2358744  38.3686760
  66.8811990  17.1182282  37.7669456  19.7066383  79.3854960  20.5789116
  19.5340900  79.2889961  19.6423557  18.8557034  79.6059640  20.9577682
  74.2570400  83.8464260  42.7061701  73.5794449  84.0437317  43.3528280
  74.1425467  82.9153728  42.5157452  37.4485453  66.8615437  56.9788694
  37.1001586  66.3228178  56.2684965  38.2776316  66.4437246  57.2118616
  77.9659462  68.6533451  50.9531927  78.4309387  69.1709995  51.6104937
  77.2647333  69.2286730  50.6473589  35.3782846   4.8152096  23.4446647
  35.9796335   4.3140824  22.8937652  34.5087005   4.4998867  23.1984356
  70.8274821  85.1617336  54.8989677  70.1702002  84.7125051  55.4303932
  71.6433123  84.6961404  55.0830173  41.8708210  80.8581932  51.1401394
  41.8085842  80.2286013  50.4218319  42.7109127  81.2959417  51.0028389
  83.8839075  73.8101443   3.9118269  84.3447086  74.0502795   3.1079414
  84.4365617  73.1397541   4.3135479  31.6653614  78.8273104   3.7065866
  31.2648850  79.3443950   3.0076769  31.2056999  79.1008528   4.5003822
  46.8369581  35.6442864  24.0214660  45.8987953  35.7885487  23.8978698
  46.9124319  35.3123744  24.9160984  88.6231797  26.5252669  34.8356750
  88.9526503  25.8959467  35.4772690  89.4056051  26.9773705  34.5200088
  37.0291187  42.2790081  29.4926002  37.5760747  41.5309365  29.7322872
  37.3765136  43.0053456  30.0102737   3.3751421   4.6699213  53.8393307
   2.7773695   4.7427820  54.5833683   2.8443747   4.2838358  53.1425810
  27.4252777  78.2243880   5.0593355  27.7842312  79.0748652   5.3124550
  27.6035767  77.6564654   5.8089378  50.7759191  44.9657948   3.2497337
  51.3631631  44.7288640   2.5319317  50.4415037  44.1287453   3.5718324
  52.1486474   7.7885897   0.2101305  51.3778593   7.7607233  -0.3567431
  52.2567464   8.7157710   0.4219892  89.6404458  12.3792202  20.6231716
  89.8110486  11.4374430  20.6363704  89.3566610  12.5837357  21.5141609
  30.0580455  11.8539031   9.0458992  29.3580820  11.6410096   9.6631267
  30.4965021  11.0186512   8.8836124  74.6556807  63.9524889  56.6068602
  74.7283936  64.3874359  57.4564266  74.2099142  64.5898104  56.0488749
  80.6687137  61.9952329   9.1524532  81.3667556  61.9975480   8.4974983
  80.0569841  62.6677545   8.8528946  60.5725574  81.6474137   7.4018314
  59.7263432  82.0190081   7.6509693  60.6032801  81.7389092   6.4495018
  72.8941986  19.5333703  49.6470668  72.9442092  20.2278503  50.3039005
  72.0864316  19.0641006  49.8557022  46.6396427  29.1255569  71.9622612
  46.2970209  28.2318735  71.9754982  47.1841717  29.1849542  72.7472401
  27.8133469  44.4998319  -0.0897000  28.4999447  45.1118391  -0.3547642
  28.1832581  44.0354070   0.6611040  10.7578068  29.2299827  13.0647018
   9.9687557  29.7635992  12.9704406  11.3183861  29.7335263  13.6549785
  74.6836778  44.8021386  12.9366710  75.4093524  44.5592039  13.5116604
  74.1831037  45.4436602  13.4407642  32.7955365  27.3375344  38.3080101
  33.1099081  26.4438558  38.1711268  33.5334253  27.8923631  38.0551887
  57.8831645  44.3197691  17.0021465  58.5245773  44.1465685  17.6912239
  57.7206632  43.4638762  16.6055706  31.8143392  22.2502851  61.7921209
  31.1433721  22.2433114  62.4747515  32.1902657  23.1295419  61.8347549
  89.7383090  84.2831715   1.4133718  89.5086404  85.2108200   1.4677122
  90.3458997  84.1439064   2.1397808   6.4086107  75.0070275  69.3399572
   7.1381620  74.3988896  69.4589281   6.2500766  75.0091554  68.3959818
  73.2111454  27.6939034  63.2543659  72.2819567  27.7275920  63.0269718
  73.4873438  28.6102605  63.2697248  31.6047978   6.5033776  72.9748344
  31.2883544   5.7060814  73.3995867  30.9935713   7.1838349  73.2569933
  90.1416397  15.4521310  51.9048595  91.0145760  15.0598061  51.9216633
  90.2998447  16.3922083  51.9912243  54.4142696  50.9078570  19.9402454
  54.9202892  50.3273060  19.3717888  54.5774003  51.7848494  19.5931080
  70.7183620   6.3946017   8.8513973  71.0332557   7.2232755   8.4903267
  71.5005943   5.9785326   9.2136505  47.0151520   3.1219590  58.4411955
  46.3160944   2.5441128  58.7472010  46.7762566   3.3292991  57.5377750
  70.9858608  47.7248096  67.1277475  71.4561415  47.6062965  66.3025093
  70.2166796  48.2437992  66.8926907  40.8597497  84.3041452  41.9476795
  40.6196240  83.9635486  42.8094006  40.2957848  85.0679935  41.8263912
  71.1693307  43.5454097   6.1282661  71.9543764  44.0697517   6.2864044
  71.1660167  43.3983947   5.1824262  87.1202489  27.0920070  15.2899387
  87.7234289  26.4851757  15.7190731  86.4786168  26.5273162  14.8590496
  66.7012310  12.3306274  55.3766012  66.5858746  13.2777894  55.3003836
  65.8691645  12.0156503  55.7297087  11.3659124  75.9295066  28.6111286
  11.8115311  76.4359697  29.2902019  11.1301928  76.5761646  27.9459217
  31.4684467  54.6533974  32.0000484  31.9294434  54.9595984  31.2190559
  32.0592575  54.0088960  32.3896530  56.8566867  38.7443494  13.2344940
  57.1633598  37.8461995  13.1099537  57.6002857  39.1985749  13.6306884
  13.2296733  79.7473819  67.8260803  13.6778334  80.5703301  67.6307821
  12.4300364  80.0121577  68.2807302  42.0909548  10.1334703  62.5284863
  42.2832346   9.2717332  62.8981733  42.8722477  10.6539774  62.7152729
  30.4362988  29.4519711  68.5041666  30.5236888  29.1639805  69.4128227
  31.3274860  29.4207573  68.1562567  72.0461913  59.6645506  16.6194084
  72.7821466  60.2754184  16.5814903  72.3882171  58.9066144  17.0935276
  70.4695007  35.1914897  21.0199955  69.5936653  35.5204453  21.2223079
  70.3761622  34.2389222  21.0315731  18.4976225  48.6839118  21.5478447
  19.0196590  47.9583826  21.8903663  17.9286461  48.2809057  20.8920410
  34.1735249  52.9885086  38.9552334  33.9129429  53.9033016  39.0623787
  34.1098957  52.6167288  39.8349788  17.4311006  30.8034086  65.6965065
  18.2801807  30.3617573  65.7118607  16.8760931  30.2368665  65.1605654
  66.1153471   8.6308510  48.5523346  65.5990099   9.4362290  48.5839584
  65.5464586   7.9987175  48.1130150  80.8580112  15.2487326  54.2970800
  80.3747940  15.8232880  53.7032652  80.4284763  14.3978274  54.2093945
   3.4892016  64.7096785   6.0394600   3.1228619  65.3756174   5.4576090
   3.1385784  63.8829621   5.7080486   4.8354963  85.3535252  54.9377012
   5.1441196  86.1966618  55.2695227   5.5280713  85.0613287  54.3450880
  12.7415781  42.5889204   6.8656280  13.6097651  42.2048612   6.9880321
  12.6830034  42.7535067   5.9245041  82.4507523   3.8940492  38.8583803
  83.0282497   3.4751046  39.4965124  81.5868664   3.8778561  39.2702889
  64.9017668  43.0364132  55.2439880  64.0100861  42.7612066  55.4570532
  65.3574467  43.0447245  56.0857201  38.5908294  24.7492075  65.1710463
  38.2214689  24.0005445  64.7027397  39.4882631  24.8166180  64.8450136
  22.6015453  25.1292344   1.6052082  22.8974133  24.2206033   1.5496853
  23.2543354  25.5604084   2.1567323  20.7059029  76.5285791  70.7368183
  21.2805775  76.2474442  70.0248146  20.3103665  77.3402561  70.4190731
  73.4390041  54.9259432  16.2306717  72.7570650  54.3596538  16.5919235
  73.9952585  54.3362399  15.7216861  71.3305780  23.4141036  11.2553909
  71.7564937  22.8888472  11.9328430  72.0277091  23.9729591  10.9119919
  60.7894155  73.9222654  10.3710201  61.5026781  73.6242827  10.9355476
  61.2279817  74.3653139   9.6446636  18.6227664   7.6438266  46.7619610
  19.0978583   7.0922440  46.1404467  18.1912287   7.0245278  47.3505831
   3.1634482  10.4292023  53.5357714   2.3520144   9.9957812  53.8002682
   3.7719496  10.2575028  54.2544270  55.6466818   6.5463430  69.0004349
  55.4895353   7.4682498  68.7964106  56.4084244   6.5557665  69.5799971
  84.8804283  25.6511164  69.2995262  85.8216286  25.5419087  69.4353771
  84.7998524  26.4889669  68.8437319  54.6160488  68.0159815  21.6284397
  55.3254776  67.4512824  21.9351318  54.7467594  68.0720862  20.6818702
  73.8648435  42.9275641  11.3859584  72.9238721  43.0779613  11.4764335
  74.2655441  43.5377175  12.0051410  57.0174548  72.0743402   3.0961015
  56.9283363  71.1590227   3.3615902  56.1276409  72.4243267   3.1405142
  27.7593878  82.2900597  52.3468685  27.9742077  83.0702070  51.8355417
  28.5768345  81.7931906  52.3805714  88.6779637  72.9141987  64.8789787
  89.1739030  73.4333182  64.2458963  89.3109770  72.7057196  65.5660486
  35.3436470  23.9009738  64.2133522  34.8635793  24.3204761  63.4993601
  34.6739769  23.7016487  64.8676014  75.3047964  47.3730641  34.5865085
  74.6463701  47.2046002  33.9124706  75.1618310  46.6864206  35.2379062
   5.4501704  84.3585385  58.4909344   5.3628162  83.8890220  57.6613808
   5.4165557  83.6734563  59.1585875  38.3187512  79.0400983  53.9526606
  38.0733279  78.3475477  54.5661545  38.2703618  78.6253078  53.0913591
  84.7245857  15.4686125   6.2007358  84.6672841  15.3333815   5.2548721
  85.6431314  15.6886037   6.3560226  83.3212778  54.5110341  12.2071483
  82.5278303  54.2653247  12.6828602  83.7797376  55.1081701  12.7983120
  73.1643152   0.7522343  67.1196079  72.8870440   0.3271481  66.3080311
  72.4357271   0.6121516  67.7243900  84.9046203  60.2967235   7.2822597
  84.5832893  59.4988056   6.8623760  84.8261234  60.1221260   8.2201221
  42.4691391   8.9642680  66.9108534  43.1344128   8.7375009  67.5606441
  42.5570011   9.9107689  66.7983913  28.9430904  23.4680986  69.0244436
  29.4183707  22.7446747  69.4330931  28.1193495  23.0783653  68.7315416
  87.6655908  73.5915698  71.0470581  88.1013794  74.2852295  70.5519247
  86.7662544  73.9017201  71.1530495  66.8104979  77.7692588  11.3267162
  66.8497535  76.8592699  11.0324218  67.3662301  78.2448467  10.7092884
  72.8410121  81.7114170   7.9194381  71.9340392  81.7076810   8.2254150
  73.1467649  80.8162054   8.0655410  36.0457686  84.7110833  66.0224771
  36.4347962  85.3932958  65.4752350  36.2088135  85.0018212  66.9197607
  80.8736297  62.8142758  11.7220047  80.6552240  63.7457570  11.6924408
  80.7741519  62.5161346  10.8178737  67.3110342   2.7530089  70.9428549
  66.4709663   3.1579733  71.1585426  67.9162025   3.0905411  71.6032124
  82.5818157  32.5797582  62.1792126  81.9278431  33.0503321  62.6960373
  82.3095322  32.7115536  61.2710714  82.1723052  78.1475767   3.7881591
  82.6756069  77.6460107   3.1467941  81.3052961  77.7420028   3.7824180
  26.2009335  10.3936505  62.0789385  25.8429146  11.1935627  62.4639034
  26.5229559   9.8910546  62.8272247  63.1391287  12.2531486  59.6817064
  63.0772781  12.9551709  60.3294516  64.0781116  12.0880365  59.5963764
  33.6933022  53.9602407   9.1014602  34.2717629  53.2096883   9.2366626
  32.8561764  53.6882671   9.4776180  87.2027493  35.3335476  68.6792231
  86.4292717  34.7701406  68.6560535  87.1301842  35.8724833  67.8914976
   7.3310022  52.9124530  29.2939785   8.1631784  53.0408700  28.8387611
   6.7974787  52.4079158  28.6799457   6.8149909   8.3609933  60.5613327
   6.9166907   7.7176809  61.2627888   7.5442942   8.9683396  60.6857681
  61.3525343  33.2237506  53.8046598  60.8150148  32.5093126  53.4627771
  61.8585587  32.8251290  54.5126629  70.3161907  16.4122236  70.0797272
  69.6762323  16.2915099  70.7812357  70.4785824  17.3554063  70.0633621
  70.1540300  81.0319217  22.7126339  69.8615905  80.8896168  23.6128929
  69.6734926  80.3825196  22.1992233  84.0246201  47.4484062  48.9808321
  83.6212826  48.2645988  48.6852503  83.3347511  47.0055580  49.4749928
  83.2931539  51.8981447   9.8111847  83.4528610  51.1589029   9.2244556
  83.3261701  52.6670887   9.2420890  84.4658375   1.1483017  74.0924454
  84.2870045   0.2695005  73.7578392  83.9067268   1.2287273  74.8652077
  48.6144427  83.3750222  72.8301477  48.0802945  84.0858937  72.4757767
  48.0449227  82.9413478  73.4656000  59.7710684  82.6040826  71.2351608
  59.5941523  81.6634698  71.2486315  60.5484561  82.7094598  71.7836046
  43.1316689  72.2049833  60.2611494  43.3085660  73.1413282  60.1705980
  43.5408381  71.8084539  59.4920111  56.6949650  29.4103583  12.1933582
  57.3054119  30.1221128  12.3856952  55.8366558  29.7595306  12.4333885
  28.0925732  58.9744731  31.4747932  28.7105255  58.7327178  32.1646717
  27.2302704  58.8251921  31.8625667  12.4592456  24.4093752  59.0504169
  12.3148307  24.3267512  58.1077909  13.3584937  24.1089988  59.1821861
   0.1182919  60.4185637  10.1521804   0.0610142  59.7240635   9.4959667
   0.3350143  59.9624606  10.9653404  76.6443491  21.2807775  57.1956682
  75.8736563  20.7942152  57.4881124  76.3455486  21.7611766  56.4235497
  72.0403358  31.5208407   4.0725734  71.3451358  32.1787604   4.0810230
  72.5039026  31.6727873   3.2490137  39.6960330   4.6905240  66.2546349
  39.3490171   4.8749715  65.3818321  39.9725962   5.5442083  66.5877581
  52.5461006  31.8164349  71.0893679  51.9336653  32.2820997  70.5198860
  53.4043360  31.9694161  70.6940651  27.2545700  43.5466444   4.1238096
  26.5390949  43.5180293   3.4885814  27.9215317  44.0936436   3.7088564
  14.9618865   3.3553107  14.5458439  15.5632259   3.3366425  13.8013485
  14.1674377   3.7636788  14.2018631  90.8441516  51.5727659   1.7518404
  91.3360711  51.6413434   0.9335830  90.2085563  50.8752497   1.5914562
   2.8089361  35.7740839   6.3473442   2.8332834  36.0975625   5.4467848
   2.6306324  36.5516140   6.8763855  71.1268500  79.3508799  64.0522671
  70.7086352  79.4702477  64.9049568  71.9997576  79.7289724  64.1586065
  73.2122115  57.6677919  57.4176598  72.5309065  58.2369042  57.0596600
  73.8701418  57.6164413  56.7243147  83.5235310  20.0895929  61.4296103
  82.6944733  19.8879647  61.8634748  84.1501141  19.4761372  61.8134117
  49.7616747  81.2768731  71.5665531  49.2566804  80.4718412  71.6811609
  49.1989115  81.9651676  71.9212103  63.6646959  64.7374519   3.1376484
  63.8675639  63.9651354   3.6654785  64.4557997  65.2742704   3.1847170
  19.3249588  42.8542782  19.7366741  19.5899372  41.9812721  20.0262954
  19.4155483  42.8283830  18.7841251   0.3654822   9.4482398  63.2054234
   0.3793486   9.0629083  64.0815258  -0.4959146   9.8602468  63.1385803
   9.5747070   2.2902592  18.8819053  10.1089554   1.7158230  19.4303825
  10.1931410   2.9331549  18.5348442  55.7106951  71.1080039  71.0202456
  55.8703974  71.5652622  70.1946306  54.7590998  71.1236001  71.1225033
  58.4773140  76.3358053  26.6355064  58.5681229  75.6306513  27.2763946
  57.6328259  76.7376073  26.8395355   2.4902372  45.8777692   2.6887825
   2.1298342  46.7502951   2.8470352   1.7625885  45.2820649   2.8673818
   5.0795993  52.9127073  70.9257555   4.9596461  51.9800043  70.7471180
   5.5065879  52.9395962  71.7820263  23.8835793  61.5424999  11.3597324
  24.3604260  60.7147284  11.2993553  22.9624443  61.2946244  11.2803486
  87.1011829  30.6085205  62.5188303  87.1902180  31.4981890  62.1770811
  86.6113472  30.1401782  61.8428516  31.9551354  78.4183010  23.8375118
  32.2691517  79.2486151  23.4794548  31.9678764  78.5463890  24.7860172
  82.1792793  27.4729586  34.7188950  82.9153824  27.9545355  35.0963330
  82.4369812  27.3147726  33.8107133  81.0933134  71.7535933  27.4282005
  81.8537113  71.8033369  28.0074623  80.3404638  71.8353327  28.0136612
  44.3978577  40.7030033  27.1099403  43.8048821  41.4221191  26.8920257
  43.9059334  40.1670786  27.7320602   1.9138106  25.0012708  67.1316814
   2.2551688  25.8791661  67.3019934   1.6185626  25.0314689  66.2216520
  85.3902245  40.5160856  71.8315887  85.2020931  41.2987900  72.3494816
  85.4347610  39.8084211  72.4745989  37.9328041  58.1873425  12.1857670
  38.7246780  58.6183890  11.8642738  38.2499008  57.5507029  12.8263691
  76.5592098  44.3239164  46.4448547  76.7851973  43.8816643  47.2631311
  77.3833609  44.3660784  45.9598589  75.9957552  22.5240159  62.0077419
  75.2043247  22.6446247  61.4830256  75.7619095  22.8573942  62.8740025
  53.5362387  27.3487329  52.7657223  54.1235733  28.0961514  52.6533127
  53.1196880  27.2407365  51.9107056  28.5399990  61.0461482  23.3747127
  28.5080032  61.3027974  24.2963054  28.1351833  60.1790257  23.3533695
   6.6822748  68.6557444  36.3607910   6.7644005  68.6721810  37.3143222
   5.7625465  68.4424027  36.2032535  13.1307058  55.2349742   6.7261913
  13.6700325  55.5487390   6.0003116  12.2913055  55.0138446   6.3227775
  34.0423183  85.4311617  20.7124355  34.5965080  84.6563347  20.8060196
  34.1220264  85.8853682  21.5512207  54.6478654   2.5007088   6.7494228
  53.9255525   2.0995934   7.2327354  54.6008874   3.4295781   6.9757488
   2.1356352  38.9208746  70.7409143   2.3019751  38.7601852  71.6697550
   1.6594466  38.1449914  70.4451418  80.4281235  34.3059683  62.2655678
  80.5168343  34.6143961  63.1673622  79.5864201  33.8504243  62.2499371
  53.1083373  73.6998297  68.6132431  52.9378108  74.4668723  69.1598701
  52.9116419  72.9536260  69.1795683   7.8525572  59.4910022   6.2749031
   7.6988058  58.5660490   6.0824135   8.7289505  59.5132144   6.6591861
  49.6113280  78.4233863  69.4566298  49.9627093  79.3128170  69.4157171
  49.3854884  78.2972367  70.3782129  35.2060585  70.0309857   5.9478023
  34.5978146  70.4993638   5.3760603  35.1274281  70.4719957   6.7937114
  80.1430035  28.1308031  73.3032942  80.7457638  27.5372910  73.7512398
  79.9263954  28.7927032  73.9599562  26.0150099  23.5469794  68.6511898
  26.3792729  24.3187618  68.2177210  25.4225969  23.1656122  68.0032396
  25.7993488  59.6102055  21.5418079  25.9300022  59.0637501  20.7668617
  26.1803417  59.1036519  22.2590759  12.6592501  38.5483193  44.9570513
  12.3618182  37.6743793  45.2100229  12.2187194  39.1377687  45.5691957
  83.8300889   2.5261862   1.7029598  83.7538617   1.7973454   1.0871532
  84.7106951   2.4400980   2.0681360  35.1586798  77.1251745  65.2305841
  35.4256610  77.4816204  64.3832970  35.4731635  77.7649106  65.8693886
  71.6014290  20.4932141  53.3834076  71.2481451  21.1665297  53.9648438
  72.3535681  20.1382113  53.8572121  14.7330551  49.0909936  18.7139728
  15.6515627  48.8303884  18.7822273  14.7305756  49.7909703  18.0610874
  87.2171518  45.5779000   4.1493204  86.5302297  45.4687006   4.8069217
  86.7493984  45.8351194   3.3547905  81.9800350  30.5064770   4.2828539
  82.4243709  29.7356602   3.9298084  82.1627256  31.1997112   3.6485937
  66.1266157  55.6306454   9.0112713  66.5855309  55.0880345   8.3700206
  65.2730628  55.8016594   8.6132362  11.1316451  44.8039150  54.9282026
  10.2169284  44.5650864  54.7782898  11.3491019  45.3873587  54.2011929
  61.0281229  33.0851221  65.1480484  61.9622993  32.9965067  65.3369761
  60.9303951  33.9862728  64.8404646  61.3776350  27.0784569  62.1472359
  61.8711996  26.4528179  62.6775217  60.8543921  26.5337396  61.5592432
  25.7622298   4.9815360  61.1686754  26.2190303   5.4952407  61.8347645
  26.1790141   5.2332193  60.3445530  51.6927033  74.7315796  23.7174537
  51.7068653  75.6709965  23.9005497  52.4609547  74.5834406  23.1660106
  68.0793476  46.5667343  41.4298868  67.9249620  45.8880949  40.7727337
  68.9231157  46.9478655  41.1869335   6.9779833  43.3106899  67.8377342
   7.0992240  43.0870152  68.7605000   7.2795542  42.5367212  67.3620558
  26.8066483  31.7974027  20.5777481  26.4682274  31.1345514  21.1796882
  27.6506691  31.4502092  20.2890804  52.1062899  21.8850684  72.7896118
  51.3499165  22.3920798  73.0846834  52.8257132  22.1817851  73.3469486
  74.2300129  12.4223590  64.5783663  73.5550785  12.2699785  63.9169455
  74.6306801  13.2537961  64.3245792  68.9621925  41.8377399  49.2941475
  68.2279539  41.3275528  48.9523458  69.6686649  41.6918993  48.6649704
  10.4878863   8.3039272  64.1090918  11.1478766   8.6643624  63.5168695
  10.9856566   7.7614480  64.7207832  65.0610352  19.8389363  68.7308884
  65.9847355  19.6543336  68.5607910  64.7232533  19.0322161  69.1199064
  56.6338519  81.6639251  48.4797573  57.2125510  81.8233598  47.7341604
  56.7815951  80.7455421  48.7055349  89.7355148  77.4363335   3.8422802
  88.8600608  77.1600398   4.1133478  90.3140518  76.7417057   4.1569545
  44.0644864  75.4441131  68.9582396  43.9796523  75.2027274  69.8806143
  43.1916979  75.3013516  68.5920525  69.3858858  65.0678547  19.0305355
  69.7157284  65.3643115  19.8787906  69.6599170  64.1524847  18.9736107
  34.8773793  68.2975841  60.7991695  34.0395859  67.8614355  60.9544468
  34.9553565  68.9282919  61.5149593   2.7618198  71.9289311   5.2881172
   2.4428206  72.4269017   4.5354583   2.0139961  71.8906983   5.8843734
  55.0884771  61.5680075  67.5718594  54.7216845  61.6304684  68.4537840
  55.7366037  62.2712517  67.5316572  34.0930390  15.4377973  65.8269644
  34.5865870  15.7795382  66.5725231  33.3911824  16.0745609  65.6922054
  64.0236759  15.4335570  71.1645174  64.0642309  15.9815705  70.3807640
  63.0879021  15.3380346  71.3418198  11.4744263  58.2049282  13.0976417
  11.3316326  58.1225928  14.0405395  12.3381500  57.8190680  12.9516056
  58.0862379  33.7142587  57.4385977  58.5766888  34.5043778  57.2118759
  58.1033850  33.1847072  56.6414070  40.6301003  34.3764069   0.0964191
  40.4383926  34.2167350   1.0205295  41.4504509  34.8695662   0.1037243
  53.5592937  27.2359848  69.9393797  52.7390242  27.5035977  69.5249319
  54.2139959  27.3108554  69.2451239   8.0202084  22.9733070  11.2986019
   8.6693363  22.3367222  11.5979793   8.4013109  23.8241251  11.5156295
  13.3606129  19.9808320   0.0594309  13.0994110  20.6906923  -0.5271694
  13.1181269  20.2899345   0.9322908  16.0610608  83.0927558  69.2243385
  15.4683140  83.2634349  68.4923887  16.7048291  82.4777568  68.8728094
  18.7666949  17.4391854  64.4510555  19.1049918  16.6351223  64.8450947
  17.9991397  17.1574605  63.9533281  83.8887617  82.6212247   6.9323375
  84.5998355  83.0640753   7.3954704  84.2938777  82.2921904   6.1299350
  -0.0046388  36.7263412  31.8935585   0.6659850  36.9830441  32.5264859
  -0.0161973  37.4389315  31.2545657  52.5994444  40.6949615  69.6874332
  53.5184717  40.4380846  69.7625256  52.3144197  40.8318233  70.5909061
  83.5215187  51.4684486  58.4058905  83.1192970  50.6839752  58.7787867
  82.8589058  51.8169165  57.8094435  33.1181126  17.8095969  19.3878200
  33.1398563  18.5836776  19.9504593  33.2619648  17.0754059  19.9848964
  74.8680210  35.4031515  67.4164772  75.4408169  34.8626137  67.9604912
  74.5590210  34.8103523  66.7313910  69.5443822  12.6413138  23.6441829
  69.0925981  11.9697888  23.1331279  69.0381052  13.4392531  23.4918621
  34.8250677  13.3520348  12.1150139  35.6226207  13.5186655  12.6173904
  34.2434408  12.9053814  12.7301910   7.0608311  66.8687733   7.0587757
   7.9003315  67.1822890   7.3951938   7.0869045  65.9216579   7.1948745
  51.2650471  62.7791031  10.3727558  51.1696892  63.3600791   9.6180370
  52.1857815  62.8592237  10.6218746  66.9680020  34.7961023   9.8030689
  66.2242481  35.1393249  10.2983024  67.5075933  35.5647095   9.6178272
  36.2168579  33.0608763   0.3701904  35.9517555  32.3501368  -0.2135918
  35.5324154  33.0896147   1.0387304  30.5719452  55.4799207   3.1755378
  30.2357941  55.5201431   2.2802093  29.9586086  54.9073180   3.6361578
  69.1259384  19.1519535  73.3832741  69.0841007  18.9903474  74.3258047
  69.7339249  19.8857141  73.2928324  82.6698780   2.0545733  64.0212727
  82.4678326   2.8035241  64.5820570  83.5614395   1.8061380  64.2654657
  60.8598804  54.3144083  67.3788261  60.5052328  54.2106628  66.4958239
  61.6789579  53.8192129  67.3676777  75.4469272  38.6520090   2.5145033
  76.0472080  38.6787172   1.7694023  76.0028764  38.4327908   3.2622316
   8.3303671  51.4667728  22.8621223   7.7449684  51.6329320  23.6009910
   8.6959629  50.5995037  23.0365303  32.0192460  70.0020994  61.9333839
  31.8581036  69.0616942  61.8565512  31.9395188  70.1830328  62.8699398
  57.1202707   7.0324975  73.8749838  57.6537561   6.2604827  74.0637112
  56.8621445   7.3615718  74.7359800   2.2372302  28.7495565  25.5176377
   2.2573622  29.4500089  26.1697054   3.1576213  28.5290027  25.3745556
  32.6226215  56.1465367   4.5692423  33.1522255  55.3526803   4.6437242
  31.8434315  55.8702465   4.0867880  39.2316322  52.0557155  10.0666835
  38.6928349  52.7362128   9.6631363  38.6893063  51.2678154  10.0302627
  87.5151369  34.4526293   8.8106373  88.3567544  34.3232228   9.2478683
  87.7383872  34.8768171   7.9821136  61.4286801  47.8284215   9.1689136
  62.2856089  48.2016196   9.3753841  61.2376830  48.1417837   8.2848575
  13.5231190  53.3206256  10.5517891  13.6019354  53.2667037   9.5993641
  14.3354492  52.9363700  10.8814838  70.6943655  27.7216578  51.6021729
  70.7480145  26.7684293  51.5335369  69.7661543  27.8989530  51.7545700
  84.6533108   4.7207206  60.7201004  84.5591450   4.9059525  61.6544724
  84.4042873   3.8006866  60.6320286  21.7054348  79.2664321   2.0882919
  22.5249748  79.7531136   2.1762159  21.7837124  78.8154276   1.2476375
  21.6816025  65.8714350  23.8172176  20.7413368  66.0035356  23.6960628
  21.9111614  65.1902231  23.1851700  66.2540436  14.1888213  64.2042780
  66.6343307  15.0641549  64.2777967  65.9045553  14.1535330  63.3138561
  64.2944070  23.2990893  25.8818462  64.1432616  23.6623951  26.7544296
  63.4194371  23.0910238  25.5541828  14.5459040  34.4390392  69.6063948
  14.0997084  35.2566767  69.8268557  15.4695948  34.6808863  69.5390177
   0.4548987  29.4431686  62.3938036  -0.1659433  29.1003370  63.0366516
   0.3297480  30.3917289  62.4221706  76.4457035  26.8525672  66.7330837
  76.3078022  26.0466933  67.2308588  76.1253071  26.6490960  65.8543444
  60.3572273  34.9831486  67.7476120  60.6138849  35.6504703  67.1111822
  60.9090710  34.2291498  67.5397873  27.1610146  40.3766256   4.7462776
  27.3375206  39.6745213   5.3724792  27.9523640  40.4236498   4.2098262
  86.5948868   1.3716914  72.6421976  87.4180126   1.3657805  73.1307364
  85.9207916   1.2306286  73.3069706  16.5237598  68.8145622   5.6434086
  17.3368864  69.3084176   5.5377557  16.1004477  69.2102989   6.4052704
  43.1394175  76.6271640  42.4010468  43.6047820  76.0678882  43.0230474
  42.4190739  76.0833002  42.0823860   2.0801144  77.0615776  18.0823352
   1.3357143  76.9191202  17.4976947   2.8067522  77.2755297  17.4971321
  79.5435810  15.1047158  46.7007542  80.3166676  15.6032062  46.9654560
  78.8930273  15.7711399  46.4796400   2.2616415  39.8955508   1.1172846
   2.7350693  40.6967076   0.8931329   2.6142006  39.6395030   1.9695594
  62.3131181   0.5677588   1.8706443  61.6280843  -0.0238531   2.1820285
  62.0906831   0.7303460   0.9539535  87.3752948  51.6492279  16.0121563
  86.5009281  51.9781848  16.2207248  87.6443120  52.1539821  15.2446392
  68.1001091  31.1332464  51.2091303  68.8146591  31.7531800  51.0630560
  67.5474358  31.5554309  51.8668127  40.2705630  20.7319427  62.8903008
  39.3257006  20.5924845  62.8268337  40.6044158  19.9305248  63.2934189
  36.9851426  83.1101496  69.4602919  37.4657324  82.5652314  68.8371325
  37.5000790  83.0637986  70.2658510  45.8105450  48.4406700   1.5977123
  45.0646381  48.2561304   2.1685007  46.4017563  48.9647736   2.1380975
  77.7270222  46.8507385  65.3658772  78.3269596  47.2441816  65.9995270
  77.9602909  47.2568226  64.5310640  72.4795294  16.2194836  65.8374023
  72.4480200  15.8551729  64.9528027  71.6671848  16.7190230  65.9197760
  77.6920080  33.0506897  36.1021352  78.5443926  33.0398893  36.5375161
  77.1497297  32.4579287  36.6225195  77.5559207  50.8294674   4.0003898
  77.3243162  51.6595157   3.5837248  78.1035301  51.0796168   4.7445562
  39.3293191   4.4475062   6.3503483  40.2026369   4.2608101   6.0058334
  39.4208003   5.2931101   6.7894581  58.3245707  17.2242379  60.7076502
  59.1542721  16.7470229  60.6978464  58.4890127  18.0015206  60.1737785
  76.8535519  13.3964860  59.7371244  77.4060678  13.9484203  60.2905893
  77.4398279  12.7072287  59.4249773  31.7148141  64.1907574  55.2228498
  31.2383202  64.7623921  54.6208334  32.5220708  63.9722205  54.7572231
  38.5564117  63.6711486  23.4422805  38.4353714  63.4750327  24.3713215
  38.7706642  62.8269502  23.0452182   8.0359103   3.3013995  15.4118946
   8.7678887   3.9159710  15.4642322   7.2808815   3.8011868  15.7223442
  71.4414474  54.8096939   2.8239944  70.5784961  55.1184495   2.5479248
  72.0542642  55.4371627   2.4406316  67.7718067  17.8396261  68.6698389
  68.6694050  17.8882754  68.3409357  67.8654099  17.5632179  69.5814657
  15.6471308  38.9097762  62.0806599  16.3172492  38.2283902  62.0269775
  15.2947196  38.9696121  61.1927080  74.8379326  20.4044747  59.7428608
  73.9525509  20.6908107  59.5184994  75.1991224  21.1251116  60.2590561
  67.0088148  31.3367367  59.1164827  67.3597240  31.9694829  58.4898043
  67.7121162  31.2162900  59.7545195  23.3219489  46.3572693  70.5919075
  23.7972220  46.6184092  71.3806725  22.4146041  46.2589741  70.8805180
  13.4532957  56.4440318  11.6150596  13.1688194  55.6448706  11.1716106
  13.9971905  56.8954583  10.9695938  88.4461471  77.6795729  37.0930412
  87.8730937  77.5178917  37.8425052  89.2987987  77.8755673  37.4813678
  88.0384159  21.7283010  60.6921816  88.1964493  20.8399105  61.0115862
  87.3553562  22.0718908  61.2680244  32.9246405  85.5389934  66.8688774
  33.4394911  84.8306333  66.4823771  32.2905425  85.7718105  66.1906815
  76.5932560  10.4559505  62.7475786  76.7906237  11.2624085  63.2239294
  75.9723759  10.7237911  62.0700884   8.4589442   6.6607338  71.6387558
   9.2188700   6.1681521  71.9487667   8.5874041   7.5432223  71.9865227
  56.0880443  72.8510626  15.4237487  55.4190561  72.2007926  15.2096584
  56.7380997  72.7644070  14.7264984  46.0496405  83.3365295  14.3604219
  46.8864134  82.8760321  14.2973042  46.2594632  84.2452095  14.1447639
  67.7764606  15.0344455  73.5677052  67.9582596  14.1028690  73.4438276
  68.0398560  15.2118707  74.4706869  11.3665351  40.5276299  62.2131968
  12.1172007  40.1929855  62.7038479  11.1032160  39.7986031  61.6515827
  84.3033409  41.1381483  61.3658571  84.5162010  41.7654991  60.6749487
  83.8752842  40.4143429  60.9085798  83.2987690  31.9871831  69.3568468
  82.8196526  31.2847447  68.9172363  82.6167488  32.5711799  69.6885347
  71.2284327  49.9416828  73.1297827  70.9998322  49.0996504  72.7361393
  71.4345932  50.5062532  72.3848009  10.2220591   1.8093944  73.9692593
   9.7680529   2.3334263  74.6291828   9.6027621   1.7515834  73.2416964
  15.7857065  83.4092720   6.2623241  16.4969902  83.2955607   5.6319549
  15.3816681  84.2424448   6.0198238  69.7265150   2.4938471  16.5593174
  70.0702287   1.6109784  16.4227989  68.8701345   2.4862320  16.1317756
  69.3699598  35.5965018  62.2023582  68.7250900  36.1123562  61.7183447
  68.8478851  35.0541091  62.7935314  22.2701149  67.7096637  46.1761406
  22.4121265  68.6561593  46.1906841  21.4302902  67.6002987  45.7300975
  16.4961033  76.6571077  27.3562839  15.7055550  77.1099981  27.0627716
  17.1137838  76.7598899  26.6323021  58.0070571  83.7796160  39.8355079
  58.4868220  84.6043710  39.9119067  57.1271018  83.9842168  40.1518154
  33.3336906  63.9427861  19.2682388  32.7842217  63.6574253  19.9982288
  33.8474064  64.6677574  19.6242550  81.6304111   9.7239149  36.9070911
  81.7618561  10.2873826  36.1445570  80.9698009   9.0907991  36.6260362
  70.1158857  28.2463622  65.4057360  69.5058918  28.3205080  66.1396599
  69.7561646  28.8275957  64.7356606  20.4219206  37.5261617  22.9968905
  20.2890261  37.6096845  23.9411330  21.2707480  37.0919728  22.9119682
  69.5010805  25.1758695  66.9234180  69.9103069  25.2298522  66.0597897
  69.8240089  25.9466982  67.3900795  81.9727898  19.8786688  55.3870916
  82.0304108  20.2728510  56.2574577  82.6508045  19.2030048  55.3848076
  17.2411784  37.8937840  64.6311188  16.3026866  37.7916360  64.4729471
  17.6545485  37.5939608  63.8215113  72.9213524  16.8732357  57.8064728
  73.8691664  16.9464815  57.6946211  72.7641630  15.9346724  57.9095364
  73.1808567  45.7343149  63.9291573  73.0291080  45.6255245  62.9903412
  72.4142981  45.3378582  64.3432045  50.7058886  82.1737758  52.4453592
  50.6508044  81.2978531  52.0633173  49.8054484  82.4981875  52.4314833
  66.5784502  30.4400349  44.3279028  66.4749336  29.6687007  43.7706232
  65.7909155  30.4499292  44.8718882  89.9771309  31.5316391  56.1287594
  89.2885399  31.4366317  56.7868185  89.9436092  32.4549627  55.8785963
  33.2234554  48.3037009  25.8913353  32.9827671  47.8407433  26.6938141
  33.3887558  49.2031165  26.1741092  82.2374630  35.7237720  52.4129105
  82.4300098  36.6364598  52.1980715  82.1967602  35.2815628  51.5649557
  11.1344109   7.6558001  12.8781059  11.2169991   8.1349118  13.7026432
  10.5092297   6.9565566  13.0689838  79.2943716  20.4146504  47.5288296
  79.9440670  19.9111593  47.0382929  79.4129324  20.1377749  48.4374094
  87.6575375  33.3966184  66.1757421  88.1801605  32.9718614  66.8559456
  86.8338203  32.9091263  66.1671638  70.2073050  62.5234079  73.3951092
  70.6824827  63.3465481  73.5086012  69.2840004  62.7749920  73.4161234
  49.2392923   5.5526335   6.0851791  48.4680177   5.6705458   6.6396740
  49.6725179   4.7760708   6.4394405  42.6291351  66.1584433  38.8565090
  43.4430676  66.2795695  39.3454673  41.9420414  66.1970981  39.5218208
  68.5143566  33.3209395  54.5056915  68.8338757  34.2229581  54.5281076
  67.8364038  33.3237171  53.8299656  51.0264207  27.0922406  10.1770141
  50.7985689  27.9753811  10.4675033  50.1834299  26.6661913  10.0218513
  68.1162548  45.0453234  64.9274111  68.4149694  45.0993538  64.0196228
  67.2438955  45.4391527  64.9163485  34.9523403   7.3441298  27.6786735
  35.7383205   7.7557595  28.0378750  35.2732374   6.5543873  27.2432830
  31.9193630  80.5012401  34.2890003  32.7208309  80.3669938  33.7831810
  32.2251205  80.6990655  35.1742103   9.8815688  63.5210514  70.4866457
  10.0640258  62.9574108  71.2384748  10.7354888  63.6562538  70.0758314
  87.2389507  11.8265283  66.6062784  87.3298454  12.0203590  65.6733274
  88.1177711  11.5680349  66.8839264  34.1176872  64.9308976   7.7023151
  34.7850208  65.0600680   7.0283630  34.1817551  64.0029057   7.9280594
   6.7763786  40.2303242  13.2788589   7.0989828  39.7289871  12.5299766
   6.5494423  41.0858743  12.9144886  66.9945528  11.8786271   9.3749740
  66.1645795  12.3177178   9.1890266  67.1346475  12.0179493  10.3115680
  23.4448012  14.4591749  42.8955984  22.7782878  15.0701904  42.5815153
  23.8404521  14.9015796  43.6465788  87.8300953  13.4480810  74.1151953
  87.5544739  14.3644500  74.1382217  87.2428799  13.0058670  74.7282600
   1.4459952  46.0265923  41.7542839   1.2100562  46.6267014  42.4616957
   0.7864245  45.3342533  41.7975378  22.5646477  58.9451917  23.0803421
  21.8128090  58.3970543  22.8555706  22.9205113  58.5491510  23.8757923
   7.7289991  69.0956696  34.0756824   7.2558050  68.9821990  34.8999622
   8.6373882  68.8829668  34.2897442   3.1546172  60.1942110  46.9814062
   2.8952178  60.3573179  46.0745764   3.2384738  61.0662508  47.3670816
  50.8760309  34.0607810  73.0810547  50.0189829  34.2934966  72.7239275
  50.6826687  33.4358406  73.7798357  82.8284836  14.5255971  44.7916508
  82.2415257  13.9043498  44.3606424  82.7889538  14.2890680  45.7183266
  14.4393214  44.7770882  65.2252007  14.6129950  45.6827116  64.9684572
  13.4868678  44.6936083  65.1793671  10.3656607  67.2717293   2.3898199
  10.0932436  67.0870264   3.2886532   9.7101526  67.8877791   2.0626762
   3.2021960  23.4662747  69.1562796   2.8540286  24.0152025  68.4536457
   2.9176577  22.5804186  68.9314842  74.7768688  39.7100639  57.9883385
  75.1352358  38.8786316  57.6776552  73.8289261  39.5772505  57.9882574
  64.4509984  11.2029583  38.9085510  64.6126462  12.1361144  39.0475681
  63.5340311  11.0795720  39.1538646  72.3064661  25.8576250  53.8347244
  71.6762066  26.3346958  54.3745470  73.1543827  26.0379887  54.2406034
  46.2966157  16.8391736  21.3639763  47.1675159  17.2184832  21.2461116
  46.1910488  16.2460215  20.6201675  69.6801855   3.3145220   2.3194959
  69.9715997   2.6340706   1.7126253  70.4488470   3.8717158   2.4416282
  10.7684668  12.4032259  53.7584352  11.4997920  11.7856658  53.7534380
  10.9007987  12.9375005  52.9753208  53.3011436  46.9265604  72.1228170
  52.4635410  46.6676712  71.7385864  53.8674688  47.0968866  71.3701630
  21.1392574  67.0198449  12.2975757  21.8889980  66.7740735  11.7556217
  21.4812927  67.6891550  12.8902462  12.0875987  12.3379552  63.7158012
  11.9675120  11.3987470  63.8561583  11.9853934  12.4539542  62.7711678
  77.6316261  16.0347402  56.1028957  77.2720623  15.5137372  55.3849125
  76.9238043  16.0771918  56.7458773   3.7196311  14.1443849  35.3265214
   3.8116988  14.8120070  36.0062528   2.7912387  13.9119434  35.3432918
  33.5339527  36.3746770  22.7981212  34.2785244  36.6227206  22.2501018
  32.7951603  36.3274767  22.1913269  64.9844170   4.0714329  72.3071623
  65.5936575   4.7029763  72.6895332  64.1796303   4.1776887  72.8143740
  31.4506341  12.5457747  11.5306022  31.3069488  11.6899807  11.9345787
  31.3725568  12.3830349  10.5905750  81.1484241   9.7890007  55.0398731
  80.4801464   9.2310625  55.4377890  81.9189739   9.6735084  55.5958796
   4.9944934  35.0589347  57.5107861   4.8522719  34.6151781  58.3468962
   5.7070025  35.6741309  57.6842928  28.6567097  74.1854771   5.1547601
  28.9528446  73.2755025   5.1326969  27.7017765  74.1259774   5.1828745
  70.7122612  28.3735752  61.7485619  69.9902439  28.9657807  61.9588327
  70.2981853  27.5160456  61.6515398  24.9409847  46.9273364  26.0939624
  24.6776562  46.2474098  26.7141178  24.7142296  47.7492126  26.5290859
  89.2265034  45.8418083  68.5958052  88.3569241  46.2105131  68.4404612
  89.0619850  44.9251127  68.8167858   2.7890738  41.7715502  70.8738565
   3.0798491  42.0499802  70.0054359   2.6177844  40.8344841  70.7800627
  82.6478386  41.4145851  48.9824200  83.3135033  41.4625835  49.6685886
  82.8415394  42.1557903  48.4085464  44.4508457  20.9602356  70.5073452
  45.2928877  21.3686609  70.7083130  44.4109440  20.9517384  69.5510197
   6.3701515  56.7388924  18.7054374   5.4746656  56.4497360  18.5301712
   6.8911676  55.9364780  18.6753204  40.2215959  17.7048762  12.2465542
  39.3541147  17.8726132  12.6147583  40.2541973  18.2429678  11.4555957
  11.2449988  38.6181140  37.2710848  12.1544322  38.5860777  37.5679708
  10.7301482  38.6355591  38.0778432  87.1547031  56.4393187  56.5292883
  87.5427437  57.1318769  55.9944820  87.1066952  55.6833220  55.9441423
  84.3322082  83.7286233  53.7488127  84.5976658  84.5576552  54.1468954
  83.9214821  83.2408226  54.4626665  11.1649951  28.5443258  48.9975262
  10.2618273  28.5574698  48.6807442  11.1577376  27.9115248  49.7156811
  66.4813328  25.7834196  45.9069586  67.2706509  25.2911472  45.6814003
  66.7997932  26.6587687  46.1273670   8.5466747  80.9903081   0.5600193
   8.8422804  81.8803390   0.3684595   7.7911549  80.8602866  -0.0131485
  47.2476913   0.0090201  11.1153915  46.8193008  -0.4819458  11.8165806
  46.6529466   0.7369502  10.9347561  90.6077644  73.2221206   1.0843828
  91.2316533  73.0363210   1.7861440  91.1145803  73.1167968   0.2792289
  71.2478830   4.0796597  11.0854938  70.7329465   3.4924538  10.5320862
  72.1393682   4.0102179  10.7439354  40.7635077  54.7009420  63.5798216
  41.5952166  54.7673845  64.0489483  40.9595259  55.0190592  62.6985645
  72.8928471  43.5584641  71.5527010  72.0511627  43.7602806  71.1439657
  73.2238626  42.8069401  71.0608959  16.9670801  78.7778338  17.4050358
  16.0998039  78.5216626  17.7187851  16.9229536  78.6600097  16.4561393
   7.1929034  79.8748970  64.6719074   7.5090941  79.0444517  65.0277328
   7.8368052  80.5207157  64.9626732  40.5588608  43.3825402  12.4517563
  41.4408951  43.3621713  12.0805099  40.4024582  44.3064668  12.6470306
  37.3294450  15.0381358  27.1256092  37.2006942  15.7734234  27.7247837
  36.8754388  14.3063481  27.5434520   0.7672482  81.9352277  21.1762169
   0.4357033  82.0749100  20.2891948   1.3865643  81.2105974  21.0890796
  21.2298258  67.7696085  56.3503885  21.9395980  67.2257805  56.0087538
  20.7566222  67.1953392  56.9524908  11.7384585  48.4180164  68.8744402
  12.0615634  48.6761761  69.7376871  10.8562335  48.7865543  68.8288498
  53.7639046  36.2107468  61.4779758  54.5587587  36.4291072  60.9913969
  53.4791565  37.0422435  61.8571377  19.0229874  81.2245019  14.2999580
  19.8881226  81.5736683  14.5140770  18.4152918  81.9208344  14.5490673
  79.3061925  10.2385886  20.3719833  79.3928052  10.5766280  19.4806602
  79.1329576  11.0136492  20.9063080  68.5494041  51.6849661  55.9452629
  69.4798088  51.8130684  55.7604074  68.4853888  50.7739544  56.2319469
  34.9340706  74.5783838  14.2060497  35.2967911  74.7267064  13.3327415
  34.3680553  75.3344067  14.3618801   1.4977225  34.5092249  71.8988609
   1.0651168  34.4755673  72.7520609   1.7169150  35.4330850  71.7777395
  66.1123800  70.6286383  57.4299240  65.1567793  70.6111908  57.4824142
  66.3532448  71.5024519  57.7376080  35.7311012   7.6759083  33.4218433
  35.3695156   8.3973486  33.9366272  35.8849145   6.9795926  34.0603759
  66.1823130  36.7708445  54.8937893  66.5869474  37.6149511  55.0937605
  65.3852987  36.7557740  55.4236698  76.4567090   1.3826830   0.3240040
  76.2121297   2.2140439   0.7305172  77.3759843   1.4955599   0.0822952
  36.8347530  46.1398875  10.2180031  36.3978844  46.9176685  10.5650356
  36.4724140  46.0340764   9.3383815  79.3645620  19.1402197  49.9206781
  79.6198797  18.3713257  49.4109249  79.4188166  18.8522768  50.8319283
  72.4351980   9.5845110   5.5083969  72.5345136  10.4887850   5.8061435
  71.8460752   9.6433384   4.7562626   0.3610762  37.0611811  69.8393631
  -0.1852170  36.3118339  70.0765991   0.2026423  37.1864080  68.9037085
  78.3721495  62.4090385  57.2429705  79.3098164  62.4837828  57.0657015
  78.1212473  61.5704918  56.8555164  26.3340359  75.1524361   8.9045837
  25.6729775  75.6895812   8.4678962  25.9852867  74.2620333   8.8622883
   1.0835800  17.6398642   2.8648451   1.8429909  18.0302508   2.4322679
   1.2305603  16.6961606   2.8011968  87.0912906  74.8685916  24.4635418
  87.1111795  73.9353665  24.2515686  87.5373527  74.9319418  25.3080776
  15.3313046  60.4588719  10.4895809  14.9521523  59.5840665  10.4047897
  16.1494713  60.3200956  10.9666279  21.9301750   9.3691237  25.9002235
  22.2217323   8.5267527  26.2489917  21.0138608   9.2260439  25.6633117
  87.1690675  53.2811149  18.8054207  87.8942415  52.8166421  19.2233017
  86.4140340  53.0993041  19.3649700  23.9680176  67.1061953  29.0410164
  23.7897091  66.2980755  29.5220306  23.4449177  67.7714928  29.4881942
  49.0249995  78.6139286  58.0118418  48.7364415  79.5057697  57.8179789
  49.8481063  78.7265367  58.4872866  15.7452067  79.9687862  52.9045630
  15.8747824  79.8982430  51.9588041  16.1732443  80.7907009  53.1443119
  18.3611926   7.9871756  73.0763960  19.1038760   8.4785384  73.4274292
  17.6513632   8.1496549  73.6976624   1.0850582   7.3984940  33.5549858
   1.2342033   7.8618891  34.3791511   1.1850128   6.4732487  33.7789467
  43.6133577   4.8093255  26.1175563  43.3940269   4.9222691  25.1926925
  42.9039670   4.2705615  26.4678791  63.0776787  25.3164625  63.7222528
  63.4949350  24.4631863  63.6037207  63.3780384  25.6126618  64.5814896
  14.0021380  61.9543552  57.7517509  13.2418975  61.4389706  58.0212736
  14.7063597  61.3125372  57.6602316  80.0179482  21.0958600  64.9168587
  79.6988058  21.2070084  65.8124208  80.1579762  20.1531577  64.8277664
  70.8107377   1.7124970  29.3907764  71.3585473   1.4821131  28.6404064
  69.9919988   1.2388308  29.2440250  19.1939505  33.7188005  57.7934313
  19.1886195  34.6663952  57.6582766  18.3316287  33.5243797  58.1606150
   0.3282508  22.4114180  37.6156259  -0.0956289  21.7000580  38.0957508
   1.2618979  22.2041202  37.6552582  83.6679268  19.7621620  67.5507307
  84.0204144  20.0186181  68.4029198  84.3212795  20.0652552  66.9202566
  89.4202900  16.0741568  62.2316408  90.2333164  16.4214098  62.5985670
  88.7482357  16.3127935  62.8700972  25.3294354  76.6659506   3.5785272
  25.6966476  77.4861153   3.9082506  25.9605389  76.3670500   2.9238537
  66.8081760   9.9874306  71.9947243  67.6032877   9.9259275  71.4653349
  66.1159849   9.6475375  71.4276505   0.5994090  43.6455536  46.0821581
   0.6681975  43.1224155  45.2835178  -0.2662603  43.4353161  46.4323711
  46.8206196  75.1071557  14.1832473  47.0704918  74.2198904  13.9252594
  46.6220646  75.5495890  13.3579853  57.7498341  49.9515486  74.2446184
  57.1007776  49.4923925  73.7115765  57.3594570  50.8095455  74.4109821
   5.8316573  32.5787520  59.4505501   6.4570960  32.7413225  58.7444162
   6.3378104  32.1132112  60.1163626  35.4180487  10.6581914  65.5328941
  34.9456557  10.2776051  64.7924662  36.2205752  11.0114312  65.1489544
   0.3175028  67.5503826  41.0842133   1.2122878  67.2916460  41.3047504
   0.4200514  68.3460569  40.5620861  37.7894287  56.7024299   8.6116054
  37.0672016  56.5952345   7.9926326  38.4894161  57.1027883   8.0958870
  19.4159564  37.9280877  54.3478441  19.8605498  37.1662450  53.9761353
  18.9434489  38.3133221  53.6099005  14.6267948   1.5863497  19.4427040
  13.8911781   2.1636612  19.2382076  14.5592938   1.4373047  20.3858211
  30.0275470   7.7658160   2.5724056  29.5685483   6.9496663   2.7710416
  30.8381559   7.7140982   3.0788353  71.4681101  44.3735504  61.9997406
  70.7674217  44.4659853  62.6452827  71.1122370  44.7654057  61.2022161
  84.1264534  44.8178482  57.5867891  83.2030582  44.7216654  57.8198671
  84.1486549  45.5772352  57.0044947  50.3397179  63.0197620  63.8833618
  50.7661676  62.6135302  63.1288147  49.4159222  63.0703735  63.6378527
  72.6736879  42.0085096  60.9611416  73.2950783  42.5087070  60.4320765
  72.0455456  42.6600981  61.2727547  84.9108887  33.1751680  44.4393396
  84.7904396  33.4465981  45.3493118  84.9749374  33.9959574  43.9510441
  90.2656364  38.0800271  72.3459673  90.5057430  38.9732909  72.0996666
  90.5205822  37.5471687  71.5927744  72.9058838  27.2569942  30.1570058
  73.3885908  27.2813988  30.9832191  72.8926802  26.3310957  29.9145865
  80.3345796  79.4529565  34.8727634  80.9031555  79.0568574  34.2124107
  80.0778600  78.7232812  35.4365852  14.5793685  43.9804173  26.9949794
  14.6745833  44.6130562  26.2829900  13.6333903  43.8810539  27.1021819
  83.9827129  83.7505635  37.7340915  84.0079900  83.1709822  36.9727256
  83.3698770  84.4432934  37.4875381  68.3959961  11.9451249  69.9866152
  68.2461596  11.0245287  69.7714853  67.5287390  12.2831476  70.2098608
  32.5044776   5.6825573  20.8478573  33.4439374   5.5041249  20.8053520
  32.1618940   5.0206263  21.4484527  76.8741703  63.2993174  73.9038181
  76.5666294  63.1272650  73.0138493  77.3722935  64.1135263  73.8318825
  83.3022404  49.4456005  47.3512363  82.7583313  50.1950359  47.5935984
  83.4540749  49.5535183  46.4123392  61.4024067  23.9347792  61.7540073
  61.2068272  22.9979277  61.7369032  60.9543276  24.2587709  62.5353432
  86.9595167  48.5692736  12.8549698  86.3062784  48.8973512  13.4729316
  87.1036741  49.2969467  12.2500351  47.6480274  66.5714510   0.4867962
  46.8005257  66.1265930   0.4786804  48.0946426  66.2502607  -0.2965329
  20.1662596  14.5312214  44.2355633  20.6605586  14.9995089  43.5627985
  19.6566065  13.8824058  43.7502623   9.7270545  12.0195854  70.1664639
   9.8312815  12.4464869  69.3160963   9.1213854  12.5850296  70.6456995
  19.2517548  78.7076767   0.5301693  18.7236910  78.8790520   1.3099220
  19.1890888  77.7612027   0.4017332  41.6410713  51.3409128   3.3060672
  41.1403446  51.2455752   2.4958780  41.5191250  52.2566446   3.5566547
   4.2661246  56.8390274  49.6171761   3.9291533  56.2603664  48.9331961
   4.4834956  57.6506376  49.1586304  19.9320563  29.1536999  65.1571894
  19.8089369  29.5367980  64.2886782  20.8777007  29.1868067  65.3017187
  18.9765673  69.5839461   5.0211504  19.5102387  69.3739637   5.7875278
  19.6117573  69.8088058   4.3412998  15.2090340  57.6401611   9.9199131
  14.3939810  57.4611755   9.4509914  15.8748274  57.1482130   9.4393566
  45.9248142  76.9801768   9.0155628  45.5489044  77.7886947   9.3637397
  46.8221741  77.2154196   8.7796714  16.1174353  48.8739204  60.3056860
  15.7401522  49.7533703  60.2841902  15.4025324  48.2998276  60.0308037
   1.5460833  29.3064404  30.2056646   1.2510356  28.4371853  30.4769039
   2.4414405  29.3700171  30.5381250   1.9718226  40.1255083  63.4845829
   2.0546874  40.2588797  62.5403500   2.2586306  40.9536314  63.8695240
  32.3941382  29.4245625  25.7883978  31.6448840  28.9004064  25.5053568
  32.0468005  29.9827814  26.4840865  74.1279840   7.4177313  60.9865332
  74.7383165   7.8475815  61.5856600  74.6049118   6.6514510  60.6678057
  67.2558595  15.5385239   8.0831363  67.9584218  15.7175190   7.4581554
  66.9655706  16.4038737   8.3714702  72.2636080  67.0204163  68.5362196
  71.4206553  66.7614174  68.1639576  72.0431519  67.6849461  69.1889334
  59.4124079  35.8926129  56.5464878  59.0533113  35.6696105  55.6876802
  58.9562559  36.6964650  56.7954397  77.6513270  84.4844292  27.1676850
  78.3007792  85.0047722  26.6947222  76.8246821  84.6710829  26.7226624
  10.8919506  68.6173924  30.4415825  10.6686716  68.4409674  29.5276573
  10.1113014  69.0380557  30.8019474  33.4355474  12.1464074  57.2116804
  33.9817643  12.9324472  57.2162199  32.7557731  12.3233593  57.8619337
   6.0061034  73.5576487  59.9055195   5.8618315  72.8676844  59.2579317
   5.2047690  73.5661650  60.4289865  61.5621710  78.6847734  69.8022604
  61.0166073  79.1103745  70.4636621  60.9484005  78.4298658  69.1133881
  26.3365440  66.9620999   4.5912960  26.6988354  66.2792214   4.0268018
  26.8305473  66.8851527   5.4075554  81.4783764  64.4915295  53.2530117
  80.7882023  63.8283062  53.2495070  81.0167503  65.3183365  53.1132984
  30.1609994  42.9746373  11.1501339  30.3661777  43.6158783  10.4697349
  30.2266265  43.4653695  11.9693496  62.9983140  26.3953001  11.8021515
  62.3697664  25.6828148  11.6858795  63.7367345  25.9912617  12.2579124
   3.7354145  19.0752251   2.1808174   3.8656006  18.8660891   3.1057766
   3.9843712  19.9964650   2.1062114  57.8162862  25.4882033   5.5078867
  57.9293443  25.4832633   4.5574024  58.4915353  24.8924763   5.8325031
  82.7844240   3.7562449   3.7683084  83.1688501   3.4471781   2.9479816
  82.8822805   4.7078497   3.7351110  61.8439008  36.9803889   2.6706340
  61.1306764  37.3872406   3.1625917  61.4126588  36.3271887   2.1196344
  76.6790199  59.8285627  44.2640209  76.1539125  59.1217375  44.6393776
  77.5829124  59.5916176  44.4715691  10.4074316  76.6366800   0.3358343
  10.7207232  77.1986755  -0.3728554  11.1782770  76.1361035   0.6031444
   7.3982104  84.2515659  54.8016357   8.2550105  84.1158199  55.2062273
   6.7759474  83.8846684  55.4296541   8.9994745  59.9151941  23.7695244
   9.8739367  60.0324627  23.3983066   8.4043627  60.1905676  23.0722168
  77.5978613  15.8330536  66.7913675  78.5019779  15.7931399  66.4795828
  77.6007366  16.5318012  67.4455690  87.8129770  18.5821564  10.2620533
  87.7011205  18.3595116  11.1862495  86.9570161  18.4111578   9.8691967
  72.5810575  10.3094137  56.5436220  72.7577782   9.3778646  56.6748333
  71.6334200  10.3580093  56.4177036  13.2692679  61.6730404  62.6908112
  13.7527712  61.4597845  61.8927002  13.9043006  62.1328783  63.2399082
  76.8926622  13.3946831  12.2904327  77.3437501  14.2248661  12.4438980
  77.4484064  12.7387507  12.7112892   0.9642943  17.9546964  69.9170303
   1.4366683  18.5753870  70.4718637   0.3671511  17.5052214  70.5150414
   0.1004561  56.2752342  70.9902287   0.3669223  56.8545246  70.2763319
   0.8501300  55.6943464  71.1198282  27.3582038  27.4520612  58.9692259
  26.8856105  26.8064642  59.4946718  26.9234713  28.2826662  59.1624498
  51.1906319  65.2175768  13.3700302  51.8216686  65.1810010  14.0888336
  50.7996159  66.0885700  13.4386757  87.1498394   7.3526347  62.2211647
  87.7056980   8.0620015  62.5437260  86.2585449   7.6932853  62.2972155
  42.2142698  17.7307827  20.8145740  41.9042398  18.5644276  20.4608085
  42.1244956  17.1140797  20.0880363  19.3455078  35.0630600  23.0679920
  19.8913576  35.8144410  22.8362396  19.1094305  35.2118523  23.9836147
  50.0017072  25.1431639   7.6346805  50.1724626  24.7094758   6.7986324
  49.4678165  24.5175488   8.1243828  11.9601021   8.2590373  22.3310402
  11.0920105   8.0628283  21.9786956  12.5193272   8.3405955  21.5584877
   9.6999129  76.8141222  52.9693651   9.3081435  75.9563684  52.8050184
   9.7139987  76.8921947  53.9232731  66.3722040  20.5206282  20.5391243
  65.4269506  20.3856451  20.6061771  66.5182878  21.3859541  20.9213569
  67.0034771  74.9380525  10.5941227  66.4646225  74.1522344  10.6855228
  67.7264957  74.6681508  10.0278785  62.4376583  34.2193699  69.7941256
  62.9366875  34.8243809  69.2453432  62.6096535  33.3565426  69.4170570
  17.8813963  64.9158200   3.7621572  18.2711392  65.4183396   4.4775608
  17.2089176  65.4939636   3.4019497  85.8504581  21.9684315  51.0942841
  85.5514050  21.3951087  50.3885269  85.4161739  22.8043008  50.9241390
  73.4010029  55.7308006  48.9246035  74.0075970  55.9594965  48.2203484
  73.7625265  54.9283695  49.3009520  12.9296951  58.6088904  20.8483246
  13.1302958  57.7070745  20.5978801  12.2936659  58.9027484  20.1961353
   2.1261816  13.5882734  74.2194891   2.0056324  13.4438871  73.2809496
   1.2904959  13.3331465  74.6103477  13.2830486  21.3755209  11.2549617
  13.9849148  21.0549433  10.6885364  13.5704193  21.1545689  12.1408680
  76.3763334   9.3000014  15.0140598  76.5517427   8.3599551  15.0562122
  75.5824853   9.3719943  14.4840934  57.7937128  38.7706978   7.2381618
  57.5980283  39.6369774   6.8810775  56.9476606  38.3235009   7.2589615
  63.0965042  24.2720652  55.8156586  62.5140047  25.0018215  56.0263252
  63.4756851  24.0177035  56.6569376  52.9389097   6.6077692   2.7157905
  52.8691484   7.0906384   1.8922594  53.1901742   5.7221301   2.4536064
  65.8151723   3.7030299  18.1566742  65.2285291   4.4416506  17.9938152
  65.3015806   3.1042750  18.6988571  74.2102909  60.3421640  73.5208988
  74.3904495  60.4468632  74.4551420  73.9145613  61.2066889  73.2356453
  85.8126259  21.6157269  54.1046715  84.8999214  21.8923807  54.1863155
  85.8996677  21.3438177  53.1910419   9.7107657  19.1001630  70.4052114
  10.0027045  20.0086141  70.3295994   9.5661505  18.9723051  71.3427496
  42.8459796  46.2267160  66.0975599  42.3224505  45.8261013  65.4035425
  42.5031718  45.8461380  66.9061852  78.7376356  59.9241257  50.8399725
  79.3201923  59.5078707  51.4752579  79.0282106  60.8356619  50.8098984
  67.4252798   6.9733031  18.5485389  66.5578653   6.8377383  18.1671646
  68.0249979   6.9207365  17.8043583  83.4656334  37.8439021  55.3373337
  83.0963612  37.0090222  55.0495052  82.7209568  38.4452558  55.3449535
  33.3572103  24.9694045  23.1288746  34.0604021  24.5352347  22.6459148
  32.9577209  25.5604012  22.4906185  22.1214923  77.1757841  42.9004717
  22.7754744  77.7079058  43.3536577  22.3066863  76.2792444  43.1800270
  64.7437002  14.4232018  44.9037674  64.8620130  15.3729327  44.9193695
  65.3224565  14.1212065  44.2037132  39.6715813  54.9478420  32.2603538
  39.5796471  54.6901318  31.3430908  38.8168030  55.3095516  32.4943474
  26.8361263  81.6831525   4.1999653  26.0550003  81.6520556   4.7523287
  26.5727310  82.2047361   3.4418037  70.6893064  17.8728659   8.4258297
  71.4599611  17.3087246   8.3620289  69.9768735  17.2792132   8.6629894
  50.7109337  83.3370217   0.6598880  51.3805847  84.0070637   0.7971838
  50.9611397  82.9130205  -0.1609967  48.5725595  46.7010052  13.2807567
  48.3814813  47.0413716  14.1547611  49.2184593  46.0102303  13.4286621
   0.4666670  47.7812719   3.2187447   0.2676924  47.1557283   3.9154071
   0.4731616  48.6327171   3.6560407  69.2006111  61.4986038  32.2922158
  69.0312099  62.0537233  31.5310454  69.4446754  60.6508255  31.9208145
  26.8195208  47.8644562  65.7671022  26.9638117  47.1541452  66.3923025
  26.2411364  48.4736443  66.2260103  73.9533854  41.9265652  69.4426727
  74.8778343  41.6783190  69.4428301  73.7928724  42.2517872  68.5568428
   1.0270365  66.6193247  46.7804909   1.8779906  67.0201683  46.6032171
   0.4026087  67.1580887  46.2946272  66.3366318  37.8684044  70.0800657
  66.1916828  38.7646317  69.7767591  66.6954851  37.4129057  69.3185091
  18.7903365  83.6217976  55.5167770  18.4186705  83.1743717  56.2769747
  19.5589598  83.1008148  55.2843428  70.6820108  18.5340722   4.5310190
  70.3499319  19.4213707   4.3944385  70.4174043  18.0557091   3.7452820
  29.7004279  49.0801668  64.5566225  29.4724234  48.5676193  65.3322124
  30.2058467  49.8182011  64.8973322  65.2905607  49.4131708  61.6925526
  64.4939327  49.7422552  62.1088648  65.9954405  49.9311638  62.0812225
  82.1278478   4.5753796  28.5136058  82.1330835   3.6296208  28.6610630
  81.3069250   4.7409708  28.0500438  85.0481892  60.7682085  74.6044827
  85.4103661  60.6027794  73.7340260  84.5806217  59.9629879  74.8263502
  87.3696232  53.7686014  55.3331947  86.9319248  53.7132311  54.4837332
  86.8872643  53.1586981  55.8913851  71.0056448  49.8584318  64.1312599
  71.5283394  50.2193832  64.8473215  70.1278734  49.7617197  64.5005751
  81.6730595  30.9119916  37.8235722  82.0784855  31.7407227  38.0786657
  82.3575592  30.2575803  37.9629827   0.8283548  68.3988937  61.0058048
   0.9396534  68.1846651  61.9320610   0.1608400  69.0848859  60.9971645
  36.9520739  67.6455391  72.8641796  37.1561173  68.4894157  73.2672548
  36.5298585  67.8717888  72.0354605  33.1755236  84.4130331  35.0230360
  33.6806134  83.7129811  34.6094608  32.9614762  84.0728625  35.8917689
  74.2399883  42.2085667  47.0501900  75.1003122  42.3116207  47.4569511
  73.7662125  41.6199112  47.6377726   1.2050112  26.5013433  30.0740862
   1.1547240  25.8115292  29.4123769   1.1399420  26.0376143  30.9089231
  88.1129360  52.7063227  38.2124925  87.3995495  52.9395723  37.6184273
  88.4474373  53.5463810  38.5265613  54.2478991   2.3994163  68.5472059
  54.5553541   2.3925062  67.6407576  53.4378767   1.8897364  68.5292625
  23.0453854  83.4646662  11.9988849  23.4661560  84.3140944  12.1317604
  22.7681713  83.4754046  11.0827663   4.9826487  52.9210806  42.4703741
   4.1859301  53.0520678  41.9562674   5.3537806  52.1056366  42.1334076
  21.0043793  28.1743308   8.3933380  21.9076328  28.4376725   8.5694435
  21.0793190  27.4946841   7.7234867  14.4221954  80.8986743  12.0523479
  14.0504389  80.0367363  12.2396877  15.2821522  80.8850773  12.4724891
   6.7658576  10.6476462  70.1275396   7.2366866  11.4651763  69.9656916
   6.2167319  10.5300105  69.3523884  25.6012496  18.4507036  66.4644146
  25.0339755  17.7745008  66.8347979  26.3702067  18.4568691  67.0344067
  72.0001963  74.3006862  57.0975256  71.7197970  75.1828397  56.8537807
  72.9131774  74.4050373  57.3654890  71.9314861   8.0026174  73.3704853
  72.0584536   7.6575190  74.2542362  71.7102098   7.2350484  72.8431273
  69.6042585   3.0663049  62.3400879  69.3940544   3.1584898  61.4108181
  68.7989616   2.7330494  62.7359009  46.6947537  55.6142446  23.7499645
  46.0065727  56.1995943  23.4337261  47.4980335  56.1303695  23.6822059
  62.2397212  82.4079532  64.4752216  62.8183917  82.2802062  65.2269220
  62.6868895  83.0610854  63.9369917  83.8761636  33.3585884   6.8651512
  83.7271663  33.8500484   7.6729229  83.5896179  33.9496293   6.1688831
   7.5265273  21.6395831  47.9690266   7.0612200  21.6406488  47.1325350
   8.0503710  20.8386564  47.9506874  88.2578470  12.3126776  11.0602214
  88.3469678  13.1680615  10.6399753  88.9875795  12.2723229  11.6783550
  56.1291504  12.2682226  44.8081064  55.4662895  12.4033320  45.4853058
  56.9420338  12.1270204  45.2934074  75.4367208   9.6965051  66.3818216
  76.3829660   9.8385674  66.3559866  75.1105404  10.3648829  66.9844055
  30.8925133  75.1968416   6.5504768  29.9940281  75.2061017   6.2205341
  31.3954525  75.6720432   5.8890560  19.8451670  43.0962276  26.1788201
  19.2790564  43.8598680  26.2911081  20.5019148  43.1812477  26.8699598
  89.7423553  10.6624496  32.7319479  90.3919411  10.2383387  33.2926559
  90.1211166  11.5184069  32.5316930  28.1598719  15.4923737  64.0936756
  28.6990889  15.5026448  63.3028698  27.3086699  15.8236921  63.8074827
  59.6439838  18.4719527  69.3425655  59.6108961  19.4250333  69.4248772
  58.8325262  18.1681061  69.7493172  20.4018143  72.6258374  39.9978328
  20.7034424  73.4849740  39.7026443  20.1448659  72.7625061  40.9097147
  12.8504210  64.9088367   4.0719726  13.5838776  64.2951568   4.0311601
  12.3679905  64.6535285   4.8583009   1.2803726  42.0260229  31.0530498
   1.8214588  42.6947230  30.6331756   1.3845568  42.1876483  31.9907406
  49.2832593  80.8501149  66.0078001  49.5828942  81.2127111  66.8414497
  48.4964827  80.3530706  66.2317705  68.6177540  23.5648966  55.1121616
  69.1061449  23.9148211  54.3670082  68.1953049  22.7759838  54.7724771
  55.9765129  68.5268529   7.6959255  55.7891350  67.9484590   6.9566086
  56.5876083  69.1744026   7.3445442  34.2994841   7.1245813  59.7989178
  34.8830565   7.7611607  59.3860674  34.8162230   6.7551064  60.5149508
  62.3419189   0.7245014  26.5052819  61.7926311   0.9460968  25.7533431
  61.7399454   0.3220718  27.1313119  24.0082606  32.9647040  59.6656466
  23.2398661  33.3532095  59.2474794  24.4489535  32.4886322  58.9618111
  45.7535915  51.7113801  14.5400264  45.8457832  50.8787604  15.0031402
  44.8163490  51.9026162  14.5753887  69.2321757  78.5138209  31.2301612
  68.5688571  78.5063691  31.9202256  68.8074664  78.0887104  30.4850888
  29.6664103  28.9105868  25.4276919  29.2123755  29.4620967  24.7905731
  29.6511706  29.4190502  26.2385345  36.3314896  67.8702482   4.9271515
  35.7908421  68.5729607   5.2878883  37.1514301  67.9227265   5.4182460
  43.7892684   8.3018291  60.0880909  43.0920085   7.7964765  59.6701431
  43.7158259   8.0876464  61.0181284  10.3158911  28.7717319  25.1618958
  10.6323393  27.8751326  25.0514150  10.8305129  29.1192985  25.8903193
  24.1682987  35.2423616  15.9865024  25.1229649  35.1816632  16.0206154
  23.9125710  35.4957171  16.8734291  13.5850009  32.1724939  68.5307360
  14.4277533  31.8385625  68.2233477  13.8081607  32.9470372  69.0469837
  26.1159115  77.5066575   0.0804165  26.8432121  77.0141681   0.4608324
  26.0098057  78.2620939   0.6585958  26.1891392  67.5145424  57.2926235
  25.6407908  68.2755614  57.4834108  26.1999396  67.4606408  56.3370037
  71.0401133  65.1404644  41.5913248  71.0572508  65.7845379  42.2992134
  71.6405943  64.4526697  41.8787050  83.8743687   2.1549618  67.3116684
  84.5697212   2.6001602  66.8273973  83.2472992   2.8471833  67.5210619
  61.1592560  72.4672683  13.3910492  61.9622593  72.2625359  12.9119899
  60.4739647  71.9873270  12.9260185  20.1854285  10.3145015  62.3128700
  20.5091532  11.2068498  62.1898127  19.2354449  10.3898108  62.2228527
  37.0167025  29.1887760  41.9923592  37.5348052  29.9787378  42.1464777
  36.5257033  29.3766427  41.1924410  84.9806404  21.5584707  34.1070104
  85.3690720  21.9135976  34.9065375  84.0880394  21.9040775  34.1004014
  48.2005719  70.1248659  62.4527884  48.1780366  70.1785518  63.4082127
  48.4806899  70.9955479  62.1705151  67.5018024  32.6819491  36.9895411
  67.1683693  33.0824709  36.1866474  66.9811106  33.0774355  37.6886106
  10.7755690  38.6455237  54.9964740  11.2863140  37.8866055  54.7146633
  11.3182526  39.0648862  55.6641987   7.2370796  85.2409609   0.4872968
   8.0968504  84.8402127   0.3591278   7.2556143  86.0272797  -0.0582287
  90.4109478  10.6052721  47.1613169  90.6297398   9.7683811  47.5711679
  90.5684948  11.2556005  47.8457785   8.6409625  36.6497755  52.6313925
   8.0648764  37.3464632  52.3167801   8.5198268  35.9371710  52.0038939
  21.8108519  26.0198736  55.7956076  20.9210833  26.2218189  55.5061817
  22.1015223  25.3226757  55.2076817  58.4342337  24.9265766  41.3582420
  58.8390112  24.3940878  42.0429659  57.9961395  25.6334877  41.8321466
  80.7623291  22.1179843  53.0786657  80.1965332  22.7788711  52.6794958
  80.1826954  21.6262364  53.6604261  38.5693863  72.3471881  49.1382980
  38.9088420  71.9839109  49.9562359  38.3465174  73.2530261  49.3528128
  70.4048872  75.4249749   2.3200252  70.2929497  76.3152918   1.9868162
  70.0611067  74.8640332   1.6247585  72.3113632  25.0514388  28.4441566
  72.1745872  24.7519422  29.3429494  72.2183084  24.2614722  27.9116869
  90.3112030   5.1548111  42.9566956  90.0841713   6.0687321  43.1282663
  89.6129799   4.6518141  43.3758688  51.9885206  33.8370943  68.8937664
  52.6968622  33.8026571  68.2508802  51.2040758  34.0190768  68.3763123
  90.0106832  45.2678963   9.1679123  89.3745014  44.5711153   9.3291595
  90.1075050  45.7043799  10.0142791  89.8579570  84.4830473  21.6194656
  89.1539022  84.1279372  21.0768440  90.4476568  83.7425574  21.7614391
  16.2143305  76.7352957  66.8273115  17.0623282  77.0794381  67.1078539
  16.4307431  75.9695525  66.2952995   1.3873606  28.8584133  21.1372307
   1.3683443  28.1510659  20.4926136   1.4653187  28.4120496  21.9803932
  63.2946062  18.3398271  46.0164404  63.6419058  19.0720201  45.5070257
  63.8611412  17.6017106  45.7918215  86.7212582  36.7496800  35.2202082
  85.9144020  37.0824647  35.6132221  87.2456169  36.4534569  35.9642053
  67.8661489   0.8063797  44.8286486  68.6970758   0.6455965  45.2757978
  67.2117996   0.3717754  45.3756189  71.6712523  20.4994583  44.2033100
  72.0491982  19.9856067  44.9169970  72.2323418  20.3128552  43.4505844
  26.7624455  60.3568121  10.2704933  26.1377411  59.7178324  10.6135490
  27.5810795  59.8684760  10.1833465  90.0689125  24.0386629  68.7918949
  89.7206688  23.8764763  67.9151678  90.9205437  24.4481659  68.6393547
  84.3382074   8.6394865  35.9671524  83.4107019   8.7228234  36.1885574
  84.7937871   9.1169817  36.6604545  71.0260820  41.6753626  47.4998713
  71.7558432  41.2264729  47.9267025  71.2785673  41.7196369  46.5776348
  22.5275191  35.8660007  22.8786016  23.4771403  35.9459710  22.9682708
  22.3432883  36.1796379  21.9932055  39.9626904   2.1110701  73.4540415
  39.5113163   1.2992834  73.2227659  39.2591934   2.7452921  73.5921717
  26.1370906  48.1421328  62.9701948  25.1855906  48.0382538  62.9609966
  26.4005908  47.8580379  63.8454628   4.4834574  31.5003014  56.6338921
   4.7512683  32.3020935  57.0829391   4.1176470  30.9491038  57.3256969
  39.4744302  11.5189249   6.3135746  39.1532566  12.2029860   5.7260826
  39.2693473  11.8412478   7.1912315  52.1896437  78.6343862  56.4530230
  52.4664572  79.4713933  56.8258810  51.4866046  78.8637269  55.8452606
   1.4885291  52.7297783  60.8410931   1.6441401  51.8078136  60.6361675
   0.5675372  52.8716278  60.6222677  80.9977130  86.1158151  66.0938644
  80.1820639  86.3683464  66.5265036  80.8135298  85.2542963  65.7195759
  46.5601521  51.2192192   0.2969530  46.0279064  51.9928332   0.4826048
  45.9789734  50.6418302  -0.1981137  88.4475136  42.6169252  55.1124763
  87.8032684  43.3214140  55.0426960  88.8163090  42.5415802  54.2323923
  81.9782087  52.2209652   5.3711345  81.8570777  52.0908125   4.4305923
  82.8977128  52.4709930   5.4618671  60.4320908  32.7242851  60.6711626
  60.2939081  31.9722867  61.2470388  60.1651382  32.4152470  59.8054457
  65.3881550   9.6426094  62.6255178  66.0567188   8.9829463  62.4408674
  65.7712746  10.1855993  63.3144379  73.9663792  37.0718312  29.8708391
  73.6929369  37.9118037  30.2394938  74.8992205  37.1830893  29.6873760
  83.0897903   3.9801204  73.0486393  83.5252762   3.6153996  72.2782087
  82.5920677   3.2475215  73.4116888  76.6856289  40.3838205  39.7924519
  75.9084225  39.9158859  40.0977707  76.3616180  41.2493753  39.5433283
  71.9583941  13.1252050  38.7973237  71.4507532  13.2644248  39.5967913
  72.7647972  13.6218762  38.9361143  83.5275173  25.5520153  21.8092108
  83.6986256  25.3268600  20.8947372  84.3371868  25.9647226  22.1097970
  40.4604864   4.0287334  43.6762047  39.5127344   4.1128358  43.5716867
  40.5745173   3.2323962  44.1949320  38.2503014  34.7005781  15.0345924
  38.9262085  35.2828070  15.3815677  38.6364536  34.3320342  14.2400482
  39.2852764  82.4868473   6.4272049  39.9817448  82.4820765   5.7706001
  39.3454342  81.6284259   6.8464019   0.7870253  17.4990046  55.5419588
   1.0202368  17.4046731  56.4655113   1.6088732  17.3583353  55.0718260
  66.3145522  79.7734428  49.0465879  66.9079856  79.0674908  48.7902641
  65.4726676  79.3398483  49.1860867   5.6173115  80.5351909   9.7955539
   5.5124645  81.3413652  10.3008487   6.3244848  80.7285245   9.1801193
  10.5681666  30.1248813  51.7749691   9.8196658  30.6779265  51.9988585
  10.7892855  30.3730011  50.8773184  10.2980860  31.9450927  49.5689487
   9.4589385  32.1394014  49.1514444  10.6236132  31.1738181  49.1048384
  61.4482117  15.4297590  71.9045210  60.9207344  15.7490110  72.6366949
  61.0180950  15.7849467  71.1266565  61.5298891  29.0194225  54.7093773
  60.5733728  29.0249372  54.7450638  61.7342710  28.8661146  53.7869072
  57.2396641  60.2417108  17.2738674  57.4262791  60.1756664  16.3373592
  56.5444164  60.8968838  17.3339298  57.9247667   1.3831646  19.0135315
  57.2925760   0.6644614  19.0086582  58.3829309   1.2934763  19.8491600
  61.4655856  84.2989903  46.4358044  61.8972186  83.8272704  45.7234764
  60.6991557  84.7010713  46.0269690   9.5282324  57.2262144  62.6791334
   8.6520632  57.1933603  62.2950983   9.6583995  58.1483841  62.9002476
  63.1083393  46.4224005  60.7968283  63.4587049  46.3775539  61.6864729
  62.4674368  47.1327114  60.8273363  84.2438316  27.3038816  73.8311481
  83.8286304  27.8019428  74.5352602  84.0155506  26.3927507  74.0154314
   4.6494731  71.6017008  58.1134605   4.4600352  71.4036703  57.1963310
   4.4339808  70.7953453  58.5820627  16.4563521  20.7603574  28.3221626
  16.0650977  21.1778164  29.0895510  17.3971900  20.7694292  28.4981585
  15.6661280  39.3654418  71.5480900  15.9982165  40.0292540  72.1524906
  15.5791052  38.5764909  72.0830822  44.1149597  44.8950604  14.9861648
  44.8837929  44.3726469  14.7576549  43.6225681  44.3433971  15.5939892
  10.5906467  33.1572708  44.3542125  11.4859562  33.0648931  44.6799686
  10.0644569  33.3082523  45.1394203  11.9505863  54.7231098  25.1806953
  12.3278551  53.8454934  25.2414253  11.1378412  54.6010025  24.6900108
  22.9567582  66.9689767  72.2103376  23.7345273  67.4414198  72.5071589
  22.8125817  66.3003628  72.8799627  29.8028355  82.9210313   4.6941974
  29.4747238  83.7334164   5.0796917  29.0891819  82.2942646   4.8128870
  34.5300245  18.3520174  71.1768293  33.9862895  18.7787366  71.8390179
  33.9999866  17.6167166  70.8692217  72.0222282  22.3789787  63.4234667
  72.4496365  21.5928698  63.7634468  72.4831581  23.1038570  63.8457537
  90.4492188  65.6136894  53.0053425  89.7575760  65.8430672  53.6260223
  91.2268066  66.0631466  53.3363724  30.9066849  38.9871134  13.6916855
  30.6980877  39.1399666  12.7700832  31.3959484  38.1644025  13.6932590
  52.1627121  85.4340657   1.9016721  52.8457527  85.2909621   2.5568130
  51.3545399  85.5045708   2.4097231  39.1571026  78.0869993   1.0517481
  39.4467049  77.1806606   1.1562183  39.2519836  78.2623561   0.1155403
  25.0822886  25.4983759  33.3815479  25.1100882  24.7253323  33.9453435
  25.5755290  25.2439117  32.6016808  47.8847647   3.0165121  66.7305994
  48.1597519   3.2997125  67.6026154  47.0629454   3.4821618  66.5756226
  24.2366465  41.9798040  57.3253679  23.3452281  41.9825363  56.9766617
  24.7229155  41.4040232  56.7352343  20.2387028  43.0819990   1.5587309
  21.1497860  42.8889750   1.7798641  20.1961594  42.9796953   0.6079652
  32.2097282  72.3726710   7.1256759  32.6643066  71.8053420   6.5029934
  31.8212204  73.0597766   6.5842083  21.5092524  43.6128330  28.1909847
  22.3526152  43.1771803  28.0678368  21.6586550  44.5114183  27.8969550
  33.7682398   9.3836206  63.7306261  32.9585608   9.4102108  63.2207870
  34.4644412   9.3686521  63.0738735  30.7660731  14.8402715  71.3309431
  30.7186373  14.4277525  70.4684973  31.6300639  14.5987880  71.6647577
  76.3022423  30.8285260  53.0598354  76.0289335  30.9774661  53.9650154
  76.4215517  29.8807716  52.9985285  15.8653029   5.7077008  34.3225908
  16.0412558   5.0409555  33.6587214  16.5939482   6.3232809  34.2428088
  31.9045503  80.4748957  71.7288349  32.8234346  80.5753319  71.9774402
  31.6769750  81.3059919  71.3120380   9.1994723  32.7985144  69.8474503
   8.6499938  33.5795474  69.7818851   9.7443923  32.9531193  70.6190681
  14.2662676  50.2273798  48.8381481  14.4878729  51.1551762  48.7587214
  13.4261378  50.2202082  49.2968082  71.0076046  41.0380602  26.4198661
  71.0550594  40.1459360  26.7635155  70.0755692  41.2547588  26.4439893
  47.5783968   9.5751858  67.7668858  47.7536392   8.7060082  67.4062586
  48.4402466   9.9098998  68.0147028  88.7603446  32.3131700   7.0173862
  88.8333961  31.6013344   6.3816383  89.1240760  33.0752035   6.5665653
  87.9797649  34.5103478  51.3027477  88.1225586  33.5980272  51.0507298
  87.5800991  34.4592381  52.1710157  90.4461193  20.5894041  65.7804441
  89.5855236  20.5573797  66.1982584  91.0541630  20.7678843  66.4978456
  87.9910755  38.3100963  70.8108377  88.6188507  37.9731178  71.4500380
  88.0269051  39.2605948  70.9180641   3.4238967  42.3599911  63.9443254
   3.8201102  43.2199907  63.8041353   3.9839896  41.9419909  64.5983982
  33.0228691  64.2987832  10.6362178  32.2464924  64.8428400  10.7684353
  33.7565785  64.8679694  10.8684280   3.6850032  11.3729417  72.2344828
   3.8989886  11.4010513  73.1670380   4.3380507  11.9381177  71.8217611
  35.7564190  84.5066350  53.9397764  34.9943665  85.0712323  53.8103962
  36.0867909  84.3440230  53.0562353  12.0831396   7.1845324  39.3094948
  13.0402948   7.1878750  39.3009689  11.8465282   7.8891547  39.9126270
  21.7519381   8.2366728  61.0259390  21.4966544   8.0953669  60.1142931
  21.0799905   8.8223528  61.3747978  66.6390315  42.0360947  71.0306406
  65.8562938  41.8612146  70.5081749  66.5807501  41.4217806  71.7623854
  84.9515193  10.1232989  -0.2281067  85.0986831  10.3788693   0.6825330
  84.0349429  10.3439887  -0.3936741  79.7432690  35.7802422  10.3576210
  80.3528171  35.1789982  10.7856205  78.8866501  35.5485280  10.7164314
  76.7179423  42.3664601  53.8992908  76.1534541  41.8254788  53.3470848
  76.1756795  43.1208260  54.1297558  51.6944050   7.2903903  18.0776813
  52.0442241   6.5045817  18.4976413  52.3947548   7.9377110  18.1596401
   3.9348437  19.5603735  22.0875766   3.8983704  19.5043690  21.1327102
   3.2309462  20.1663430  22.3190143   3.5943346  42.1106491   0.3034427
   3.4472160  43.0512462   0.2041176   4.5451002  42.0105944   0.2558925
   0.5242158   2.4952157  16.3977649   1.3496043   2.2638781  16.8237331
   0.6053163   2.1433241  15.5112961  46.3799621  12.6709158  49.8832443
  47.1861888  12.3056633  49.5187977  45.7461645  11.9558222  49.8269108
   2.0105888  41.9231160   3.9340141   2.8671123  42.2546895   4.2035654
   1.4435531  42.6942856   3.9366892  69.7146865  71.2963470   4.5759084
  68.8039609  71.5460475   4.4195154  69.9907109  71.8448432   5.3102091
  33.4822154  77.8303774   1.8670204  32.8209003  78.0585011   2.5203636
  34.2917135  78.2174810   2.2003296  55.2056574  26.3654644  25.8832672
  55.7485758  27.1056397  25.6119564  55.8276784  25.7280238  26.2339714
  61.2466427  82.4950131   4.3008020  60.6764456  81.9883617   3.7225225
  62.0435783  81.9695791   4.3718078  49.0781197  75.5397066  49.6025493
  49.3721815  75.0477274  50.3691795  49.8112210  75.4882058  48.9892414
  16.9569303  24.7484286  23.1007221  17.0499660  25.5213006  22.5437286
  16.0449792  24.4803412  22.9880073   0.3813817  14.2858965   8.3380726
   0.8225895  15.0039275   7.8841999   0.1177741  14.6599991   9.1787841
  84.6161311  14.6245701  20.3489998  84.1380565  14.7625716  19.5313003
  84.0553110  15.0098116  21.0222747   0.8140232  41.1132081  49.6241977
   0.2600552  40.4092724  49.2868068   0.6742765  41.0950787  50.5709675
  28.5395956  53.5547447  67.8584671  28.0080867  53.9571762  68.5453272
  28.3112884  52.6257849  67.8922892  83.7539594  14.7063239  48.8475921
  83.5099643  13.9176400  48.3631542  83.4205692  14.5567353  49.7322967
  18.3392860   2.1639473  18.4813621  18.0865432   1.2469513  18.5884884
  19.2129852   2.1276696  18.0920532  22.1039630  22.3058016  21.7251709
  21.3895751  21.8520911  21.2779167  22.6032783  22.7191765  21.0208633
  10.2674915  30.5048115  34.3465069   9.7974159  30.7228215  33.5416916
   9.9316408  29.6433623  34.5941761  55.9204003  84.4888075  37.3363140
  55.7015773  84.4321688  38.2664421  56.2347456  83.6133583  37.1104744
  29.1494562   1.5998967  11.9664028  29.3034364   0.7278855  12.3298862
  28.2254411   1.5955145  11.7165878  85.5677789   4.3541939  32.9826858
  85.4703753   5.1115258  33.5599067  85.1442998   4.6193058  32.1662166
  27.8614046  17.0741494  36.2570503  27.8302099  16.1272557  36.1204746
  28.5823108  17.2036345  36.8732956  67.3268514  12.1949322   2.0270660
  67.7455955  12.0832236   1.1735990  68.0460142  12.4126990   2.6200369
   9.3542053  11.2181170   8.8910034  10.0999929  10.6610281   9.1139057
   9.7481729  12.0396121   8.5974624  57.3043939  80.2118286  21.0347583
  56.3849899  80.3046020  21.2844017  57.3753568  80.6809243  20.2034118
  30.6907248  65.9175920  66.6775751  29.9441075  65.9918976  67.2719431
  31.3519692  66.5012455  67.0495081  63.6060905  54.8737907  66.0597897
  63.6694098  54.2458344  66.7794323  62.8821945  54.5509148  65.5231667
  25.6890392  41.8199921  72.6843214  26.4395523  41.2491083  72.5198269
  26.0491943  42.5499201  73.1880283   7.4923687  82.0860442   8.6899116
   7.9883366  82.4790843   7.9717376   7.9828386  82.3223837   9.4771984
  69.2472529   6.8350823  43.2163360  69.4293135   6.0267813  42.7370193
  70.0276892   7.3731787  43.0836513  66.1434852   5.4153521  10.5184486
  66.3382565   5.5737383  11.4421489  65.9010189   6.2748845  10.1739910
  70.2732175  60.9003766  11.9904926  70.9747057  60.2526791  11.9223812
  69.4680815  60.3932793  11.8863323  28.8293862  58.8312912  74.1936207
  29.7365856  58.6703014  73.9341927  28.3192348  58.6541367  73.4033060
  30.1596022  66.9570637  58.5363340  30.9488726  67.3999596  58.2246828
  29.8289824  66.4890718  57.7695847   3.8141824  23.7340815  14.1309097
   4.3258811  23.4508259  13.3731678   3.0129816  23.2121356  14.0875271
   6.7929770  44.5757802   5.1052644   6.9297029  44.6265633   4.1592434
   6.0350419  45.1372273   5.2682045  32.1082355   5.1556857  18.2861641
  33.0070449   5.3823407  18.0474117  31.9962121   5.5153544  19.1661194
  77.3044997  11.6198618  49.7003772  76.8873422  12.4806244  49.6643188
  78.1556015  11.7830212  50.1068714  10.2593233  55.6896622   6.4752414
   9.7352697  56.1615975   7.1224430   9.6234704  55.1651223   5.9886387
  36.0630800  10.5753357  10.7948711  35.3859807  11.0788043  10.3428962
  36.7398979  10.4356463  10.1325729  79.7777956   5.8844740   7.8772094
  79.4689732   5.1112540   7.4049881  79.8370009   5.6002791   8.7893322
  87.2363346  29.8280079  30.4486969  87.3250525  30.3201134  31.2648990
  87.6654785  30.3754170  29.7911194  72.9252454  80.7082923   1.4484146
  72.1579334  81.1955961   1.7484071  72.5834628  80.1070412   0.7866600
  82.8040831  36.9752676  33.0436733  83.5895460  37.5223000  33.0492523
  83.0026119  36.2648852  33.6537388   2.2392394   8.1153376  22.4406173
   2.2802402   7.3898728  21.8175247   1.3367082   8.1065924  22.7593544
  19.4728948  17.6306708  29.7624901  18.8318635  18.1200488  30.2780750
  19.2577602  17.8383715  28.8531997  66.3112450  63.5988331  66.2584543
  66.0447788  62.7628469  66.6410160  65.5144548  63.9419222  65.8539152
  52.1503898  52.3684647   6.6449859  53.0636212  52.1180483   6.5052154
  51.6691991  51.5412929   6.6232326   7.2365953   0.1019080  12.1468380
   7.7765109  -0.5055587  11.6411617   7.8565241   0.7468970  12.4872902
  47.5055122  67.5149918  58.0538130  47.2693729  68.0725861  57.3124933
  47.4164820  68.0832958  58.8188887  86.5919440  43.5021241  21.7323711
  86.2033789  42.7938111  22.2457340  87.0733850  44.0258629  22.3728016
  58.9305517  85.7713898  58.5806873  59.7044059  85.4087599  59.0118339
  58.7751027  85.1883944  57.8376033  89.9366682  39.8041089  13.5777309
  89.4087785  39.3738396  12.9051044  89.3370621  40.4244359  13.9923504
  83.4029024   3.0792172  13.2086399  82.9635518   3.7428744  13.7403896
  83.1996482   3.3228142  12.3055389  88.3884661  31.9911845  21.3022068
  88.5900133  32.8954918  21.0617092  89.2195742  31.5264685  21.2045887
  64.6432277  81.8326291   8.9211681  64.5914194  82.7500208   8.6529567
  64.6907946  81.8647560   9.8766449   5.6942062  72.1137865  13.4172466
   4.8302298  71.7392286  13.2455471   5.5868034  72.5984415  14.2356708
  68.7204429  72.2690042  31.3311126  67.9767105  72.8460797  31.1576774
  69.4845601  72.8440031  31.2894752  83.7765571  63.0351003   7.5828769
  83.6720487  63.1533059   8.5269764  84.2732974  62.2214099   7.4969032
  16.8451501  16.3410599  34.1789653  17.4790479  15.6367476  34.3144443
  17.3708583  17.1409495  34.1853740  39.5977541  72.5905641  13.1453922
  38.9154055  72.9295906  13.7247875  40.3792825  72.5458773  13.6962536
  21.5939571  22.5299962   0.0234344  21.5049411  21.5806324  -0.0602743
  21.3061477  22.7197344   0.9164074  32.7180505  83.0010223  56.2660360
  32.7260137  83.4974575  55.4476738  33.2239580  83.5373688  56.8764639
  64.2395773  54.2932541   4.6466425  64.2418068  53.4536107   4.1870525
  63.6586835  54.1552479   5.3948047  22.7167226  50.1341946  20.9611252
  22.7881385  50.7434304  20.2263096  22.1235610  49.4508679  20.6489399
  13.3893777  36.0945637  34.2957618  13.8670446  35.6130345  33.6203411
  12.4826576  35.8024390  34.2022159   3.9931680  31.0516579  14.6872738
   3.6503936  31.6849358  14.0566471   3.3233072  30.3692181  14.7296169
  82.5210660  44.8296292  23.9732483  82.6111310  43.9812405  23.5392502
  83.2973545  45.3203232  23.7033775  13.4707738  11.0853798  23.5175350
  13.1351043  10.2548439  23.8548401  14.0297986  11.4202340  24.2186763
  12.2542982  77.2810205  21.6445472  12.1976786  76.3444789  21.4550426
  12.9555826  77.3523863  22.2921207  41.0442495  61.1595821  64.5637894
  40.9444141  60.7064772  65.4010201  41.9483852  61.4738369  64.5678425
  46.6958715  12.0593960  32.0346954  46.7222024  12.7825625  31.4081314
  46.5343191  11.2833674  31.4981201  35.7599594  26.2932332  21.0828140
  35.3307010  25.4430659  20.9869697  36.5830757  26.0968668  21.5301922
  20.8495857  48.1094487  33.9055374  21.6295101  48.4857686  33.4976986
  20.9110166  48.3691533  34.8247841  59.5896602  11.5610583  12.5323131
  60.4974958  11.8101056  12.7056339  59.5701055  11.3634570  11.5959289
  73.1027036  40.8081658  24.7383907  72.3658543  40.8317025  25.3489139
  73.6259191  40.0589402  25.0232341  33.8492824   4.3998749  28.8035991
  32.8936435   4.4538815  28.8123443  34.1190912   5.0362523  28.1414440
  45.1006101  84.3827907   7.8706031  44.2233632  84.0926162   7.6206642
  45.2530263  83.9770022   8.7240272  90.8153152  53.2658482  63.9600611
  91.5932083  52.7185154  63.8526773  90.1938152  52.9279184  63.3152628
  34.8978616   9.1343958  12.5220230  34.5806362   8.5208113  11.8593624
  35.4806806   9.7237618  12.0432689  12.9004861  13.4335692  27.9861190
  12.2645952  12.7895768  28.2978084  13.7500621  13.0099518  28.1085613
  54.6304323   6.5160305  22.0683696  55.4261686   6.1179240  22.4212959
  54.7866632   7.4584134  22.1295574  28.1499769  51.1951287  37.2093799
  27.8651668  51.7528851  37.9332760  29.0358306  50.9239705  37.4501350
  43.3673859  44.2042446  70.5247402  43.6877728  43.3212757  70.7089996
  44.1169453  44.7727346  70.7014084  67.2200796  71.9276317   3.6869171
  67.3057743  72.3139890   2.8153541  66.4402839  71.3755949   3.6285761
  11.3920976  27.9618103  21.3497474  11.1780311  28.8573868  21.6111782
  11.2251283  27.9409773  20.4074505  14.5646430   6.1069138   1.2763813
  13.9230920   6.8171771   1.2632349  14.2182876   5.4830868   1.9144275
  34.0687324  19.3930991   0.4859283  34.7675563  18.8983185   0.9137895
  34.3882896  20.2952654   0.4714372  17.7696706  23.6101420  31.1743000
  18.1035568  22.7691348  31.4864853  16.8899442  23.4138949  30.8521297
  90.0866052  79.7846707  58.6983993  90.8485099  79.3571480  58.3073070
  89.3726941  79.6094759  58.0853107  86.2664195  55.1919576  24.3570259
  85.7576009  54.4080957  24.1499164  86.9259092  54.8911687  24.9821880
  51.9114229  74.1334780  18.6540821  51.4748880  74.5090493  19.4186809
  52.2849723  74.8871621  18.1972912   4.8532917  31.7855628  11.2553241
   5.7732536  31.7287619  11.5135315   4.3907668  32.0060284  12.0638397
   9.6140223  80.1798423   8.8481643   9.3216353  79.3724211   9.2710235
   9.4590073  80.8620580   9.5014503  44.3667890  76.2531884  29.1245964
  44.9970008  75.5371220  29.0451458  44.3542530  76.6585190  28.2575348
  13.8486482  19.2022593  31.0862854  13.1739665  18.8298733  30.5185154
  14.3868209  18.4530957  31.3419273  32.7768232  19.5185883  14.6237209
  33.0568458  18.6362774  14.8673275  32.0477916  19.3801148  14.0190914
  78.9342880  60.8996201  62.8811550  78.5660744  60.0294304  63.0342007
  79.1284370  61.2348747  63.7564468  81.3967865  14.9213965  19.5972183
  82.0504825  15.3170712  19.0207126  81.6546481  15.1974280  20.4767254
  63.9159533  84.9333723  28.8625648  64.4794818  84.4138821  28.2891586
  63.9015242  85.8021840  28.4610870  31.1203052   4.6991618  28.2842567
  30.4569293   4.7337754  27.5950744  30.7208253   5.1561625  29.0243843
  46.6448307  69.5376205  56.2770128  46.6311121  69.5725298  55.3205490
  47.0731544  70.3521442  56.5402985  45.1995754  76.4073896  44.8063993
  45.5003691  76.4025640  43.8977003  45.9781981  76.6333723  45.3152323
   9.0224363   5.7996399  34.4156959   9.6174766   6.5159304  34.6372535
   8.6016442   5.5726416  35.2449348  41.2263652  85.5141791  14.6672847
  41.1900135  84.6426400  14.2731693  40.3094705  85.7696875  14.7685363
  75.0127792  52.4367285  69.2042112  74.6643448  53.2755804  68.9023018
  75.9584999  52.5100565  69.0758753  33.4750797  43.1457741  23.2185772
  33.7060501  42.9835827  24.1332271  34.2833139  42.9777939  22.7340439
  89.1078084   8.4045489   9.9098041  89.6646922   9.0545161   9.4812515
  89.4360774   8.3627636  10.8079746  69.8559591  78.8151296  10.5550125
  70.3371068  78.0149802  10.3440883  69.2984959  78.9675816   9.7919777
  22.9251742  56.1631203  72.8641415  22.7135324  55.2552843  73.0815601
  23.6476278  56.3876724  73.4505415   3.3397485  45.5342133  43.7954261
   2.8406860  45.7022126  42.9960849   4.1997887  45.9187825  43.6261108
  56.6125842  83.1586512   2.6344993  57.0271155  83.9878043   2.3959520
  57.2676345  82.7080019   3.1674698   2.0580579  19.7118123  57.3615959
   2.8922821  19.4375784  57.7425029   2.3014189  20.1739008  56.5594223
  19.5821811   7.8368456  18.3873394  19.4474222   7.0088513  17.9263618
  20.4550458   7.7574713  18.7720897  53.7808629  23.3704828  74.2574739
  53.8606545  24.0767931  73.6163902  53.5582038  23.8139700  75.0759935
  51.8639089  20.8112891   2.6647451  51.3389112  20.7619555   1.8658903
  51.2782098  20.5019600   3.3557584  16.7677547   8.5189850   6.7433765
  16.6810943   7.5952942   6.5077522  17.3835136   8.5224755   7.4762180
  49.1151985  82.6936253  14.3464973  49.7553774  83.3455618  14.0612152
  49.5328161  81.8519314  14.1638019  35.7438948  81.4132579   7.3457744
  34.9551025  81.7775305   7.7474430  36.2970313  82.1746047   7.1707752
  36.0776997  54.6508408  73.1026840  35.4549026  54.5688820  72.3804379
  36.9079638  54.3431234  72.7390862  74.4086879  35.7904179  48.9876201
  73.5130041  35.8736117  48.6604145  74.8932057  36.4827378  48.5379818
   6.1114074  37.7974541   7.1700409   5.5483581  38.4367592   7.6064994
   6.6360427  37.4191697   7.8756550  19.3826105   3.7636311  23.4281471
  18.9123870   3.6267121  22.6057270  19.7207118   4.6568949  23.3648899
  90.1075428   9.1623909   3.0524233  90.2949446   9.4495423   3.9461019
  90.9498685   9.2184718   2.6012352  10.4061585  78.0495509  12.3275402
   9.7108107  77.6980766  11.7714908  11.1176233  77.4136575  12.2520855
  78.4108274  37.3301060  18.1213787  77.6550000  37.8674920  17.8843811
  79.0096956  37.4187977  17.3799446  18.0268671  47.2455533  29.4597175
  17.4064638  46.5201886  29.3876674  18.6168815  46.9866688  30.1675918
  23.1441595  13.3446438  30.9610298  23.0934621  12.3975737  31.0903576
  23.2410957  13.7020619  31.8436840  40.0809422  79.7598370  35.1880863
  40.4190823  80.6116994  34.9119976  39.8299023  79.8868807  36.1030033
   3.7693195   5.7889246  70.8017874   3.3462601   5.5412458  69.9796486
   4.3568926   6.5056299  70.5623817  25.7218056  85.6618842  14.2323997
  26.2937336  86.3641365  13.9226082  24.9221115  85.7586010  13.7153080
  14.8370029  26.1481650  12.1193626  14.6334459  26.9747527  12.5570324
  15.7046129  25.9110529  12.4468734  70.7609319   5.8061392  24.0242412
  71.2671726   6.2274821  23.3296802  69.9436646   6.3031466  24.0601471
  54.8031351  85.4728230  35.1922252  55.2334186  85.0761422  35.9496715
  54.3702551  86.2511309  35.5430534  58.8398937  33.9196713  11.7717006
  58.3966676  33.0914099  11.9554546  58.7627727  34.0274174  10.8237198
  89.4669583  11.4566159  36.7055821  89.3708927  12.3831344  36.9259620
  90.1103093  11.4444351  35.9969354   3.4455207  62.6991058  47.8531122
   3.7880949  63.3617378  48.4529400   3.1203464  63.1989981  47.1043825
  25.2672219  34.8385572  65.1791239  25.1624131  35.7832527  65.2922487
  25.6721663  34.7440410  64.3169641  82.2919388  82.9578094  67.8483725
  81.5982647  83.4985594  68.2260466  83.0061574  83.5710741  67.6750755
  71.9588634  36.8524434  22.9888656  71.6717550  36.4076914  22.1913650
  71.7889472  36.2222119  23.6889866  77.6638290  40.8966272  44.4982937
  77.2496339  41.2573372  45.2822330  78.3991929  40.3821298  44.8311069
  89.2219087  73.2673248  25.8880069  89.9880954  72.8001507  26.2210682
  89.0872356  72.9111036  25.0098255  85.3196451  42.1919231  30.3157261
  85.5937835  42.0483235  29.4099357  84.4049045  42.4657319  30.2485778
  70.9518807   5.9528668   3.2559517  70.2083164   6.2721236   3.7672403
  71.5065556   5.5043824   3.8942554   6.4714672   5.1643927  16.7157581
   5.7456280   5.0462849  17.3284938   6.6948940   6.0925610  16.7851761
  76.6457006  71.8877252   3.8100603  76.5025493  71.7167839   4.7409322
  76.3637754  72.7941330   3.6868694  68.3581206  75.2110442  33.0632045
  67.4593660  75.4331168  33.3064201  68.3765289  75.2970608  32.1100547
  61.5763521  42.0512104  64.2897129  60.8208179  41.9020510  64.8581743
  61.2004852  42.1655655  63.4168577  28.4530354  28.0367327  72.3591518
  28.4785700  27.6326895  73.2265186  28.4063530  27.2981000  71.7521286
  10.6226112  32.6152642  31.0422352  11.1303283  32.6697333  31.8518570
   9.7378112  32.3893006  31.3291290  26.1247742  83.1375845  18.6234024
  26.4195954  83.6820086  17.8933933  26.7659762  82.4282487  18.6674049
  59.7028923  24.9977279  56.0305262  59.1386127  25.5142474  55.4551792
  59.3372583  24.1138649  55.9941149  13.5246946  15.0311453  20.4801014
  14.2560579  15.4714997  20.9130314  13.9391662  14.4404490  19.8511913
  27.1900725  18.8767993  59.2745495  26.3400817  18.7135863  58.8657570
  27.4113774  19.7719777  59.0178108  64.9426004  71.8090614  27.8606918
  64.7888371  71.9295629  26.9236400  65.8365032  72.1222003  27.9989364
  56.8372393  48.5493279  68.1489515  57.6059437  48.7569284  67.6177025
  56.7166424  49.3180513  68.7064028  20.6488156  48.7469482  70.4073000
  20.5010867  47.8013182  70.3932905  19.7775793  49.1236687  70.5308294
  43.2447815  38.7336826  72.2733784  44.0297890  38.5790086  72.7988005
  42.7574396  39.3979430  72.7607059  57.1229621  72.9621204  11.9593456
  56.3714596  72.3984369  11.7756679  57.6434990  72.4683817  12.5929859
  66.0054361  16.8991549  11.7495659  65.4272147  17.4977858  11.2767723
  66.8795305  17.2733481  11.6392543  21.9897485  61.2004805  71.3791847
  22.2922134  62.0615196  71.0904551  21.0524964  61.1982727  71.1847925
  26.2680867  72.2853335   8.5537269  26.8757769  71.6477688   8.1789520
  25.4001626  71.9277199   8.3665016  21.0753226  33.7872791  64.7591686
  21.2242937  33.1009030  64.1088390  21.4635181  34.5720673  64.3723297
   0.9669138  29.0237792  54.8993328   1.4744808  29.8219426  54.7525623
   0.8734037  28.9709170  55.8504894  17.6583891  42.9411676   6.4813831
  18.4532099  42.5127318   6.1636760  17.5722246  43.7219947   5.9344700
  52.4862957  82.3912239  63.6755180  52.5469685  83.3406067  63.7813997
  53.2971764  82.1477222  63.2289648  76.6568252  69.4880279   2.0622709
  76.8180629  70.1865395   2.6965549  76.4320108  68.7264093   2.5967148
  35.6588221   7.5285870  41.1540842  35.0109148   6.8955725  41.4635086
  36.4776874   7.2545058  41.5670872  26.5167048  79.4414838  52.0187309
  27.1029296  80.0270518  52.4979904  27.0625948  78.6883577  51.7928245
  48.9433670  32.3609209  70.5680561  49.0199852  33.2878399  70.7942963
  49.5363283  32.2458076  69.8255062  26.8340447  56.4736887   8.9122322
  26.0385724  57.0013364   8.9832428  27.0837640  56.2936803   9.8185756
  40.2650644  26.8633730   0.0578430  39.6134330  26.3849194   0.5703714
  41.0904170  26.4144213   0.2407863  55.5831715  69.0568074  27.5645569
  54.6669098  69.0865072  27.2892120  56.0794755  69.0609320  26.7460849
  61.8931362  78.5837539  38.1441620  62.5747367  79.2554983  38.1238773
  61.5007898  78.6668046  39.0132930  38.2206130  31.4821410  63.2733011
  39.1169763  31.1711717  63.1465626  37.6980472  30.6834698  63.3460045
  49.7878584  74.3386587  15.5151012  49.2427191  75.0538310  15.1870945
  50.6696006  74.7089227  15.5559280  17.7995348  30.6591201  69.1926575
  17.1950912  31.2801385  68.7861919  18.6682808  31.0207248  69.0172863
  84.8985282  55.7818174  66.8752432  84.1534082  56.0678864  67.4036312
  85.6026784  55.6441784  67.5088549  28.2833886  50.6337452  67.6546144
  27.5658679  50.0494719  67.8996038  29.0061903  50.0461435  67.4343634
  61.4019104  59.6501358  32.4632671  61.5827032  59.0753456  31.7195156
  62.1293732  60.2722391  32.4675682  67.3500630  80.5633028  20.2066448
  67.4401709  79.6270474  20.0290516  67.9997751  80.9783133  19.6393039
   4.0354976  39.2578578  68.0636215   4.9249077  39.0033102  68.3093596
   3.5307792  39.1761923  68.8728333  63.5548660  66.9235190   0.3619936
  62.6661130  67.1917685   0.1287677  63.6043760  66.0044297   0.0992038
  60.1518270  82.3233255  37.0234039  60.3279253  81.5959843  36.4265850
  60.5903217  83.0737503  36.6223838  79.7483417  45.6269865   5.8238151
  80.6552574  45.9200107   5.7350757  79.2489263  46.4319181   5.9613063
  18.2642770  14.1585159  34.9832034  18.9788401  13.6955786  34.5458007
  17.8805053  13.5069191  35.5700350  20.8642436  13.1825669  12.3152950
  20.5942680  12.6100047  13.0332878  20.2531053  12.9821522  11.6063717
  36.0633161  78.0497654  16.0518577  35.7106366  78.9381226  16.1035469
  36.6667041  77.9881557  16.7923763  89.9419372  17.4927170  21.1133697
  90.0923388  18.0380375  21.8855312  89.4362777  16.7486842  21.4404037
   0.5339028  11.2200196  23.1251648  -0.1488255  11.8209155  23.4235408
   0.7245542  10.6757481  23.8891342  55.6223341  75.0414070   5.1833370
  55.3489205  74.1521247   5.4084041  56.4487764  75.1633795   5.6506183
  35.6669784  15.1265144  48.2842922  36.3132834  15.1385796  47.5783348
  36.0140300  15.7344222  48.9371586  68.4664890  45.9449395  16.9934681
  67.8112265  45.6031474  16.3851574  69.0860745  45.2243375  17.1078231
  74.7151380   0.6573374  21.7110756  75.5832928   1.0588677  21.6748741
  74.6217709   0.3701432  22.6193931  87.7795065  13.9523637  45.9509993
  87.7907029  13.4564519  45.1323557  86.8620113  14.1980195  46.0696888
  69.6736905  60.7207235   0.6817558  70.2038714  61.3937052   1.1086490
  68.9769002  61.2079223   0.2420404   6.2615777   7.5658495  13.6534336
   6.2835289   8.3205826  14.2417553   5.5684258   7.7712805  13.0260780
  54.0325567  64.4846829  20.4018238  54.9367615  64.3116458  20.1397159
  54.0918180  64.7147115  21.3290813  51.6870018  79.7128185   6.7718055
  52.5456783  79.9327620   6.4105060  51.7935153  79.8091730   7.7181652
  72.9620239  21.1696371   3.9611795  72.0602819  21.2375983   4.2749860
  72.8781434  20.8842405   3.0513742  61.5997502  74.2577036  28.6456802
  61.4253088  75.0342949  29.1773822  62.1756455  73.7198194  29.1890552
  88.9663260   6.3307459  36.7865303  88.1273454   6.6498406  37.1189811
  89.3758552   7.1005137  36.3915851  39.8022079  30.2755904  65.8432293
  39.2677712  29.4917059  65.9702444  40.7046080  29.9642372  65.9136963
  50.8702612  46.3461733  71.4503527  50.1839066  46.7138195  70.8935881
  50.3972530  45.8412552  72.1118259  51.7515179  80.8260640  17.3895576
  51.3621661  81.6984757  17.3301151  52.6635572  80.9868010  17.6315811
  41.2340452   3.7706311  31.0826042  40.4927780   3.8398201  31.6842487
  41.3450910   4.6561415  30.7365253  15.0710060  25.2847941  29.3914631
  15.9563352  24.9417574  29.2699936  15.1878120  26.2328513  29.4528701
   6.7021292  50.0136614  59.5940828   6.6661048  50.8438778  60.0691366
   6.4687508  49.3537807  60.2470160  85.8854478  22.3188860  12.8579166
  85.3951757  21.9613440  12.1176174  85.5284756  23.1987269  12.9790809
  85.7286542   7.4636013  13.5081222  85.7326620   6.7380841  12.8837516
  85.6907790   8.2490618  12.9623630  52.7791023  53.6407185  69.1459656
  52.1897268  54.0105486  68.4886217  52.3235655  53.7726879  69.9774122
  39.6183696  81.3400825  38.0015400  40.0395032  81.7182716  38.7734535
  39.2705097  82.0938452  37.5250271  62.3214340  22.9920244  71.4806414
  62.9593086  22.7839875  70.7979536  62.7393961  23.6811829  71.9969749
   0.2052717  80.5179890   5.7905891   0.5052929  80.4729279   4.8827388
   0.8638887  81.0524209   6.2342479  30.5529857  18.2890213  62.2347164
  31.2215352  17.7416480  61.8228197  30.8389711  18.3726633  63.1443548
  76.3395473  84.2426737  12.6401546  75.8577081  83.7967213  13.3367088
  75.8731100  85.0695237  12.5177314  84.8586389  80.6825169  26.5020206
  84.6833345  81.2955340  25.7880809  85.5790874  81.0821303  26.9893577
  63.9419624  77.0773252  11.8044784  64.7439906  77.5948962  11.7330482
  63.2369253  77.7049907  11.6457489  30.1331234  29.1970301  64.8840189
  29.6120882  29.2143154  65.6867981  30.3156567  28.2689857  64.7368860
  64.4481989  84.5151623   7.6963260  64.0815421  84.5024498   6.8122318
  64.2170545  85.3784808   8.0390957  70.1042053  61.7824694  21.0658672
  71.0401079  61.7778333  21.2666061  70.0545117  62.0955356  20.1626804
  81.6306489   7.5162823  19.5704200  82.2693484   7.2333605  18.9160087
  81.7653649   8.4611161  19.6437576  59.2193099  57.8792509   6.9698742
  59.2480322  56.9240232   7.0241478  58.4716007  58.0644937   6.4016750
  31.7201090  18.9749038  64.5260096  31.7937493  18.3733547  65.2669191
  31.3047051  19.7558057  64.8918867  25.5749970  56.8463298  28.9806678
  25.1783733  56.5370341  29.7950771  25.6478100  56.0620459  28.4367683
  72.0124456  77.5325521  25.5913761  72.3517963  77.3080905  26.4577987
  72.4882385  78.3260520  25.3459861   3.1522474  40.6969547  53.4212065
   2.4591763  41.3548470  53.3658457   3.8843429  41.1545134  53.8346195
   4.5533706  42.5647099   4.4504097   5.4100777  42.9911263   4.4291809
   4.6278240  41.9121392   5.1467207  75.6445031  20.8235390   3.2673481
  74.8554426  21.3430150   3.4214952  76.2855964  21.1721976   3.8867548
  82.7637502  49.0338173  22.9385212  82.5398895  48.2336422  22.4632957
  82.3403236  49.7338726  22.4416664  42.4423218  16.0599566  60.6242085
  42.5785875  16.3096440  59.7102499  41.4976501  16.1401653  60.7561159
  41.5041685  72.2968531  63.5659504  41.3791561  72.8990602  62.8324986
  40.6411982  71.9069242  63.7054634  46.0281658  35.6265354  72.5337982
  45.5965185  34.7741580  72.4757910  45.8506918  36.0427809  71.6903114
  42.9855347  34.8722148  67.5231838  42.3116302  35.4996157  67.2615433
  42.5387716  34.2786264  68.1267452  61.0721779  21.5942621  67.3631382
  60.7323456  22.0725751  68.1194210  61.4561272  20.8001041  67.7347898
  78.3929750  56.0775503  10.8931472  78.4276601  55.3854223  11.5534427
  77.6576396  56.6282876  11.1618545  78.7509319  85.3684004  12.4546268
  77.8652116  85.0062808  12.4301078  78.8452503  85.7106074  13.3435848
  40.9256507   8.4265501   3.1123188  40.6793071   9.3307526   2.9174879
  41.1610795   8.0540497   2.2625806  22.2368984  52.3026027  18.7833717
  22.7952938  52.6458027  18.0857780  21.8360691  51.5195867  18.4059360
  55.2320099  44.2355919  65.9237909  55.3857899  44.9208593  66.5741682
  55.7873487  44.4792747  65.1832151  52.6576424  35.2301431  71.3142347
  52.5181293  34.6571112  70.5603075  52.2719669  34.7554088  72.0505190
  33.8476124  76.1257704  11.2228420  33.4318894  75.6330188  10.5153110
  33.1417706  76.2878068  11.8487575  86.7237159  76.5952810   4.8202160
  86.8140813  77.0225509   3.9684513  85.7817718  76.5972479   4.9904325
  46.7722894  13.6427958  29.8460796  47.2830965  13.9977105  29.1185215
  45.8667137  13.6662943  29.5368602  70.0287172  71.2862643   1.8397405
  69.2256829  71.7360052   1.5768650  69.9917408  71.2694581   2.7960804
  30.6310274  19.8222764  19.7183540  30.6279518  19.5650990  20.6403473
  29.8392631  20.3500111  19.6142605  50.9427167   7.9036934  40.8079746
  51.7544939   8.3913882  40.6686905  50.2757932   8.5790617  40.9317329
  91.1130830  75.3222950   4.6082571  90.4030677  74.7656902   4.9281004
  91.3337203  75.8809861   5.3535202  17.5416505  50.6294155  69.1853666
  16.7016149  50.2088261  69.3688774  17.8348660  50.9594488  70.0346804
  62.4046537  80.9017380  31.6561153  62.7953025  81.2173637  30.8412483
  62.2910758  81.6893538  32.1880844  83.3590644   0.7592995   8.9694336
  83.3425730   0.4106648   9.8607376  83.7567275   1.6254313   9.0583637
  15.8977272   6.2484057   5.5793979  15.6005575   5.3387005   5.5603244
  15.1089956   6.7617447   5.4044225  53.9930630  38.2508874  66.3635302
  54.1310692  37.5514913  67.0023060  54.3548298  39.0321398  66.7818546
  63.3931872  81.7014678  22.6115158  63.9084240  81.0404333  23.0739048
  62.8818151  81.2035569  21.9736984   4.1563488   8.0682118   7.7144172
   4.2417575   7.3255188   7.1166351   4.9481632   8.0358536   8.2512691
  35.5781007  26.5614605  64.9510384  34.6643925  26.8427229  64.9985838
  35.5318689  25.6380582  64.7032022  73.9717981  71.5554722  39.3205383
  74.6902152  70.9332355  39.4342640  73.1849500  71.0109528  39.2959335
  91.0467597  70.1059516   4.8953178  90.2457687  70.4230245   4.4780567
  91.3861677  70.8647951   5.3698614  75.8948394  78.8599833  13.0675914
  75.6635972  79.6158822  12.5278022  75.7224008  79.1447934  13.9650181
  56.8359232  42.7537584  69.5493412  55.9076452  42.9772234  69.4815397
  56.9309807  42.3897314  70.4294968  21.1766624  69.0571451  72.7789736
  21.6915894  68.2954502  72.5126934  21.8102717  69.6403980  73.1968117
  67.9315254  82.1360691  17.9699257  67.6817342  82.9466208  17.5262478
  67.8893873  81.4665159  17.2871711  33.4605408  44.2381239  71.0309839
  33.2701325  45.0945711  70.6482649  34.3001747  44.3556643  71.4753151
  22.5940871  61.1701298  65.1976299  22.0180440  61.1100769  65.9597349
  21.9982028  61.2121153  64.4497061  82.8336906  35.2074957  71.9725513
  83.6941051  34.8837686  71.7058372  82.3517227  34.4218731  72.2308779
  68.4250518  67.5218543  22.8735759  67.4842354  67.4633726  22.7072075
  68.5840317  68.4535178  23.0250862  87.9802820  85.0337609   5.0068214
  87.4262687  85.4508885   4.3470409  87.5686857  84.1837080   5.1624944
  21.7492820  45.5716164  13.3070114  21.4981319  46.4922936  13.2327964
  21.9834711  45.3145916  12.4152019  79.7088676  11.6789849   5.2448061
  79.5068925  12.1490653   6.0537937  79.0447622  10.9914286   5.1951292
  57.3290249  75.4696735   1.7204168  57.9076382  74.7277482   1.8964508
  57.7966234  75.9879526   1.0654619  70.1691437  37.8580356  71.4049911
  70.7616138  38.2069302  72.0709324  70.5906487  37.0514798  71.1082840
  74.2719289  81.3111218  41.4959362  74.2299339  81.4246114  40.5464199
  75.1724311  81.0337194  41.6644027  54.8178816  19.6423578  61.1605787
  54.1848755  18.9291418  61.0777617  55.5761957  19.3494570  60.6552076
  49.9073172  33.9806867  67.3800039  49.6039915  33.1266046  67.0721626
  49.1467094  34.5538330  67.2840405  27.8779965  60.6856998  27.7905395
  27.2342663  59.9783858  27.8299835  27.8362923  61.0959478  28.6543682
  49.6668054  30.1369078  14.8366573  49.6286394  29.9718840  15.7787540
  49.3509675  29.3258030  14.4384315  44.0062952   4.0624672  53.6649418
  43.2846928   4.5043537  53.2174397  43.7355042   4.0306327  54.5824862
  12.2137119  40.5226834  19.4768455  13.0489017  40.6958516  19.0424373
  12.3824264  39.7548039  20.0228622  53.3701035  84.3605574  17.4440983
  53.3308312  83.7892111  16.6771248  54.0794965  84.9732741  17.2502544
  51.2996531  42.6259470  62.8482151  50.6484795  42.5439978  63.5449839
  50.8989096  43.2211351  62.2146654  75.3629991  85.5213698  26.2695530
  75.1902219  85.2804573  25.3594234  74.9808523  86.3939866  26.3630130
  87.1489590  28.1742032  33.1305435  87.5690143  28.8327820  33.6837700
  87.7817290  27.4571736  33.0892589  61.3896653  80.0446304  34.1815784
  60.6999370  80.6336196  33.8756397  61.9420382  79.9029048  33.4127929
  87.4018640  30.4460859  74.0197229  86.6384128  30.9758329  73.7900639
  87.0965306  29.8809266  74.7293711   7.6352741  23.5249169  37.5984218
   8.3769418  23.7848599  37.0519951   6.8647362  23.8143952  37.1098449
  25.0655843  46.6768010   0.8934858  24.6821166  46.2130387   0.1491001
  24.7769548  47.5830395   0.7855585  10.0282919  63.2285166  65.8417320
   9.0926641  63.0266809  65.8513546  10.0726116  64.1675329  66.0220671
  60.9784242  80.1363047   2.8105667  61.7882511  79.9636992   2.3303392
  60.9206983  79.4235047   3.4468153  46.9445467  46.6951036  66.6094780
  46.4269114  45.9348774  66.8746948  46.3024330  47.3103380  66.2553358
  69.2222830  72.4651273  26.2565639  68.9625856  71.6336020  25.8598831
  70.0056001  72.7269967  25.7727554  77.8740379  58.0975564  28.4396198
  76.9366809  57.9117187  28.4948661  78.0984470  57.9273625  27.5247982
  67.4027487  68.4263714  34.3361404  67.3563882  69.3087467  33.9680412
  66.8520900  67.8969749  33.7593010  87.2597115   2.8338177  28.2779911
  86.5436380   2.2534115  28.5360553  86.8263881   3.6438019  28.0089405
  52.0204258  81.1703205  72.9892921  51.1993361  80.9537506  72.5475454
  51.7843246  81.2368107  73.9145327  46.0122013   9.4164169  46.2621117
  45.7132912  10.2641296  46.5911531  46.6034698   9.6341479  45.5415392
  16.5847778  38.4920669  57.5346279  15.6292677  38.4399581  57.5118828
  16.7703688  39.4164610  57.6998091  44.1134739  41.3425970  70.4161024
  44.7748947  40.9028292  69.8819160  44.3469858  41.1203432  71.3173819
  30.4546738  44.9503660  71.7612219  31.2834096  45.4199314  71.8557739
  30.7095242  44.0340233  71.6535378  17.5436621  55.9533032  53.7114360
  18.3313494  55.7403823  54.2118862  16.8469219  55.4541179  54.1375759
  71.0961267  62.8281256  25.0331905  71.8052265  62.6658996  24.4110325
  70.3017351  62.8165897  24.4993045  25.1907255  12.5609143   0.2210739
  24.6421720  12.7520974   0.9818437  26.0824682  12.5388606   0.5682542
  12.4123336  22.7898438  22.9590919  11.7641355  22.0991404  23.0969265
  11.9546653  23.4465106  22.4341514  77.0149403  18.3088095  43.8343742
  77.0940357  19.0243752  44.4652012  77.1689956  18.7208493  42.9842403
  58.7006089  61.9963630  35.4695537  58.0413624  62.0826980  36.1581543
  59.5374795  62.0561334  35.9303215  29.8208833  78.6249924  68.9348412
  29.7731853  77.8772736  68.3391333  30.2050757  79.3262768  68.4086990
  66.5912133  13.1973870  16.9255283  66.6410576  14.1492636  16.8379333
  67.5033837  12.9075510  16.9123008  17.5475837   6.3173087   1.1077383
  16.6371252   6.2894804   1.4018991  17.5010063   6.6648610   0.2170828
  66.4030119  82.6534589   0.4001787  65.5541130  83.0848988   0.3029087
  66.1917254  81.7226871   0.4726722  36.7537069  17.3353314  33.6116910
  37.6514888  17.2952902  33.9412618  36.8483281  17.3428524  32.6592088
   2.8178264   0.5254014   9.5871761   2.5220324  -0.1628225  10.1830700
   2.0496441   1.0833724   9.4655540  72.0063325  56.1522051  20.1655414
  71.6993162  56.7605802  20.8377388  71.9120284  55.2871545  20.5643203
  31.3547683  21.9904017  65.9343147  30.6462240  22.0497990  65.2934837
  31.0531449  21.3365316  66.5649605  86.6144276  30.9811974  53.9698410
  87.2104263  30.2389669  53.8692856  85.8778095  30.6307364  54.4706488
  85.0456398   9.9597914  16.6971328  85.2891367   9.1111310  17.0668914
  84.0886061   9.9630196  16.7147472  24.8332814  82.6399327  51.9459820
  24.6013430  82.1600581  52.7410650  25.7187537  82.3427496  51.7365742
  40.6628808  85.5012091   9.1913631  39.9564907  85.5512532   9.8353603
  40.5729112  86.3018092   8.6744716  29.1390972  34.2366531  17.7368286
  29.9854641  33.7959536  17.8121593  29.1235523  34.8522808  18.4696319
  32.6771522  66.8765020  62.0630741  33.1703782  66.1385345  62.4213552
  31.7995954  66.5262747  61.9098854  28.7633395  24.3557358  66.1456680
  28.0359769  24.9743748  66.2124681  29.2031813  24.4106817  66.9940519
  36.2056923  47.1214867  70.7492256  35.9032845  47.2625399  71.6463804
  36.5686226  47.9663181  70.4831934  50.7849285  84.8192748  42.8179195
  50.5638548  83.8981923  42.9556205  49.9665698  85.2887543  42.9795005
   3.0580597  70.6592902   2.5698593   3.1079893  70.0671442   3.3202627
   2.1324854  70.8966525   2.5132349  21.8760730  26.7545779  28.4607341
  20.9963848  26.5625317  28.1359413  21.8083383  27.6353962  28.8292434
   0.5547954   6.7893012  11.8455722   0.2411820   5.8897383  11.9386699
   0.5293275   7.1449645  12.7338817  49.8243897  25.0870402  64.7364643
  50.3965216  25.2154238  65.4930523  50.1732760  24.3089325  64.3016555
  74.7027465  84.6704014   1.4544752  74.8313447  85.1687153   0.6473997
  73.9710113  85.1064118   1.8911531  77.5501018  17.1188672  25.6084087
  77.1876161  17.7776558  25.0160911  78.0915575  17.6183398  26.2196281
   6.6021968   8.4695656  36.4512851   6.1461760   8.1448491  35.6748607
   6.7710473   7.6863177  36.9749572  33.8830161  17.2626543  43.3726692
  34.6997023  16.7648804  43.3341980  33.5020018  17.0326126  44.2200994
  59.3481776  71.8931182  33.8282421  59.6553012  71.0274466  34.0975406
  58.5067483  71.9976123  34.2724445  41.2463876  69.4430002   1.0888841
  41.5084311  70.1584514   1.6682794  41.3574776  69.7965749   0.2063444
  35.4917793  72.7757200  40.4051807  34.7514801  73.3540972  40.5886772
  35.6177502  72.2832473  41.2162521  38.0933404  25.7051802  67.6754665
  38.1569314  25.1133513  66.9258499  38.6640120  25.3151727  68.3376312
   2.8323652  16.9889958  22.5823047   3.3737947  16.3862355  23.0919769
   3.3231307  17.8108151  22.5830581  90.8142321  20.7699950  31.6832760
  91.2983458  20.1728661  31.1129215  91.1152284  20.5547650  32.5660541
  30.1629688   2.1517832  41.5258815  29.8798229   1.2732680  41.7793968
  30.1847173   2.1296627  40.5691841  75.5798599  72.2148689  10.7216957
  74.9457189  71.5140494  10.5702045  75.6901189  72.2367485  11.6722801
   4.0398432  22.1916563   5.9500530   3.2756783  22.7651770   6.0080364
   4.0496828  21.8971045   5.0393560   7.3794298  45.6856250  15.4270961
   7.8846245  46.2045374  14.8012092   6.6051130  45.4075681  14.9378612
  17.1999456  17.6286871  39.3422249  18.0873729  17.9873164  39.3513134
  17.2091295  16.9846423  38.6341598   6.4043237  17.8037293  12.4342849
   5.9695579  17.0297606  12.7923134   5.7919790  18.1416113  11.7807605
  83.2075902  65.0557121   5.8204963  83.5359165  64.5361002   6.5542820
  83.4089061  65.9606512   6.0587909  29.8111980  69.0331896  12.8236225
  29.9540729  69.6248635  12.0848777  28.8699090  68.8597163  12.8129795
  24.3402648  18.6313570  53.1452227  24.9226403  17.8794432  53.2533693
  24.8396826  19.2456961  52.6072598  87.9289549  13.3866293  54.5162990
  87.4070113  13.0695946  53.7792137  87.4143308  14.1059287  54.8823669
  87.2090333   0.8477528   0.0999906  88.0988925   0.5086930   0.1970604
  87.1025174   1.4541800   0.8328846  77.7698421  36.7642474  67.6650810
  77.7774858  35.9317279  68.1373978  76.8419409  36.9843316  67.5826311
  60.9564924  50.4909086  67.8490591  60.2159357  51.0913801  67.9341412
  60.8165693  50.0556993  67.0080805   2.0036753  31.8203568  73.0047703
   2.0051917  31.9313169  73.9555168   2.1970233  32.6927209  72.6615143
  72.8865453  84.0466793   6.5967872  73.1328699  83.2242402   7.0200470
  73.7199851  84.4780930   6.4083889  70.2529427  79.7653397   7.3226669
  70.3682968  80.1036843   6.4347198  70.3092238  78.8147052   7.2259453
   7.8464871  84.2567118  21.2434414   8.0206232  85.1059779  20.8376625
   7.4637919  84.4716557  22.0940712  27.9794074   6.8197186  36.5520790
  27.0673181   7.0634158  36.3941410  27.9350425   6.1638052  37.2478130
  21.8576455  24.2333817  73.5378265  21.2018538  24.8283410  73.9014149
  21.4929819  23.9606047  72.6958990  55.9065410  82.6074823  70.8173969
  56.7105576  83.0981549  70.9877708  56.1881515  81.6936453  70.7746341
  87.0293157  10.1357920  53.7784412  86.3663357   9.4483693  53.8427761
  86.5467995  10.9067233  53.4799793  54.1827341  82.3869308  31.4636638
  53.9985105  82.6916154  30.5751445  54.4732019  83.1706341  31.9302108
  51.7699191  57.7420791   2.2842434  51.8283578  57.3760172   3.1667497
  51.1179038  58.4391077   2.3567655  10.4853298   8.2711823  26.9585159
   9.9134017   8.0317290  27.6877620   9.9145986   8.7418206  26.3510635
  87.8267067  11.6782839  23.1921985  88.3428781  11.5525610  23.9884308
  88.1770819  11.0354025  22.5756195  33.8917899  32.9683328  61.2494421
  32.9654241  32.8634214  61.0324860  34.0749478  32.2599888  61.8666410
  79.0923119  23.8544083  69.5347500  78.7563562  24.7506428  69.5233536
  79.5909357  23.7958765  70.3497219  38.3320498  31.5616393  68.1727600
  38.7328124  30.9546375  67.5505257  38.8440561  31.4555025  68.9745188
  86.2921735  50.8106162  28.9750698  86.3033983  50.2178349  28.2235935
  86.9319698  51.4878668  28.7554767  45.2960350  13.8545067   2.6655796
  46.0392143  14.2839987   2.2419622  45.0659276  13.1368382   2.0754650
  48.8757849  42.2560167  64.3113661  48.4973955  43.0343056  64.7204113
  48.3033276  41.5393162  64.5849895  84.5840522  67.5383266  14.1254547
  85.2885028  67.6023658  14.7703483  84.6990177  66.6741641  13.7301853
  86.7851468  66.6936167  24.2398193  87.3740169  67.2753318  23.7591198
  87.2751829  65.8760746  24.3277099  40.3810549  14.0765154  51.4596272
  40.6171703  14.2106223  52.3775053  41.1760139  14.2952597  50.9733963
  26.9541502   6.6030324  58.8760757  27.5777435   7.2537994  59.1983604
  27.4208379   6.1519533  58.1725407  86.8651267  83.3173855  21.5736511
  87.4005433  83.3356722  20.7804134  86.1167213  82.7662428  21.3448169
  15.2569878  45.4039335  69.6775198  15.2199900  46.3389444  69.8790550
  14.9434030  44.9747467  70.4735708  75.1656505  68.2426222  35.9650638
  75.2657005  68.1791504  35.0152233  75.8576175  67.6825055  36.3167503
  17.6318075   1.8733199  38.8283374  16.7830898   2.2055180  38.5358455
  17.4176122   1.1176140  39.3753936  45.5846357  40.1747704  68.1967354
  44.9084806  39.6971583  67.7161789  46.0925245  39.4930792  68.6367083
  84.0035888  70.2503379   7.3252704  84.7532007  69.8440202   7.7602604
  83.2572528  70.0375040   7.8855446   2.9304625  10.3944094   7.7972534
   3.0470396  10.8639176   6.9712951   3.3677436   9.5542366   7.6589515
   0.5030467   2.8899605  27.0512893  -0.1509999   2.2231944  26.8418148
   0.1413847   3.3507235  27.8083446  87.2669193  53.2926186  32.9267624
  87.3160669  53.4471723  33.8701179  87.4734041  52.3634895  32.8251960
  38.1477213  45.4231644  72.1818972  39.0551662  45.7262611  72.2120142
  37.8796887  45.5595255  71.2731647  81.0117360  79.0224131  11.4128807
  80.2251741  78.5974821  11.7549255  81.7364999  78.5203656  11.7855671
  13.8305557  22.8599381  70.4975080  13.7832677  23.7977982  70.6830072
  13.0494821  22.4940133  70.9125471  56.1673641  36.1902618  57.4756193
  55.4817438  36.4239168  56.8498707  56.8166637  35.7181787  56.9542980
  44.0199682  62.6677807   5.4861143  44.0853545  61.8489142   5.9774521
  43.6164256  63.2829460   6.0984447  30.7787801  40.7279236   9.4930103
  31.2140800  41.2902100  10.1337745  29.9376155  41.1552842   9.3316486
  27.8540517   6.6183360  55.0094440  27.6962902   7.5624402  55.0056484
  28.2898237   6.4449580  54.1750171  87.0260279  24.4919713  37.0571544
  87.9824107  24.4602854  37.0334842  86.7533438  23.5814459  36.9439342
  33.1985617  15.9379470  53.7331438  32.7269912  16.7705417  53.7584114
  33.6969519  15.9696531  52.9165411  82.5894805  55.7621392  27.7537086
  82.3409101  55.5107029  26.8641975  82.3848125  56.6958102  27.8047207
  44.6154310   2.5069697  23.0305603  44.5236970   2.0087035  22.2184398
  45.5381156   2.7606995  23.0529621  31.3494444  51.2411404  58.5394669
  32.1942425  51.6238928  58.7762165  30.7155514  51.7006302  59.0901709
  20.9598446  69.5593023  54.3627977  21.6147494  70.1500750  54.7347116
  20.9312296  68.8203526  54.9705505  62.9161930  38.0575371  66.8425179
  63.0100441  38.9992380  66.6989088  62.3916435  37.9879999  67.6401711
  58.3537912  41.9362402  63.7397432  57.6412201  42.5699759  63.6569262
  58.9580584  42.1614742  63.0323839   6.4943148  11.2415059  39.3702343
   6.7930891  11.9183905  39.9775245   5.9115435  11.7018445  38.7663391
  32.9974510  12.7585251  13.9179924  32.9539110  13.3802493  14.6444824
  32.2185422  12.9469187  13.3945110  11.1669712  63.8667305  10.6949546
  11.2559681  63.0023678  10.2934673  11.1154728  64.4707449   9.9541786
  66.9394728  83.2058772  43.4903171  67.6707360  83.5717686  42.9927089
  66.1714217  83.3702954  42.9432323  28.0579121  63.1600722  36.6676834
  27.2846695  63.2198890  36.1066559  27.7431279  62.7335938  37.4647167
  63.9898205  53.2622766  57.4604177  64.8588133  53.6627197  57.4332905
  63.8441896  52.9454041  56.5690041  82.8408643  83.9028033  18.6337307
  82.2726318  84.3771513  18.0268314  83.7256261  84.0538033  18.3011177
  41.4117384   6.3093251  70.2672148  41.4378309   5.3635025  70.4120255
  40.8901691   6.6486883  70.9945583  65.4212281  52.4774828   8.4244850
  66.1578056  51.9799795   8.7796905  65.8287450  53.1872710   7.9281356
  12.2840842  59.2581558  44.4723129  11.4785155  59.6571970  44.8010397
  12.0104369  58.7719202  43.6945486  19.9167634  39.7530205   8.5804584
  20.3301288  40.0038846   7.7543667  20.3352310  40.3103096   9.2366150
  76.1004325   2.6884150  61.9341183  76.0300037   1.8653654  61.4505148
  76.9947883   2.6900076  62.2752285   4.2263295  36.0265620  10.3744819
   4.0655757  35.3435833   9.7233799   3.3870651  36.1328251  10.8223369
  18.1197120  21.6033108   0.7270601  17.8495361  20.7674105   1.1071994
  17.8475143  21.5489562  -0.1890108  43.9414835  75.4714394  63.4400034
  44.5678234  74.7536039  63.5329628  44.3805695  76.2250185  63.8344002
  14.5413543  40.3341610  43.8048580  13.9755203  39.6077378  44.0663364
  14.0078355  41.1162217  43.9462021  17.8323555  34.4892287  69.4195604
  18.7846673  34.3929553  69.4277382  17.6555800  35.1765299  70.0618982
  22.6420356  21.3398344   5.4475143  22.3220397  21.8030579   6.2216308
  21.8736888  21.2583430   4.8825100  72.0414782  45.3441525  55.9644127
  72.2370148  44.4910049  56.3518953  72.1279144  45.2043962  55.0214243
  43.4750748  49.7299623  70.7562447  43.2425499  50.4186630  70.1334667
  42.8325653  49.8169136  71.4604139  33.9031126  28.8053782  42.5149944
  33.2641698  28.8306315  43.2272747  34.6775485  29.2398055  42.8724220
  41.5420724  29.7730143  10.3650882  40.5882408  29.6928532  10.3671100
  41.7059137  30.6766589  10.0952556  86.0135746  45.4179907  70.6324482
  86.5781116  44.6450853  70.6446075  86.3783455  45.9916401  71.3063240
  77.5143814  33.1135249  46.8512154  77.3791695  33.3425355  47.7707291
  77.0684719  32.2731376  46.7456245  75.6075212  67.0286997   3.0083635
  75.9808370  66.1494215   2.9471948  75.0312110  67.0977052   2.2472217
  43.3032751  64.4419479  71.6880178  43.8114691  64.9989986  71.0983801
  43.3441067  63.5722160  71.2903595  59.9607946   9.4336255  21.6708687
  59.1724302   9.1942866  22.1581390  59.6330835   9.8702652  20.8846214
  16.4755727  31.4368136  26.0993793  15.6547500  31.2624533  26.5598991
  17.1577074  31.1929495  26.7250469  74.7612783  81.3075407  11.6382911
  74.4353792  81.9650348  11.0237053  74.4761583  81.6201242  12.4969127
  78.0261823  69.4030484  36.8578937  78.2368680  68.6730488  36.2757042
  78.4512636  69.1794594  37.6858738  11.3493015  11.1851151  28.2891967
  11.0367156  10.9494050  27.4157169  11.8677427  10.4309304  28.5696533
   3.6109759  43.3648808  12.3484733   3.3261467  43.5323365  11.4501121
   2.8039504  43.1627877  12.8218773  72.2943183  55.8017786  11.6717174
  72.2970935  56.2243482  12.5305870  71.4346763  55.3849431  11.6126468
  23.5992002  56.1186552  68.2862282  23.3595729  55.9763908  69.2019606
  23.3515120  57.0267153  68.1121302  71.3079568  84.6213826  17.8281715
  70.6106159  85.1250609  17.4083355  71.7017528  85.2313479  18.4519413
   6.5377642  32.6744206   7.4343422   6.2570502  33.0322583   8.2765892
   5.8917166  33.0009825   6.8080738  53.3766176  27.1420557  17.6249340
  52.4286176  27.0532353  17.7231815  53.7141801  27.1105940  18.5200813
  38.7719490   9.4588072  20.2144840  38.4587337  10.1338084  20.8165672
  38.9686014   9.9317105  19.4058254  42.5211336  20.3685648  24.5727279
  42.1813728  20.5463250  23.6956909  43.0114986  21.1574013  24.8040512
  14.5222570   0.7621224  12.4645069  13.6696340   1.1211426  12.7102115
  15.0495054   1.5289814  12.2405174  14.5916654   1.6908677   7.5891140
  14.1454460   2.5372298   7.6171901  14.3594552   1.2700970   8.4169128
  50.8659029  36.6989732  55.0012684  51.3268232  35.8704710  55.1330662
  50.0448942  36.5954757  55.4823828  34.2568517  70.2852583  71.5747404
  33.7748098  71.0563898  71.2760448  33.6813569  69.8793077  72.2230053
  15.8563186  22.9671366   1.3204267  16.7506172  22.6588328   1.4667585
  15.6209232  22.6196320   0.4601600  50.1348020   5.9442217  12.0899418
  50.6631853   5.1460917  12.0850113  49.7526170   5.9838612  11.2132385
  28.3297397  10.1656182  20.1161220  29.1147424  10.1417239  19.5689228
  28.1972171  11.0947163  20.3044155  83.8566085  81.7474588  14.7150638
  84.4578716  82.4360426  14.4312217  84.3219873  81.2992724  15.4213073
  58.5560894  52.1226788  72.0735598  58.0468798  52.8835058  72.3529816
  59.3767357  52.1914101  72.5614643   4.1497947  45.3357918  48.2599857
   4.8113634  44.9302800  47.6995304   4.6473433  45.9148056  48.8374164
  35.3790736  29.4376898  73.6029291  34.8077846  30.1150799  73.2409811
  34.9048257  29.1068673  74.3657351  82.5277870  23.0203326  13.4772422
  82.4167555  22.5290997  12.6632431  82.6670497  23.9241440  13.1944492
  54.7437765  14.2759545   4.8839166  54.7260572  14.9502404   4.2047575
  54.0596105  14.5383055   5.4997995  74.6219342  40.9242852  21.4864471
  74.9491577  41.8213112  21.4193943  74.2969876  40.7216675  20.6091907
  81.3753053  84.5863875  20.8184459  81.9210311  84.2100199  21.5089252
  81.8991681  84.4949826  20.0225570  34.9988651  23.5217571  69.1877270
  35.3861666  23.1377697  68.4010983  35.6438112  23.3591580  69.8760891
  57.5128698  54.8108006  72.7204037  56.6468811  55.0396109  73.0579567
  57.9242039  55.6528950  72.5256777  62.4030161  36.6080356  56.2632990
  63.0491495  36.6010833  56.9694805  61.6640091  36.1080670  56.6099024
  34.6129514  27.3523648  33.8271072  33.6724283  27.4779446  33.9531162
  34.7122957  26.4105780  33.6878135  35.5898538  71.1572774  29.4458702
  34.6336841  71.1768206  29.4857433  35.8688494  71.2115773  30.3599003
  31.0477715  73.8548287  17.4254730  30.3136425  74.2963441  17.8525093
  30.8218365  72.9253634  17.4611690  13.8781311  11.1876662  41.9708946
  14.3051292  11.6009791  41.2205150  13.0265619  10.9059603  41.6366699
  47.4212074  54.4633627  60.1105165  47.2158957  54.5663786  61.0397434
  48.1248283  55.0920486  59.9495602  47.4472286   4.4236166   0.6612375
  47.9482652   4.9523098   1.2822702  47.1673871   5.0448782  -0.0110409
  37.9492237   5.6114657  53.3194759  37.4629165   6.3677103  52.9910972
  38.4449388   5.2985222  52.5627926  34.8375131   2.4822457  47.0450046
  34.6212770   2.0399840  47.8659084  34.4122316   3.3369858  47.1141937
  84.0438502  17.2954018   3.5994175  83.1484382  17.5284798   3.8446548
  83.9780348  16.3957102   3.2793262  46.5426780   3.9019663  14.2486408
  45.6341888   3.6009009  14.2332008  47.0239164   3.2365067  13.7568977
  61.4055204  75.6290579  67.1904230  61.7217112  76.5320396  67.1607304
  60.4544830  75.7105398  67.2619820  56.9153500  45.1831341  60.0211048
  56.4579821  45.8707809  60.5050325  57.8372765  45.3023243  60.2493191
  30.8392860  13.4439499  45.1176670  31.7778160  13.2565243  45.1341465
  30.5551578  13.3240969  46.0238292  86.7234056   4.0299208  13.5773399
  86.9926589   3.3676941  12.9407909  86.1000960   4.5794136  13.1021812
  65.1392698  26.0862255  72.9020119  65.3733969  25.2930784  72.4200010
  65.9373569  26.6146660  72.8957558  19.2854692   4.3372519   9.5294883
  19.6682550   4.8821719  10.2170684  19.6165706   3.4572871   9.7091224
  17.0508529   9.4709618   4.1825607  16.8400384   9.1798956   5.0697305
  16.2483932   9.3186409   3.6834791   8.9890315  24.8452456   3.9465692
   8.5699464  25.1812537   4.7388437   9.9228097  25.0052483   4.0832737
  52.8091621  69.5741320  73.4232283  52.0664930  70.1659679  73.5432339
  52.8215361  69.0410948  74.2181826  12.0942165  18.8818247  13.8995674
  11.3879110  19.5101340  14.0498855  12.1884347  18.4231265  14.7344043
  44.0730914  63.4406503  13.0129650  44.9444231  63.0449613  13.0339935
  43.8110646  63.4919103  13.9321735  56.0425283  10.7064183   0.9548977
  55.2413370  10.7396157   0.4321935  55.7940294  11.0844977   1.7984226
  16.3591577  18.4683640  10.4056480  15.9910585  19.3443043  10.2896049
  15.6977798  17.9956467  10.9109714  86.8910067  20.9119160  16.1880043
  87.6101892  20.8892281  16.8192699  87.2136109  21.4659245  15.4772117
  86.0136795  51.6216135  56.8602324  85.1863956  51.6188335  57.3417091
  86.5798664  51.0280037  57.3534775  78.8477230  19.0062916  66.4916992
  78.3834600  18.5811317  67.2127581  78.1551886  19.3927598  65.9557247
  30.0506806  61.8414783  62.5048971  30.1183820  62.3112679  61.6736698
  29.1844702  62.0722151  62.8405619  80.1152536  64.1205104   7.5543811
  80.5561849  64.9693664   7.5897625  80.3326484  63.7735637   6.6891697
  91.0800743  72.5852394  61.5761995  90.4108524  72.2422123  60.9839964
  90.7185745  73.4133101  61.8921947  44.8237038  36.6571307  70.2808142
  44.9502420  36.3734770  69.3754053  45.3117514  37.4780560  70.3450441
  91.2217849  17.4407608  18.6635997  91.0178511  16.5356619  18.4281376
  90.7866304  17.5729973  19.5058563  73.0730104  67.8250790  52.7919626
  72.1625137  68.1144047  52.7326584  73.2950497  67.9212618  53.7180710
  82.7693844  56.2987661  64.9512815  82.7251625  57.2261095  65.1843357
  83.6066532  56.0018826  65.3077507  86.1716863  75.9501036  16.0973480
  86.4735147  76.1463769  16.9842556  85.2295705  75.8089074  16.1907127
  74.2212920  21.5865834   6.3636425  73.5169630  21.5493758   7.0107582
  73.7710398  21.5807087   5.5189684  19.2051317  21.7242272  27.9519870
  19.6940471  21.0718758  27.4503639  19.7963048  21.9721205  28.6628273
   8.1070188  84.1136962  44.0524626   8.4470061  84.1412167  43.1581020
   8.7510875  83.5980631  44.5377731   2.5863100   2.3214800   2.4727419
   3.4618522   2.2808344   2.0880249   1.9938947   2.3170598   1.7209032
  87.4935361  72.2246321   7.8315284  86.7658016  71.6061529   7.8957012
  87.1479865  72.9475792   7.3079136  51.3766371   6.9584639  23.6472919
  50.4241424   6.8669970  23.6721733  51.5449881   7.8172953  24.0349701
  15.7779170  23.0018265  20.0730541  14.9224426  22.5726445  20.0874355
  15.6078960  23.8858111  20.3984668  43.0787373  35.7115126  73.8817930
  42.7760983  34.8057485  73.9468575  43.1164026  35.8844709  72.9411030
  10.8483602  39.7153122   9.0801647  11.6032173  39.3874104   8.5913875
  10.3822328  38.9268811   9.3582561  44.6528149  22.6290679  56.0872173
  44.0495253  22.1519041  56.6569471  44.0891695  23.0380940  55.4305363
  45.9426022  48.6593103  72.2729921  46.6054249  49.3307638  72.4343920
  45.1570559  49.1509342  72.0333052  10.7992126  22.0229371  17.4643638
  10.7479288  21.0985310  17.2213104  10.6740762  22.0283778  18.4133365
   1.4897566  63.3971747  10.7003429   2.2935896  63.3330496  10.1846149
   1.7723780  63.2526048  11.6033676  14.6845015  14.3730283  72.6603317
  14.6097907  14.6767521  73.5649872  14.5874842  13.4225059  72.7180195
  18.9799464  54.2857552  69.9968433  19.7405756  54.5365858  69.4726706
  19.0467417  54.8212814  70.7874060  18.1945325  29.4020207  15.8773830
  18.6704160  30.1758606  16.1789444  18.1100322  28.8537390  16.6574314
  77.5898429  76.0854562   5.3438022  77.8458949  75.6280144   6.1446884
  77.3084804  76.9505437   5.6416061  42.3898840  54.9208069  69.3017435
  42.4072027  54.9586010  68.3454466  43.2981443  54.7502995  69.5511913
  82.3570824  29.2928171  53.8513374  81.8185997  29.1131425  53.0806303
  82.2674274  28.5094666  54.3940687  14.8267509   3.8958342   5.4170206
  13.9931013   3.5448725   5.1038339  15.4821969   3.2736475   5.1015737
  80.2299372  53.2395840  65.1900148  80.1025645  54.1878176  65.1606607
  79.6190945  52.8955793  64.5382786  71.1152526  68.8556345   3.7075021
  71.2447664  68.4770306   4.5770528  70.3717491  69.4491847   3.8130262
   1.2397127  79.5657690  26.2549522   1.3066082  80.3512438  25.7120159
   0.6598215  78.9837750  25.7637909  23.0156995   3.7935288   5.0754478
  22.0853425   3.9744265   5.2094343  23.4580614   4.2927582   5.7619789
   5.5977087  70.2610215  44.3206718   6.2739306  70.9315499  44.4173267
   5.5022125  70.1517924  43.3745315  84.9310926  84.6946812  70.9584999
  85.5221251  85.2655411  71.4494419  85.1610706  83.8101864  71.2431335
  15.4124834  11.8395312  10.0244835  15.1521303  11.5825398  10.9090164
  14.6366645  12.2663529   9.6609428  38.4618713   7.6987822   2.1909406
  39.1369630   7.0516665   1.9866684  37.8543998   7.6523764   1.4526584
  22.8367568  26.4191039  32.5653007  23.7251569  26.1552746  32.8048160
  22.4089958  25.6054385  32.2984626   6.4785891  83.1599673   2.0702436
   6.8303566  83.8806256   1.5476158   5.5295210  83.2308730   1.9678905
   3.0960490   5.8794053  10.1181820   3.6244728   5.7687933   9.3277671
   2.9184963   4.9866946  10.4144504  26.6356183   7.1331007   7.9412010
  27.4603940   6.9327815   7.4986484  25.9716989   7.0583804   7.2557285
  81.9456455   1.0211157  70.4401779  82.2072526   0.1246618  70.2300215
  82.7649423   1.5160822  70.4395962  27.5442295  61.6058858  12.8451278
  27.8484707  62.4968537  13.0178764  27.1298962  61.6570636  11.9837597
  48.1600142  50.6222010  66.6697264  48.1567478  49.9116135  66.0284090
  47.5043678  51.2399483  66.3460827  13.5630847  46.4571793  11.3778522
  14.1286375  46.5145428  10.6077316  12.6760580  46.4128907  11.0208442
   8.0360676  17.1162732   8.9069584   8.1698967  17.8646166   9.4885948
   7.4141981  17.4310524   8.2508876  72.2852489  68.5847195  42.1569660
  72.6111432  69.4627102  41.9590881  71.4654514  68.7340506  42.6279953
  42.0958885  76.4538248  50.6820133  41.7306730  76.9524773  51.4129093
  42.8855881  76.9349178  50.4347160  18.9479809  55.0593801   8.9236286
  19.1035967  55.6297322   9.6764305  18.4868221  55.6139024   8.2942894
  28.5174800   4.3019326  10.9429672  29.3931104   4.0158780  11.2031009
  28.1800081   3.5836632  10.4077652  54.8263360  21.4330037  59.1662243
  54.7256757  20.9575922  59.9908950  55.2601434  22.2500403  59.4121864
  65.8902904  85.0013312  31.4130905  65.3595373  84.7818287  30.6473568
  65.9351822  84.1873320  31.9147136   8.7096148  10.4495501  54.0040541
   9.1008930   9.5759939  53.9977646   9.3200522  10.9890341  53.5015106
  13.3306266  20.0491459  46.6194084  12.8366233  19.6719725  45.8914402
  12.7211620  20.6623538  47.0302131  34.8775102  -0.0061195   3.7211111
  34.4521142   0.7815106   4.0600851  35.7440807   0.2904923   3.4430721
  35.5822326   4.3530352  37.9392173  34.7668268   4.7250397  37.6031234
  36.0939695   5.1117928  38.2196548  26.1302425   8.9057143  37.0464542
  26.0091402   9.4109709  36.2425354  25.3001310   8.9972193  37.5141838
  33.6357118  12.9214938  45.2120235  34.2812921  12.4951870  44.6483543
  33.9967443  12.8389580  46.0946777   7.1013142  33.0768473  23.3025100
   7.6851822  32.7654536  22.6108768   6.6536213  32.2889550  23.6107757
  47.1491338  18.5293610  10.6357601  47.8768159  18.2309325  11.1813381
  46.6618444  19.1334946  11.1959484  82.8952714  85.5125483   9.8211792
  82.4369689  85.4441079  10.6587341  82.4178716  84.9224337   9.2380073
  11.2620192  65.7490166   8.6106327  11.2683373  65.1962527   7.8291919
  12.0473461  66.2899550   8.5277202  55.0692941  11.7342408  21.3994911
  54.9602128  12.3161633  22.1516159  55.9975625  11.8028338  21.1762359
  86.2970897  83.7058314   7.6054123  86.6960021  83.5650452   6.7467621
  87.0021984  84.0706213   8.1401851  60.2688810  77.0437463  21.1240890
  60.1803585  77.4758681  21.9735935  60.6134030  77.7231749  20.5445030
  42.8366327  66.2744522  59.4187737  42.9825163  65.7688522  60.2183437
  42.3591423  67.0511436  59.7102976   2.7209879   5.2490647  28.6265304
   1.9743659   5.5827410  29.1239669   2.5951935   5.5967410  27.7436187
  86.7518541  79.8032292   4.5088079  86.5527126  79.0232047   3.9909914
  87.4735471  79.5352634   5.0776556  91.2461444  72.1781071   6.7060497
  90.5144569  72.5782522   6.2362125  90.8952352  71.9840320   7.5752094
  89.3260166  78.1614598  49.4913891  88.5374900  78.5894307  49.8250034
  89.9625608  78.8703736  49.3993023  49.8027135  12.5835164   0.2183893
  49.9471094  12.1941311   1.0808017  49.4850017  11.8595107  -0.3211520
  73.6559439  35.9748912  51.8386364  74.3526316  36.6039872  52.0259619
  73.9479923  35.5227160  51.0471344  -0.1423048  40.2160580   1.9954040
  -0.5377339  40.3481324   1.1337640   0.7808734  40.0426991   1.8112352
   2.9327823   1.4015801  27.2432163   3.1712772   1.8082221  26.4101532
   2.0052387   1.6100867  27.3546531  33.9158797  40.7544470  73.5283041
  33.5735059  40.0914621  72.9287529  33.9303708  41.5600586  73.0115700
  67.7412367  55.5166626  70.1397991  66.8610573  55.8346033  70.3408623
  67.8666830  55.7279110  69.2146635  30.3119874  53.2790136  74.0446472
  30.7758617  53.1799603  74.8760557  30.8415246  52.7895832  73.4151363
  34.7289802  11.8649466  22.6345375  34.4739295  12.7371104  22.9353931
  34.7093917  11.3240273  23.4239986  80.4675787  24.6470196  15.2749279
  81.1997717  24.0761168  15.5077198  79.7845762  24.0489323  14.9715545
   8.7281681   5.9809906   0.7485798   7.9067613   5.9057600   0.2629211
   9.3147875   5.3539259   0.3256109  86.1282417  70.9429797  36.7953994
  86.6015073  70.1272448  36.6316059  86.0541269  71.3539704  35.9341076
  60.1977682  11.0706925  62.8264475  61.0246372  10.8833170  63.2707596
  60.0237560  11.9912934  63.0225229  84.4621437  13.2914145  16.4209392
  84.9873584  14.0741093  16.5875843  84.1957920  12.9921372  17.2902610
  38.5286403  67.8411341  65.6813955  37.5758290  67.8460503  65.7728338
  38.8315368  68.5110140  66.2943792   7.7208687  26.9020541  26.0392215
   8.0647613  26.0376103  26.2644127   8.4735300  27.3737843  25.6825664
  58.6654576   2.1762736  16.3705089  58.0300992   1.8948777  17.0288112
  59.1420541   2.8933318  16.7887333  26.4015460  46.0214806  60.9038734
  26.1399841  46.8785334  60.5673122  26.0237265  45.9837246  61.7825460
  40.8128881  84.3808937  61.5399647  39.8886704  84.4392395  61.2977982
  41.2436295  84.0332890  60.7590294  59.7557928   4.3936808  27.4293354
  59.2544462   5.1058228  27.8264930  59.7380163   3.6946757  28.0830124
  61.3194895  48.3871365  61.6420031  61.5365791  48.3956718  62.5742245
  60.8082438  49.1851664  61.5078211  23.7007046  69.0485191  58.2609510
  23.0055618  68.3927393  58.2065201  23.4588766  69.7083998  57.6110983
  45.2085972  66.9114113  32.4621201  45.2194595  66.4078712  31.6481423
  44.2806578  66.9875526  32.6842904  25.9396248  72.4270423  22.8747490
  26.5597515  73.1353076  22.7014282  26.4199238  71.6289123  22.6544311
  88.3933609  30.7045872  39.6826484  87.9816597  30.1893647  40.3763988
  88.6836331  30.0551732  39.0421512  59.0873766  46.1050749  68.1069708
  59.5938492  46.0453701  68.9170074  59.1887045  47.0149899  67.8276587
  64.1510248  29.4121981  70.6685400  64.0470219  29.2920756  71.6124582
  65.0073099  29.0323925  70.4716682  47.8165485  10.3368933  48.3320453
  47.2610856   9.8288138  47.7408149  48.1618692  11.0442955  47.7874592
   2.4515726  37.8403695  34.0890625   2.9294087  38.5124238  33.6030033
   1.6722776  38.2898171  34.4160583  49.7281742  49.0124846  58.4661245
  50.1824141  48.8545465  57.6385021  49.1130543  49.7193384  58.2706356
  10.6261302  32.1700413  18.3589199  11.5530635  32.0574982  18.1483009
  10.3836013  32.9953511  17.9390648  75.3291655  46.4490271  43.7711239
  74.8006821  46.6750383  43.0057144  76.2340975  46.5379477  43.4720898
  46.2950660  35.0656064  12.5367000  46.0076667  34.9214346  13.4382847
  46.0622312  35.9758551  12.3537471   7.9968192  17.1085579  14.6422889
   7.5726606  17.4041016  13.8367012   7.2902514  17.0768435  15.2872589
  55.2203751  52.6690388  69.3766165  54.3397808  53.0442476  69.3746758
  55.7961369  53.4082747  69.1810179   4.9091865  27.9498322   1.8059137
   5.3813340  27.6439602   1.0314777   4.1806604  28.4622939   1.4553859
   7.0828610  63.9630063  23.1810501   7.3157911  63.7000640  22.2906425
   7.7559786  64.5974573  23.4272602  57.3021507  10.8201456  69.6362257
  56.6385984  11.1576724  70.2378941  58.0062199  10.5099463  70.2056885
   4.4735270  83.9624031  48.7413910   4.1483860  84.8598154  48.6695221
   5.3207092  83.9782198  48.2961109  48.0406952  78.5905266  45.4875755
  48.0208397  77.7822685  45.9999704  48.8099003  79.0599346  45.8103943
   8.4628754  69.4024523   1.7305544   7.5546675  69.5477637   1.9956472
   8.9656668  70.0381192   2.2398355  87.8975075  10.9802468  30.8869007
  87.5679915  10.0820000  30.9153106  88.5364669  11.0235722  31.5983036
  29.1835548   3.8160546  22.9717567  29.0560962   4.7599442  23.0669620
  28.7887145   3.4404738  23.7586906  89.8471996  84.7229680  12.7353408
  90.3489181  84.6167286  11.9271209  89.3377086  83.9159640  12.8088024
  61.0490036  45.9718609  70.7644939  61.9716549  45.7179546  70.7425022
  60.7812452  45.8232546  71.6713858   5.1358940  34.5057471  19.4650295
   6.0669280  34.2836792  19.4748333   4.8063327  34.1206009  18.6530712
  82.8824902  45.0308323  70.5578470  82.6052094  45.9135962  70.8029556
  83.8245964  45.0201273  70.7268238  48.9363194  33.7082219  62.0707226
  49.7496700  33.2065582  62.1257114  49.1630507  34.4751740  61.5447855
  65.0216390  23.2945282  18.7543991  65.1113512  22.3773653  18.4955719
  64.5289136  23.2648594  19.5745113  56.9379711  39.8506618  72.6738024
  56.9555378  38.9302993  72.9362059  57.8537798  40.0674057  72.4990129
   9.3385149  41.4724667  27.0701912  10.2818109  41.3247616  27.1381309
   9.2423393  42.0689232  26.3277462  89.9929258   3.5152887  64.8600864
  90.4884883   2.7703070  64.5200253  89.3855163   3.7406229  64.1554499
  43.2724476  66.0530138  74.4256401  43.0325556  65.5339003  73.6580420
  44.1782904  66.3162470  74.2631912   5.6076729  54.8320532  61.5356302
   6.0543650  55.6419134  61.2890005   5.1374161  54.5675659  60.7449770
  44.0451004  34.5638258  18.8212803  43.7746335  35.0771840  19.5825603
  45.0016357  34.5947344  18.8391235  75.0601980  25.6946157  48.0982590
  74.1786453  25.7004427  48.4711838  75.6259271  25.9782957  48.8163900
  11.0049944  85.6900795  31.0543468  10.2464657  85.9065827  31.5965583
  10.9644632  84.7389563  30.9545925  13.0754690  43.4085218   9.5217731
  12.9670172  43.0435266   8.6435630  13.1481724  44.3525896   9.3814781
  87.0841762  59.7682997   5.5485943  87.1690961  58.8677128   5.8615902
  86.3375493  60.1207777   6.0328891  29.3596746  35.2481539   3.0760172
  29.0034582  35.3296311   3.9607217  28.6656906  35.5807669   2.5068214
  81.4545918  78.0116463  64.2589092  81.4640141  78.9522505  64.0817070
  81.7631245  77.9349089  65.1617670  58.2395364  35.7201655  20.7304790
  58.8577272  36.4288218  20.9090355  58.0698015  35.7815773  19.7904518
   4.6690588   7.7451967  74.4878578   5.2545242   8.0271887  73.7850475
   4.9005394   6.8288206  74.6392155  69.7387218  77.3255920  66.8281174
  69.2618179  77.2302389  67.6525593  69.6218061  78.2449722  66.5887451
  90.7462185  19.5039208  38.0552318  90.8856194  19.4811041  37.1085098
  90.3617661  18.6518939  38.2613208  16.6265298  47.3119385  20.0444629
  16.7386342  46.3613827  20.0551250  15.7169534  47.4488194  20.3093460
  57.7583981  26.7708373  65.3481340  58.3694458  26.3669276  64.7319269
  57.0969963  26.0971260  65.5059242   1.4611961  16.9638808  11.4405372
   0.6384660  17.3560746  11.1480835   1.2676288  16.0294945  11.5159443
  21.7781811   9.3337034  67.6907587  22.0364075   8.7119745  67.0103121
  21.2818317  10.0064539  67.2246313  59.7460939   6.4694769   4.6421650
  59.2518236   6.5619547   5.4566505  60.6274797   6.7717822   4.8612287
   0.4361181  73.2263287  19.2871883   1.1494093  73.5081633  18.7144687
  -0.2556772  73.8721260  19.1436985  46.6696121  14.6893342  23.4673813
  45.8668949  14.7959168  23.9777877  47.2521402  15.3765519  23.7908390
  10.2048971  51.2426312   7.7280071  10.5249073  50.3440220   7.8076008
  10.0621654  51.3637860   6.7892959  31.4615346  27.9542668  22.6251819
  32.3258020  28.0613930  22.2279480  31.0852195  28.8343842  22.6209190
  84.5130348  30.6690097  73.5019112  83.8403225  31.3422155  73.3994627
  84.0454960  29.9163985  73.8641548  64.7825147  34.2771323  16.0953071
  64.9528791  35.2129586  15.9884098  64.6331789  33.9576800  15.2054336
  36.7738390  49.0068865  73.3118010  36.0311508  49.6099567  73.3426809
  37.4757934  49.5121956  72.9017353  81.4701291  15.4648947  67.5641251
  81.4926406  16.4191889  67.6351070  80.9626743  15.2956652  66.7703485
  33.1221342  66.5912247  70.3510618  33.2079983  65.8392143  69.7651100
  33.9265585  66.5837574  70.8697844  10.5109073  11.7022450  31.1888340
  11.1936285  11.9455464  31.8140724  10.9787322  11.2480862  30.4880359
  85.0161745  60.5252488  10.1334217  85.7535268  60.0456078  10.5108955
  84.2831994  59.9112351  10.1776340  26.4507174  51.5562677  55.5736876
  26.5572476  52.4983215  55.4417419  26.1338258  51.2307310  54.7311687
  80.9150125  15.7742770   1.7873075  81.1916925  14.9424059   2.1715810
  80.3945734  16.1933739   2.4726799  30.9686928  77.2990330   0.0342491
  30.1719074  77.5740322   0.4878452  31.5688973  77.0469340   0.7359770
  38.1511451  16.1802657   3.0571869  38.3115818  16.5961153   3.9042785
  38.5407402  16.7781527   2.4192407  78.6060544   4.6708368  73.6497068
  78.6218234   5.1321672  72.8111649  77.7246925   4.3012785  73.7032175
  29.5071985   6.4993556  17.6799801  28.8507225   6.5829499  18.3715561
  30.0334074   5.7430203  17.9393985  73.3150503  81.6758402  21.3622406
  73.7900611  80.8750137  21.1402729  72.4016782  81.4776238  21.1555984
  10.3655960  22.1402724  20.2049949   9.5257331  22.5876029  20.3086879
  10.1673032  21.2179358  20.3668907  84.9925518  42.8737593  59.2461872
  84.5885086  43.5554028  58.7092113  85.6011963  42.4318218  58.6541796
  67.4173355  37.2138190  60.9699631  66.4980698  37.2667098  61.2314606
  67.6006269  38.0620289  60.5660152  31.4732887  21.8208535   9.0866687
  31.8358947  20.9629757   8.8657882  30.8775808  22.0221264   8.3649662
  24.1097452  36.2874873   8.4513214  25.0189973  36.2459357   8.7475708
  23.6826135  36.8785937   9.0713051  38.4063150  12.6852162   8.4345653
  38.6450006  12.2980483   9.2768028  38.3911325  13.6278899   8.5999992
  40.3245832  30.0072272   0.4899481  40.4120256  29.1353972   0.1045969
  39.5134736  29.9649603   0.9964588  10.9844781  38.9502842  23.2257583
  11.3961984  38.0953343  23.1001594  10.5846502  39.1502316  22.3793533
  82.9603577  58.5377312  51.9216871  83.3572674  58.8260508  52.7436161
  83.6252880  57.9805708  51.5171099  13.6869575  32.5888998  45.8895424
  14.1936780  33.1982071  46.4263942  14.2587186  32.3905499  45.1479366
  31.2776758  35.2026541   7.6532676  32.0452692  34.6939833   7.9145935
  30.7513000  34.5932133   7.1358326  36.3882925  44.4469864  23.3216026
  35.8748867  44.7917874  24.0521934  37.1071483  45.0705845  23.2186535
  15.6261970  41.2459595   9.4305923  15.4723979  41.9554932  10.0544002
  15.0511505  41.4472706   8.6923340  61.4543343  64.6528769  73.0288696
  62.4049664  64.6824408  73.1368303  61.2556553  65.3909445  72.4526596
  19.8240138  14.5399458   3.0947855  20.2873994  15.2771122   2.6971843
  18.9107086  14.6636374   2.8363063   2.6861335  45.3492482  24.7634628
   3.1901099  44.5533688  24.9332168   1.7894746  45.0413544  24.6314171
  60.5026340  45.4572487  63.7593412  60.4728889  45.0948858  64.6447992
  60.5709648  46.4030552  63.8897800  49.0831281  10.5392535  23.7789848
  48.7869073  11.4479668  23.8311794  49.2975809  10.4099305  22.8551223
   2.8001977   3.2495959  10.8712127   3.5362650   2.6417763  10.9419086
   2.5418855   3.4193261  11.7771366  42.3812295  45.8798153  13.1016376
  42.9975511  45.5250199  13.7423446  42.9335166  46.3257439  12.4594906
  29.3031742  10.6784089   3.1988027  29.2855503   9.7359259   3.0325201
  28.7166072  10.8009322   3.9452341  88.4004062  37.2443325  20.2165725
  87.5680464  37.5056393  20.6104400  88.9533012  38.0225594  20.2866390
  42.3248579  79.9466736  11.3816192  42.0619489  80.2425797  10.5100944
  41.9999076  80.6254418  11.9731643  41.5719463  16.9859774   2.6183536
  41.5041019  17.9042084   2.8800371  41.3844587  16.9899495   1.6797044
  57.3776723  12.3483927  30.7734897  56.8113901  12.9668934  31.2350300
  57.6420690  11.7190630  31.4445141   5.0760965  10.0686811  48.1966639
   5.0503759  11.0209345  48.1029940   6.0027056   9.8445009  48.1107903
  70.2355957  55.8376694  60.0357389  69.2868376  55.9206915  59.9398422
  70.5084658  56.6613579  60.4398632  52.7304841   9.9875529  24.1434601
  53.1514932  10.2837355  24.9504688  51.8829919   9.6448643  24.4272735
  38.9820576  72.2576094  58.5677290  39.4878244  71.4991379  58.8595390
  38.0745292  72.0342445  58.7744379  10.7902079  16.3269304  55.7018518
  10.1971560  16.6522287  56.3791227  10.9597855  17.0877909  55.1463747
  60.6315184  44.2611790  61.3346767  60.4184723  45.0423336  60.8241463
  60.4453373  44.5088243  62.2403479   5.7693251  46.8977165  71.0547447
   5.9315642  47.7396393  70.6292152   5.6900366  47.1106577  71.9845867
  63.1777763  60.9477091  60.2609587  63.1993914  61.6764021  59.6406555
  64.0971708  60.7129812  60.3868437  23.3386423  32.7331908  16.6033676
  23.6851980  33.4755976  16.1084297  23.0611421  32.1077044  15.9340503
  50.6144142  32.5158548  54.9628496  51.1453056  33.1531310  55.4406214
  51.2366486  32.0666313  54.3907833   8.3568741  13.5127051   2.0441654
   9.1844346  13.7917311   1.6523483   8.3968712  12.5564082   2.0327594
  20.6194068   4.1056521   6.4142730  20.8124019   3.1840451   6.5864017
  19.6829559   4.1214020   6.2166717  75.6339073  68.1472588  72.7047491
  75.9432173  68.9369297  72.2609282  75.8092451  67.4396324  72.0844650
  10.7037764  16.3807844  73.2899475  10.6963711  17.3367857  73.2425022
  11.1399727  16.1043524  72.4840021   9.2603208  50.9859593  33.8296154
   8.4682728  50.5048783  33.5899189   9.9246646  50.6751950  33.2145527
  34.3066835  82.6848507  72.4437618  33.8008142  82.6322174  73.2546616
  34.4922328  83.6178398  72.3373461  31.9217397  57.4991448  12.7632454
  32.5407030  57.7127297  13.4614494  31.2416173  58.1690819  12.8328827
  14.1371783  48.5800266  67.3943472  13.2271536  48.6393833  67.6851416
  14.5187815  49.4263697  67.6274014  47.8366137  51.0373163  62.8043318
  47.0587492  51.2029743  62.2716808  47.7522326  51.6380024  63.5447931
  19.1174153  85.8576227  38.9222646  18.7127951  86.4494537  39.5564961
  19.6458653  85.2621102  39.4536185  23.8136935  10.5947828  64.2795086
  24.5639133  10.4012764  64.8416090  23.6212277  11.5175033  64.4461727
   9.3891042  16.8627751  27.3791885   9.9940836  16.7742801  26.6427112
   9.5875925  16.1153972  27.9433346  12.2446501   2.7785674  66.6831923
  13.1129670   3.1785330  66.7309809  11.6400421   3.4947270  66.8776035
  87.5068971  39.9075775   6.0091331  86.6064474  40.2199753   5.9206417
  87.9785987  40.3299963   5.2912929  26.7449212   7.2678703  71.5776110
  26.0802484   7.1001929  70.9095335  27.5599933   6.9492674  71.1898184
  88.4131308  51.2518145  68.5795212  88.1206412  52.0108558  69.0840340
  89.3372316  51.1534382  68.8088465  39.2574525  43.5757971  60.5726194
  38.3834553  43.2801390  60.8274651  39.1139603  44.4368076  60.1798058
  16.1825970  38.4946562  42.8020287  15.3849057  38.3353830  42.2975016
  16.0005263  39.2971683  43.2909584  65.0907108  14.1325220  11.2672165
  64.8930522  14.9805482  11.6647270  66.0018870  14.2074426  10.9837082
   7.2884873  70.7015694  70.8121967   7.7902893  71.4646448  70.5255890
   7.6657847  69.9696899  70.3241062  44.1781187  10.9095442  47.8222704
  44.1611099  10.1001656  48.3330059  43.7595701  10.6783438  46.9930553
  90.2337332  82.6162613  58.6275482  90.2616758  81.6628856  58.7083340
  90.4693766  82.7863611  57.7155352  79.4472856  65.6243206  72.8953123
  79.3070824  65.8074451  71.9663095  78.6385221  65.9096814  73.3204031
  88.6441679  84.2870443  73.0242729  89.3102999  84.7268467  72.4959946
  88.4942241  83.4546123  72.5761557  63.2019040  77.5248559  18.8259437
  63.8498684  77.1320995  18.2410457  63.4146615  77.1725758  19.6901634
  70.1904127  51.4318850  10.3516891  69.8962494  51.7866161   9.5127227
  71.1389228  51.3458290  10.2559974  71.9418355  34.5947506   1.6095379
  71.7391416  35.5052843   1.3948848  72.8630563  34.6092250   1.8690994
  84.4946141  74.0575553  50.9015083  85.4033036  74.3292654  51.0306931
  84.5432134  73.1094612  50.7790804  59.4205257  53.9699014  13.1491020
  59.6035358  53.0391129  13.0211475  59.3859812  54.0787741  14.0994575
  20.9780482  81.5871171  58.3464956  21.5748528  80.8934415  58.0656576
  20.2343491  81.1224375  58.7301922  47.4455336  73.5636927  43.5209560
  47.0137290  74.3618203  43.2163715  46.8236903  73.1747163  44.1359663
  56.2955046  29.3530488  65.0551701  56.3879395  29.7814155  64.2041779
  56.5933657  28.4558082  64.9052811  23.1898499  24.1597700  59.5785379
  22.6870513  23.5990644  60.1693296  23.1421494  23.7180710  58.7306833
  57.6097250   2.6702264  69.3653345  57.2742987   3.0020779  68.5325098
  58.0823565   1.8712528  69.1318989  24.3657827  30.0512218  51.1405039
  23.8063478  30.3447676  51.8595982  24.7560549  30.8549976  50.7971907
  26.5654230  12.3419976  36.7681241  26.3068724  12.0408440  35.8970952
  25.7658863  12.7145469  37.1398520  40.5394459  18.5416079  60.3185892
  39.7161889  18.0580127  60.3865099  40.4170942  19.3035150  60.8849478
  50.1177835  42.9940414  74.4114208  50.1861382  43.0388784  73.4577179
  50.8233309  43.5576487  74.7288752  54.4266960  74.5890006  17.0095661
  55.0144407  74.0367111  16.4940384  54.7567078  74.5191463  17.9053524
  86.0638375  82.7339135  56.0958481  86.6110296  82.9469524  55.3399181
  86.0114999  83.5510890  56.5915442  80.6762226  64.9376060  35.5299163
  80.2012331  64.3637706  34.9288082  81.5259213  65.0731088  35.1105332
  62.6083251  51.5934213  13.9342144  62.6938435  50.9944530  14.6759346
  63.0868122  51.1653408  13.2242611  67.5119828   5.2924759   5.0164678
  67.3393338   4.6179278   4.3596533  66.8692946   5.9772141   4.8312261
  45.8044365  84.9537959  69.7476625  45.4830006  84.1015811  70.0420094
  45.1177386  85.5699226  70.0027418  57.3783680  65.7717784   0.2016380
  58.1176278  65.9337576   0.7877186  57.5317236  64.8906597  -0.1394532
  31.8535605  54.4725235  21.6328838  31.5534794  55.3783997  21.5582302
  31.6505226  54.2265578  22.5353840  81.2813568  24.0492797  61.2867308
  81.3254166  23.8667321  62.2253323  80.7915497  23.3121443  60.9221029
  62.2439623  23.4813309  59.0416288  61.3064098  23.6040306  58.8927460
  62.3473930  23.5544157  59.9904156   3.2956585  12.5239515  38.2151341
   3.7787479  13.0241048  38.8729358   3.9722350  12.1761584  37.6341724
   8.7097169   4.6585495   7.9474666   8.4706260   4.2825062   7.1003177
   9.6648838   4.6019728   7.9736259  18.6390305   9.7826409  65.7999325
  18.0537164   9.6909231  65.0481176  18.8431072   8.8831127  66.0557318
  45.7133198  17.5268734  43.4381294  44.9340200  17.9111493  43.8396931
  46.3444424  18.2457328  43.4040928  37.0762515   5.5569756  72.6306534
  37.3075485   6.2162936  73.2848978  36.1274052   5.4609185  72.7124834
  35.7721141  70.6735071  17.5693348  35.2845910  71.1858233  16.9242885
  36.5452060  71.2040742  17.7618530  37.6060190  64.8444160  29.4562271
  37.2620180  64.9818524  28.5736110  37.4123051  65.6599196  29.9184635
  49.0605116   6.4869207  73.1969166  48.1365156   6.6700959  73.0268955
  49.0850306   5.5531788  73.4060955   6.9722535   3.2743914  19.2859390
   6.3972212   2.9520781  18.5919025   7.8529097   3.2102807  18.9163807
  11.7247486   1.4150268  56.2851906  12.5697803   1.7094593  56.6249895
  11.8232405   0.4680803  56.1860800  85.1118727  60.9901715  41.2045622
  85.3268261  61.7597533  41.7316008  84.3294425  60.6267954  41.6192818
  34.8391747  41.4615726  70.1592445  34.6396518  42.3675537  70.3950787
  33.9827132  41.0489416  70.0476933  51.5386534   5.8257431  70.5259848
  51.6467762   4.9386436  70.8689070  51.4464998   5.7074970  69.5805979
   5.6974724  75.0397564  66.7071915   4.9181489  74.5045305  66.5574503
   6.4198497  74.5111311  66.3681412  42.6035881  12.4847758  49.4991112
  43.1507826  11.8652916  49.0163565  42.5331116  13.2437766  48.9201593
  24.5517755  37.8843212  56.0672712  24.9549174  38.7440348  56.1881161
  24.0945554  37.7162337  56.8912411  20.5964541  17.7518821  72.7060747
  20.8518910  18.5186672  73.2189369  20.7356405  18.0150032  71.7963362
  72.8035041  41.4967915   2.7803400  71.9298908  41.1204622   2.6735189
  73.0114099  41.3609622   3.7047603  55.8538771  10.2229977  28.9500070
  56.2442207  10.8210957  29.5872974  54.9553299  10.0999403  29.2561173
  21.4190364   4.7737256  59.2794323  20.6081700   4.4366780  58.8984776
  21.4160967   5.7060450  59.0626335  74.8502350   2.8444144  72.7266407
  74.5869064   2.7391464  71.8124151  75.3689575   3.6488307  72.7353764
   2.6002840  35.1307131  23.9080381   2.3778180  34.2195059  24.0989304
   3.0258850  35.0989176  23.0512524  82.7500554  29.4349249   9.3110302
  82.5176355  30.0057944   8.5786846  81.9743654  28.8905545   9.4459083
  66.9847366  39.0412926   1.7967584  66.2974235  38.8336395   2.4297741
  66.5356132  39.5305177   1.1074236  40.7116079  32.8781033  65.5341339
  40.2758551  32.0447111  65.3557920  41.5396833  32.6320028  65.9463930
  41.8162870   6.0694993  59.5361996  42.7246618   5.8378261  59.3427658
  41.3748980   5.2285999  59.6557617  51.1643791  19.9285591  43.9244699
  51.1079264  20.2754855  43.0341387  51.5275431  20.6489325  44.4396448
   8.8566761  17.9615148   2.0840147   8.2475452  18.2193240   2.7759197
   9.6332293  17.6533326   2.5511530  69.8023176  15.6690764  62.2938967
  70.0090647  15.1405430  61.5230894  70.6140947  15.6809115  62.8009510
  44.2376992  66.4560922   8.1760051  44.5613190  67.2201141   8.6532619
  44.8751673  66.3243898   7.4742057  30.7515240  19.9992275  67.6205587
  30.5521369  19.1448331  68.0032969  31.4390945  20.3583312  68.1813812
   8.5474997  36.4658656  34.8748233   8.3091812  35.9514841  34.1035679
   8.1731825  37.3313799  34.7105053  53.7664887  85.3380354  23.4996917
  53.8620802  85.7804736  22.6562812  54.6168777  85.4473933  23.9252689
  72.9589054  73.8434084   4.9290540  72.7295133  73.7438663   4.0050914
  73.8405296  74.2160281   4.9181535  45.5289793  13.3581078  68.0927372
  45.7021666  14.1509593  68.6003017  44.8064899  13.5981870  67.5125599
  58.7915656  61.2655767   7.5996521  58.1529757  61.3970169   8.3004787
  58.2712981  60.9636172   6.8550899  46.3901957  51.6976996   8.2726219
  45.7515725  51.1025181   7.8800037  46.6643926  51.2578376   9.0773418
  76.4057132  64.4194587   2.5981357  77.1546813  63.9822563   2.1930006
  75.6465885  64.0876921   2.1186617  85.3950892   9.6692884  59.7936487
  86.1135033  10.1614141  59.3962479  85.6608198   8.7529796  59.7162104
  27.9286003  26.9635034  53.6722755  28.8105202  27.1932054  53.3795500
  28.0368161  26.1272693  54.1253042   7.5771933  73.4437140   8.8709858
   6.7442684  73.6833056   8.4647014   7.4785738  72.5174292   9.0912178
  54.6939441  58.9483078  17.6803520  54.4451925  59.8049529  17.3332050
  55.6218120  59.0381726  17.8976467  23.8770843  10.5609822  54.8240709
  23.9772701  10.7801056  55.7504511  24.2686081  11.3005388  54.3593168
  64.7701260  67.8697236  10.2354934  65.3712007  67.7281006  10.9668567
  65.2822396  67.6471671   9.4580391  54.0878630   4.6957669  58.2370520
  53.1546593   4.7362688  58.4461451  54.5061493   4.4357339  59.0578127
   8.7118654  54.3527981  16.1206367   9.6333246  54.3396171  15.8618572
   8.6265640  53.6277731  16.7397430  86.3077613  48.9823445   7.1421554
  86.9482442  48.7859001   6.4584663  86.5938827  48.4641858   7.8944042
  33.7545943  51.6931023  13.9344242  33.3558240  52.4217477  14.4101265
  34.6934390  51.7870470  14.0956047  18.2837972  28.4666344  25.2765777
  17.6822587  28.6179312  26.0056141  17.7297827  28.1209382  24.5767238
  43.9966679  10.2521980  42.5669909  43.8124561  11.0509658  42.0727587
  44.5973730  10.5312800  43.2580042  86.1280843  57.5481912  32.9991558
  86.7542144  56.9986435  32.5277927  86.6463586  57.9658385  33.6870506
  67.1239110  78.4971531  14.0769890  67.6494261  77.7031859  14.1754081
  66.7861339  78.4514626  13.1825283  39.7329140  11.6572666  62.8467274
  40.1041317  12.3973441  63.3270550  40.4860497  11.1037731  62.6401854
  54.6808025  74.3177827   1.0428407  55.2659055  74.9408825   1.4736917
  54.6541640  73.5657795   1.6344621  27.4551418  40.5476852  37.7030113
  28.0452831  40.7829309  36.9870308  27.3278975  41.3639288  38.1865242
  86.3635894  82.2248920  28.1204822  87.1272775  82.7358039  27.8521946
  85.8311387  82.8380974  28.6271408  22.1553016  21.0230088  49.7408009
  21.8276644  20.7314396  48.8899946  21.5356565  21.6980481  50.0175524
  36.0436829  70.5464943  32.1557071  36.3684853  70.6117209  33.0537536
  35.6899729  69.6592720  32.0927932  71.9348117  78.9250024  31.6724994
  71.0193845  78.7464388  31.4572456  72.0816156  78.4620245  32.4973228
  87.7090999  59.9661990   2.5538089  86.9369003  60.4433413   2.2500398
  87.4991199  59.7192737   3.4544542  51.8651339  78.0224498   9.2953136
  51.1689207  77.6534518   8.7518432  52.5370666  77.3411449   9.3189647
  77.8644037  24.6126723  35.2037072  77.3249769  25.0736642  34.5612597
  78.6262608  25.1788568  35.3271484  65.6740093  31.2766099  63.4717178
  65.6835032  31.0119534  64.3915558  64.7758913  31.1120796  63.1844091
  80.6097194  45.8999013  46.6558864  81.5160486  45.5921926  46.6450432
  80.5640432  46.4837130  47.4130657  32.3038224  79.3126536  53.8622475
  32.5727633  80.2311338  53.8450480  31.7243603  79.2469347  54.6212864
  89.4855663  32.8302654  15.2475193  89.3553564  33.7397476  15.5160740
  88.7420865  32.6407321  14.6752098  30.0029826  15.3773975  66.0928535
  30.4083538  14.6022236  65.7042503  29.3947434  15.6906700  65.4234219
  19.1594112  19.9730527  64.3421078  18.9663064  19.0355527  64.3360519
  19.3513632  20.1721430  65.2584839  42.2668024  82.0764931  31.9663742
  42.3556765  82.8531822  31.4140251  42.5575491  81.3531073  31.4110305
  65.2908656  35.1955976   1.8223646  64.4979068  34.8280754   1.4320066
  65.8598420  35.3843828   1.0761383  66.0134002  72.7243479  15.9940365
  66.9414302  72.4957593  16.0463741  65.9850093  73.4766873  15.4029205
  47.3871613  23.4965539  64.0796089  48.2007694  23.9947534  64.1575480
  46.8140745  23.8672996  64.7506857  11.9927609  14.5236576  41.5734625
  11.7145693  15.3998208  41.8402576  12.4149740  14.1591799  42.3513603
  70.4894086  68.2518609   0.9664848  70.6679412  68.6621102   1.8126800
  71.0529729  68.7193759   0.3499916  21.8964863  19.9516737  52.5795698
  22.8245234  19.7820842  52.4176455  21.4509416  19.1645682  52.2662258
  89.3576452  74.6964820  17.6675346  89.0717956  75.4061230  18.2428005
  88.5463735  74.3400725  17.3055389  38.8026333  21.6153026  42.3619795
  38.6543512  22.5400019  42.1640587  39.0348697  21.2243319  41.5196991
  73.3900520  76.5310892  20.7990291  72.6655694  76.7093166  21.3986900
  74.0638229  76.1318739  21.3493850  57.0003721  79.2321976  38.2722595
  56.1926743  78.7251504  38.1900432  57.6807376  78.6574300  37.9215839
  87.9753845   5.3229649   9.6636608  88.3734839   5.2144988   8.7999561
  88.1760328   6.2264092   9.9081257  59.8112818  81.7914542  28.4037426
  58.9732119  82.1758326  28.6608913  59.7375080  81.6671785  27.4575164
  33.5169101  35.6149626  55.7442904  33.6081433  34.9524117  55.0595045
  33.2705903  36.4120626  55.2750492  30.6976771  31.5005851  63.6655521
  30.8797359  32.0926619  64.3952990  30.6056404  30.6393790  64.0730858
  51.9694805  14.5321310  37.6971674  51.4838457  13.7279761  37.8808141
  52.2108698  14.8685384  38.5601807  70.0093031  24.1877913  58.1701422
  69.2458105  24.4845676  57.6749277  69.7046471  23.4091902  58.6361885
  32.4816060  31.4486289  71.4201355  32.1615124  30.7223773  70.8850336
  31.8387222  31.5284514  72.1248055   8.3858510  76.4439591  29.6536567
   7.9692670  76.7480191  28.8472774   8.9949223  75.7635554  29.3667438
  55.0310418  21.4204820  16.6747596  54.5522472  20.8632716  16.0611561
  55.6535670  21.8994459  16.1276844  29.6021104  15.9566748  52.2108221
  29.7772551  15.2630830  51.5748310  28.7321496  16.2810147  51.9780064
  80.4661628  69.3477996  12.1631744  81.2593910  68.9639481  12.5369194
  79.9149581  69.5436915  12.9208210  21.6902442  72.7212358  66.5786886
  21.9684095  72.2006000  67.3322058  21.4541049  73.5716475  66.9491863
  58.7770176  25.2967548  69.8873138  58.0053377  24.8982024  70.2896738
  58.5082912  26.1942720  69.6911526  15.8947957  18.4090054  54.1925287
  15.6142867  18.3542645  53.2789946  15.1210105  18.7199056  54.6624565
   8.6327652  81.3272882  55.3360415   8.2320884  81.4018295  54.4699383
   8.1120351  80.6608422  55.7842875  67.6855441  42.3761646  24.9487617
  67.5843212  42.1100736  25.8626487  67.5190278  41.5781437  24.4471004
  90.4575081  76.7021919  65.1821566  90.7464833  77.1601428  64.3928480
  91.2614198  76.3455982  65.5600452  40.7288551   1.7750087  45.0930691
  39.8752117   1.3473450  45.1611090  41.2300253   1.4281429  45.8311367
  17.2489195  53.9304455   5.0051048  17.9019623  54.4611999   4.5489671
  17.2866087  53.0784973   4.5703724  31.0149431  21.7544341  45.6040049
  31.7319202  21.1446595  45.4297876  30.5553126  21.3758516  46.3534355
  74.5519325  40.4656165  12.6011207  74.5071861  41.2066959  11.9969490
  74.6096393  39.6970110  12.0335415  61.2910553  66.7965253  10.7204368
  60.9080955  66.9525059  11.5837124  61.9418904  66.1102374  10.8675888
  33.5826540   3.6686245  40.5858040  32.7776217   4.0583637  40.2448320
  33.8405132   3.0307806  39.9203014  16.0146236  20.5147672  66.2057066
  15.6412446  21.2500501  66.6916895  16.8988407  20.4182291  66.5593624
  32.9749465  28.9093637  67.5425625  33.0759668  28.1664824  66.9474506
  33.8181472  28.9733529  67.9910612  75.8419486  58.1300672   1.1345222
  75.5575773  58.8110157   0.5248716  75.9187194  57.3428269   0.5954626
  89.3875761  70.7232893  67.5595999  88.5695858  70.3552474  67.8937674
  90.0273700  70.5516101  68.2505560  32.8995514  17.9510522  37.9526377
  33.4141946  17.7444708  38.7328291  32.0086932  18.0763364  38.2796025
  10.0463610  56.3716920   0.6458452  10.0095539  56.5201684  -0.2990506
  10.4363995  57.1713360   0.9989336   0.9767513  70.4245623  16.4198520
   0.7257776  71.1761411  15.8828476   1.2526922  69.7603758  15.7882335
   7.4817497  25.3642058  68.4311152   6.7314053  25.0538826  68.9379787
   7.0982510  25.7235503  67.6310921  11.7238653  38.6086369  72.8958893
  11.0529506  38.6642051  72.2154379  11.3573956  38.0082726  73.5451174
  52.8996420  17.3784041  73.8062525  52.3839998  17.1306157  74.5736790
  53.2075119  16.5467978  73.4458685   9.1651952  28.2315445  72.5910616
   9.4664639  28.8468504  71.9225788   8.4818953  27.7212644  72.1563816
  13.1938457  33.6484551  41.3773966  12.5602925  33.1085014  41.8499327
  12.7045596  34.4344211  41.1343193  57.5201961  84.3817862  31.8786075
  57.6610705  83.8296660  31.1094883  56.7762348  83.9809664  32.3281601
  73.2634517  34.2155214   5.7568767  73.9304706  33.9908006   5.1081779
  73.0106231  33.3760770   6.1411216   3.7151100   8.1310351  41.9030597
   3.6071636   7.3072703  42.3784473   3.2419111   7.9974158  41.0818031
  62.2033569  39.2304136   9.9257019  61.7918321  39.7072624  10.6464603
  61.5496870  39.2422753   9.2265537  86.3870830  73.1306864  66.5995026
  86.9809027  73.6320950  67.1582460  86.9300909  72.8520895  65.8621025
  25.1622796  29.2311335  67.5530863  24.4675183  29.8868275  67.6131392
  24.7047257  28.4152675  67.3500204  39.3360591   2.2982381  47.8674603
  39.1219902   1.6910329  47.1591473  38.5895348   2.8962246  47.9041243
  85.6908199  83.4906300  13.2012680  85.8833286  82.7538856  12.6212909
  85.4695054  84.2097720  12.6095894  38.4969592  41.8122625  69.0975571
  39.1403294  42.4040890  68.7076235  38.0461454  41.4217091  68.3489132
  27.1604800   3.1665158  53.1568909  26.4386606   3.7940499  53.1193638
  27.9484677   3.7020376  53.0645561  47.8066206  14.7423184  38.9162159
  47.8915501  13.9835846  39.4935727  48.2675219  15.4449153  39.3746495
  19.5051937  82.7815851   7.5189808  20.3317909  83.1470116   7.8343036
  18.8366394  83.3821877   7.8484371  29.1714501   8.1761050  73.2481623
  28.7080097   7.3387116  73.2330465  29.2690182   8.3790910  74.1784906
  56.6235920  53.8948794   7.0193889  57.4176618  53.3674189   7.1058300
  56.0271617  53.5396167   7.6783970  88.6198468  80.9993033  45.2621269
  87.7174683  81.2701599  45.0930691  89.1148539  81.8181632  45.2879763
  83.1351825  44.2073068  15.0572994  83.5151597  43.7889974  14.2847278
  82.4124118  43.6327254  15.3096798  79.7569343  60.3489514  32.8541687
  80.5130168  59.9260231  33.2612350  79.8055097  60.0916978  31.9334629
  53.2514283  77.4355563  33.9365986  52.6612493  77.2796639  33.1992939
  54.1003796  77.1106323  33.6366966  43.6316919  13.4196639  40.8236885
  44.1099977  13.6945689  41.6059160  43.9504194  13.9994490  40.1319551
  71.9746494  35.0448918  60.9846687  71.2183285  35.1491141  61.5620279
  71.6103888  35.0969338  60.1010180  63.0973193  30.0399586   6.3161686
  63.1219455  29.9852785   7.2714927  62.7913591  29.1777476   6.0347202
  20.6066513   1.6692038  69.8499489  19.7785509   2.1417750  69.7653294
  21.1113095   1.9304797  69.0796947  24.9980950  25.2651358  55.4409456
  25.6640792  24.8663712  56.0010242  24.7256422  24.5601177  54.8536205
  45.4190883  83.6357411  29.5428970  45.4831036  84.0992649  28.7078693
  46.1896273  83.0681523  29.5614555  74.2604511   3.0057986   4.1743829
  73.5168534   3.4665902   4.5629289  73.9851039   2.0895607   4.1439750
  80.0006267  79.4450363  15.8267238  79.2282745  79.2209609  16.3458469
  80.4725810  80.0825914  16.3624599  63.9086076  66.7425402  12.6529052
  63.6490365  67.2219094  11.8661049  63.7773272  65.8217843  12.4266174
  87.4946973  25.1224613  70.0844383  87.6700375  25.8782053  70.6450939
  88.3255766  24.9567962  69.6389866  21.6892890  74.7636295  68.6112309
  22.5852183  74.5327164  68.8566208  21.1421898  74.1370071  69.0847874
  51.0722733  30.2758574  56.3277674  50.9165478  31.0429883  55.7768679
  50.8726835  29.5300984  55.7618666  63.1246683  72.4937948  11.7431476
  63.3892199  73.1906732  12.3436573  63.8459870  72.4304422  11.1171177
  23.2540846  10.1821864  70.1579714  22.9096174   9.7485125  69.3772650
  24.0589452  10.6065691  69.8607683   7.3032335  49.2400647  50.3269291
   7.8796772  49.1164041  51.0810184   7.7849892  49.8348857  49.7521830
  61.1714407  84.7507676   7.5177601  61.8178722  84.3148049   6.9625213
  61.5305826  85.6263503   7.6612976   4.2639332  72.3144420  21.4264038
   3.9356737  73.0990036  20.9871509   3.4845572  71.7786320  21.5737465
  29.2530799  24.3871999  30.3573775  28.7525296  24.0077806  31.0796809
  28.7594008  24.1489172  29.5726895  27.6754238  37.0697815   1.5345409
  27.5751974  37.8201420   0.9487560  27.4782468  37.4170334   2.4044635
  20.9287815  62.5323184   1.1007383  20.8650475  63.4873732   1.0945013
  20.5181866  62.2702487   1.9247272  63.8231630  71.8443097  58.5180807
  64.2292480  72.6886309  58.7141657  63.0248299  71.8341197  59.0460873
  20.7597270  60.0865503  25.8250835  21.2335369  59.3168314  26.1401584
  20.6434562  59.9292811  24.8880794  89.1380327   4.8331244  14.4203403
  89.0862792   4.2577584  15.1835659  88.3375423   4.6507723  13.9282062
  14.5779836  19.6920514  60.1106119  14.0689576  19.8595405  60.9037542
  15.2335405  20.3893566  60.0950336  32.5418735  29.5006394   1.0678626
  31.8887734  29.7138286   0.4013462  32.5031400  30.2323055   1.6838126
  28.1945826  71.6237195  29.5095470  28.1526535  72.5546630  29.7282055
  27.4391779  71.2390169  29.9540641  22.4272799  75.8831930  55.9179974
  22.0710349  75.1047802  55.4897499  21.6702247  76.2950468  56.3344955
  69.4943523   9.6616268  61.2201548  68.7983513   9.0929109  61.5493584
  70.2974653   9.1574472  61.3506889  49.4237229  72.3665698  45.2881839
  48.8496789  72.8812679  44.7209099  49.0910431  72.5239714  46.1718013
   2.5103216  73.8762673  17.8482273   2.7855663  73.3353814  17.1080139
   2.7751141  74.7640975  17.6076534  60.1879069  37.9061194  16.5143612
  60.6787464  37.1404280  16.2159946  60.6040951  38.1501814  17.3410728
  67.0855090  37.4422725  25.2081421  67.9253527  37.7783652  25.5210807
  66.5732809  37.2990902  26.0039737  74.2317724  14.9799299  55.6841183
  73.9630079  14.1199946  55.3608418  73.8844156  15.0201249  56.5751648
  11.4324168  48.7208606  60.1977396  10.5462340  48.7889243  59.8423719
  11.6838196  49.6244336  60.3890133  10.5947045  62.7163769  56.7906618
  11.0937289  62.1613551  57.3899603  10.0085667  63.2160808  57.3589706
   3.4034138  69.3571003   5.0453355   3.1398993  70.2772387   5.0570228
   4.2899828  69.3572577   5.4062059   4.6212894   6.3472790  18.9408040
   4.5012361   6.8184763  19.7652996   4.4931611   7.0120794  18.2641530
  62.2715231  54.0545317  23.0194976  63.0563423  54.4237872  23.4243992
  61.6636106  54.7914692  22.9595401  39.0547991  31.3049245  74.0555525
  38.6992264  32.1240735  73.7108898  39.4573045  30.8808732  73.2976627
  85.0158257  72.8034140  57.2210455  84.6651502  71.9823659  56.8758774
  85.9626193  72.6658047  57.2506762  42.7587032  15.7241201  51.3582277
  42.9794025  16.0640180  52.2254038  43.3914948  16.1373651  50.7708311
  41.9718313  14.6011341  69.3526697  41.3862705  15.2257216  68.9246082
  42.3256302  14.0745342  68.6359072  14.1512375  32.3821958   8.0348900
  14.6113186  33.1242778   8.4271553  13.5836153  32.7755340   7.3720768
  29.9131703   4.3877777  67.0499706  30.4794192   4.1765392  66.3076973
  29.0759468   4.6266282  66.6521788  23.0605200  70.4205776  23.9889765
  23.3054617  71.3456441  24.0110922  23.5778073  70.0529099  23.2724094
  69.1910478  56.1806079   1.6594150  69.5704075  56.9613691   1.2560203
  68.2882210  56.4285406   1.8585756  33.0635142  19.7115076  52.1511936
  32.4483490  20.3291345  51.7558002  32.5075626  19.0653646  52.5866795
  25.4658699  37.4819899  64.5571518  24.6510673  37.8084183  64.1753435
  26.1325598  37.6716685  63.8970137  79.3218501  77.3181809  42.8166771
  78.6748917  78.0059303  42.9737616  80.1621277  77.7286310  43.0208683
  58.4817219  28.7261224  60.5256224  58.8761806  27.8623867  60.6464291
  57.5744486  28.5430717  60.2815342  43.3054592   1.8222601  31.4267280
  42.8169586   2.6126082  31.1966350  42.6511289   1.1237605  31.4130237
  23.4565239  61.8835386  -0.1066038  22.5759487  61.8019744   0.2596786
  24.0391712  61.6518434   0.6166341  24.2861032  13.7167156  62.8210592
  24.8433590  14.0117097  62.1008682  24.7290301  14.0290451  63.6100435
  80.9757301  46.4370935  11.8476894  80.1793882  46.8574812  12.1722534
  81.6125175  46.5536173  12.5527790  23.1867218  24.4361281  63.6094856
  22.2951818  24.5512915  63.2806635  23.6940432  25.1187277  63.1702614
  68.1496906  56.0791874  67.5210285  67.6004982  56.0774469  66.7370558
  68.9639616  55.6591415  67.2439766  73.0471441  48.4554329  19.7518566
  72.2958347  48.0615576  19.3084266  72.6893302  48.7978186  20.5709961
  12.5893621  36.1552199   6.3617256  12.5306253  35.4524597   7.0089653
  13.0695515  35.7674774   5.6300857  72.4341815   7.9852850  11.5922859
  72.7847688   7.5462038  10.8173492  71.8241506   7.3522074  11.9708469
  88.2922573  65.6110574  69.3370295  87.5454302  65.2675725  68.8466215
  88.2671232  66.5552033  69.1815090   4.8272941   7.9159361  56.4432287
   4.7644284   7.0333409  56.8083382   4.9686539   7.7781636  55.5066013
  22.6101044  70.8926118  32.3057127  23.0293015  71.7492832  32.3870754
  22.1758822  70.9184540  31.4530611  61.2288857  36.2701249  65.7208109
  60.6816816  36.7215800  65.0781679  61.8797302  36.9218993  65.9812450
  65.9729195  16.0748053  57.8819418  65.0637579  16.3602364  57.7914572
  66.1401510  15.5550241  57.0957565   4.4173912  84.1163685  67.0711946
   3.9936164  83.8098399  67.8728724   4.8349432  83.3356328  66.7074203
  38.6587286  40.8229017  63.0995655  37.9266214  41.4389658  63.0728674
  39.2680502  41.1461020  62.4358606  22.9023838  34.8936510  62.9999447
  23.7140846  34.7725821  63.4926081  22.9534173  35.7911253  62.6710606
  19.5890927  30.0949407  62.8035641  20.1199722  30.3174472  62.0387793
  18.8486755  29.6044016  62.4466515  35.3822783  76.8108190  52.8598976
  35.7345465  76.1234612  52.2944975  35.6022910  76.5272064  53.7472486
  53.5846754  31.4681240   5.5102089  53.5196587  31.1789497   6.4203670
  54.5052239  31.3376399   5.2826193  52.2838065  53.7236901   3.3498218
  52.5860282  52.8504106   3.1002739  51.6393753  53.5660215   4.0398100
  34.3054582  21.9048197  14.4815948  33.9840318  21.0174258  14.6411159
  34.7090961  21.8611510  13.6147621  65.6842443  69.6562894   3.0591085
  65.3343316  69.3614348   3.8998535  66.0670635  68.8699897   2.6699855
  62.9126641  50.8226468   6.0028865  61.9963738  50.6071742   5.8290603
  62.8895708  51.7227080   6.3278225  33.1059504  19.9116051  73.0220032
  32.4113512  20.4259419  72.6106358  32.7724433  19.7157621  73.8975859
   7.8931550  84.9952340  68.0239153   7.3396853  85.4806376  68.6357069
   7.8790978  85.5176497  67.2219706  90.4358123   7.4538374  69.0227413
  89.9336796   6.6637391  68.8231421  90.6155472   7.3927701  69.9609280
   5.4539089  46.0362687  13.3121326   5.1904326  45.3566449  12.6917102
   6.2172823  46.4476450  12.9068401  30.0949556  56.7496522   6.4613941
  30.5977442  57.0944532   5.7234600  30.7497866  56.3403567   7.0269897
  88.3038441   6.2373054  27.5580955  88.0762202   7.1282506  27.2923207
  89.2137877   6.1298513  27.2811675   3.1725028  35.9062076  73.6752272
   3.3952150  35.0926828  73.2226706   2.9752102  35.6352401  74.5718241
  36.2093639  13.8728452  57.5390530  36.9567204  14.4211674  57.7778673
  35.7691169  14.3585622  56.8415642   7.9707026  77.8026709  14.4758918
   8.0585128  78.7006220  14.7955825   8.8528001  77.5619015  14.1927555
  29.4351530  24.1189575  58.2104683  29.3904543  24.3185163  57.2753668
  29.6456885  24.9560452  58.6242199  42.8290701  21.1501861  49.9574471
  42.5796127  20.5038238  49.2969751  42.2986746  20.9277439  50.7225800
  87.9762622  66.6679605   0.3397062  87.4985095  66.1218723   0.9640243
  87.9249927  66.1877879  -0.4867527  84.1485378  52.0375951  14.5316150
  84.2606040  52.2039422  15.4675605  83.4368631  52.6209976  14.2681911
  53.0680295  76.3788398  26.1187484  53.2250949  75.4439863  25.9860447
  52.2354766  76.5468605  25.6773212  15.2117423  67.4259103  56.6582489
  15.9232215  67.8278280  57.1567297  15.6531027  66.9242800  55.9728289
  53.6784744  25.0192404  71.9499254  53.1793976  25.6452942  72.4745321
  53.9543962  25.5175924  71.1806774   7.2402394  22.2175288  34.1682291
   7.0966262  21.9360733  33.2646871   7.6318580  21.4564753  34.5967889
  33.7098742   3.3930504  70.5566168  33.1999946   2.6386422  70.2614498
  34.1934991   3.6739996  69.7798252  62.4347782   2.7901742  44.5969725
  62.2533226   1.8526398  44.5311308  62.6077175   3.0644837  43.6963701
  30.5643797  10.4484439  65.5117178  30.2067733   9.9265766  64.7933865
  30.6364202   9.8335379  66.2417412  47.2572240  71.6268142   8.9567115
  47.5052782  72.0868786   8.1548145  47.8648099  70.8888968   9.0071991
  30.5790377  13.7066448  68.2370043  30.5248809  14.3179452  67.5024223
  31.1855912  13.0283582  67.9399300  72.0910556  59.2020441  42.9484272
  71.5250094  58.4436942  43.0923939  72.7838762  59.1114260  43.6026621
  32.1069860  -0.1319006  50.4315758  32.0436668   0.8164007  50.5453587
  31.5870595  -0.3144651  49.6489000  76.5356023  84.6409884  73.2134151
  77.3592956  84.9925950  73.5512543  76.0103280  84.4686664  73.9948416
  67.9200527  82.0658167  10.4579189  67.2546359  81.3803132  10.3984096
  67.4240133  82.8840383  10.4316833  70.5384588   9.9337751  66.5669775
  70.0822496  10.7551897  66.7496777  70.7118320   9.5588952  67.4304771
  13.7058714  63.1640101  69.4402504  13.4148387  63.3913542  70.3233433
  14.3677453  63.8225175  69.2292404  37.0514131  16.4536452  40.7049751
  37.4183774  15.6575203  40.3205872  36.5567541  16.8578064  39.9920964
  90.8786290  31.8623955  11.5857914  91.0117429  30.9556992  11.8622139
  90.8189123  31.8155844  10.6316021  47.1384287  32.1798587  49.5534611
  47.5905132  31.6374612  50.1997280  46.5272522  32.7066755  50.0684023
  55.9564897  53.0935617  14.5816734  55.1423904  52.5901016  14.5798423
  56.2806150  53.0215546  15.4794433  13.3838512   3.2764132  30.9903553
  12.5389577   2.9406292  30.6909588  13.1673957   4.0756686  31.4705398
  13.4407341  30.0268126  43.6896944  12.8974533  30.5636024  43.1126928
  14.1568935  30.6055903  43.9511633  36.0522223  32.6648355  67.2209644
  35.3091335  32.7766299  67.8138781  36.7258716  32.2468758  67.7573776
  25.8652401   8.5258955  48.8779497  25.3816986   8.3019406  49.6730995
  26.7555308   8.7038863  49.1811514  23.7561274  40.2241516  63.6540079
  24.3878460  40.5710030  64.2839766  22.9687858  40.7514286  63.7893057
  84.1808823  18.0483317  55.5906773  83.9656351  17.1179175  55.5256367
  85.0670365  18.1146002  55.2349091  38.1336880  16.8388629  71.7459726
  38.9047217  16.3750219  72.0724487  37.7666140  17.2672403  72.5192642
  21.9727375  27.5713284  16.4051368  22.3625518  28.4378989  16.2896660
  22.5470211  26.9830973  15.9148147  22.9496937  48.7002762  10.9596851
  22.4928837  47.9586812  11.3566616  23.5538654  48.3018949  10.3331783
  42.2322989  27.4140286  71.2790203  42.6761866  26.6842508  71.7110205
  41.3009596  27.2480965  71.4249802   6.0182883  14.6635134   1.2005451
   6.5087010  15.3662188   0.7740143   6.6807462  14.0086443   1.4208343
   8.8944185   9.6097261  39.7486258   8.0419719  10.0437725  39.7828412
   8.9556879   9.1364539  40.5783796  63.2788464  80.7290085   4.4393947
  64.1297027  80.3061040   4.5552709  62.6414057  80.0391444   4.6237590
  67.0330807  70.1000412   6.6107586  67.5383040  69.3480047   6.9196537
  66.4006325  69.7276267   5.9963062  76.6623374  76.7061218   2.3380640
  77.0862361  77.0284303   1.5426614  77.0967599  77.1775897   3.0488613
  16.1518220  78.8728757  60.7723475  16.3965300  79.1350592  59.8848724
  15.8360318  77.9741944  60.6781054  25.1879382  45.9653282  56.8270826
  24.5415807  45.6516314  57.4595785  25.2022457  45.2930832  56.1458254
  42.4766256   4.5032389   2.9946449  42.0500375   5.1842148   3.5147693
  43.3488132   4.8526366   2.8117588  83.9777470  30.3472400  63.2145548
  83.8800716  30.7887101  62.3708725  83.4762192  30.8861470  63.8263416
  11.0634816   2.5731546  70.5684614  11.7766666   3.0048925  70.0981426
  10.3601646   3.2222268  70.5852461  72.6881095  37.7925547   7.9075840
  72.8207466  37.4265577   8.7820461  72.3068973  38.6563837   8.0647781
   8.8551356  14.5549138   8.8129738   9.6500875  14.6130831   8.2829693
   8.5996391  15.4652293   8.9622333  75.6215688  63.8168176  12.9168441
  74.9749633  63.2656749  12.4759605  75.5094024  64.6810659  12.5209549
  60.0067186  22.9928088  69.6526766  60.8034897  23.1017661  70.1718235
  59.3997574  23.6431193  70.0061274   5.5436115  63.4196289   3.4234932
   4.9646025  64.1744908   3.3178260   6.0271387  63.3713611   2.5988128
  87.8701591  17.5389385  36.6770411  86.9629192  17.2611034  36.8033290
  87.8078651  18.3134365  36.1180210  23.6940556  70.4449686  10.8513382
  24.0065937  69.6051081  10.5149009  22.8280144  70.2518424  11.2103679
  81.1566373  52.5153168  11.4651802  80.6117603  52.7440014  10.7121589
  82.0544549  52.5801702  11.1396816  65.4093238  72.5242742  10.2168873
  64.6976849  72.5525268   9.5773533  66.1879465  72.3177846   9.6998336
  13.1257345  22.2191031  19.7629478  12.2293664  22.1906788  20.0975254
  13.2417251  21.3800175  19.3171814  73.1318521  36.7809272  72.0375299
  73.9862680  36.9217563  71.6296387  72.9985905  35.8340716  71.9935417
   8.5902917   3.8012534  36.6057277   9.4161874   3.9967272  37.0483541
   8.8332689   3.2042915  35.8980346  62.9176140  13.8896680  67.8182173
  62.4960041  14.7065234  68.0850935  62.6313877  13.2486737  68.4689331
  52.5149843  83.8402232  19.8593166  52.7133604  84.1368302  18.9711120
  53.3680889  83.7867363  20.2901104  41.9825649  35.9524155  64.1953373
  42.1825647  36.7859650  64.6212769  41.1130619  35.7196283  64.5209265
  30.4875374  21.3658977  48.1838036  30.0522518  21.9656014  48.7897015
  31.4150238  21.4253998  48.4128523  46.6557360  30.4649925  52.7547216
  47.4034166  30.4873967  52.1574736  47.0238352  30.6944203  53.6080074
  62.6159402  80.0248726  13.9941909  62.4425241  79.3712767  14.6716621
  63.5622665  80.1636966  14.0319469  54.8157358  20.0264621  74.2017269
  54.0821314  20.4730725  73.7791252  54.8630428  19.1765654  73.7639236
  81.4424631  67.1549209   7.7421310  81.2891408  67.7181014   8.5007789
  82.3885175  67.1942981   7.6019027  72.2696924  12.8455412  51.9661331
  73.0269432  12.3626971  51.6349697  72.6110840  13.3487523  52.7053642
   0.7453324   2.0228322   4.6931532   0.1099397   2.7159388   4.8723486
   1.2873150   2.3718531   3.9855697  56.9418240  68.7801266  71.3026476
  57.5472498  68.8535547  72.0404148  56.3911581  69.5604897  71.3661146
  42.0427879  74.7659071  24.7806671  42.5159022  74.2854031  25.4600074
  42.5556406  75.5635198  24.6501854  65.7594252  28.8550305  61.9609737
  65.7945061  29.6770859  62.4500799  64.9280691  28.8929915  61.4880705
  53.4125996  12.6878953  59.7319460  54.3035221  12.8760254  59.4368362
  52.9039192  13.4518266  59.4601297   4.6156149   7.3480963  66.9280338
   4.9640732   7.8486990  67.6657343   4.0775948   6.6678309  67.3330212
  52.8292274   9.3396103  69.7082615  53.0485964   8.4791368  70.0656033
  53.3661222   9.4153363  68.9194393  69.4496584  21.1859488  64.9784851
  68.6308861  21.5498233  64.6416807  69.4040775  21.3284206  65.9239197
  23.0278325  40.3507233  72.8446054  23.8167644  40.6402111  72.3863316
  23.3549094  39.8981237  73.6220407  78.5435481  84.2549838  53.1582260
  78.0085821  84.3683206  53.9438486  79.3291480  84.7753904  53.3262825
  33.9900303  24.3813562  41.1100960  34.0435910  24.5173240  40.1641178
  33.2140255  24.8729348  41.3791656  44.2755556  32.9170823  70.8989048
  44.5384884  32.9977465  71.8157387  44.9137354  32.3132658  70.5189514
  22.8689671   5.1574743  61.7476559  22.7496910   4.9492821  60.8210182
  23.7159133   5.6018043  61.7862177  12.3156052  82.0576867  10.8635738
  13.1785803  81.7135795  11.0940006  12.2652082  81.9607695   9.9126270
  12.7396823   2.5742800   3.7673881  12.3747684   1.7008049   3.6255911
  13.6418392   2.5107558   3.4538438  54.8992157  30.1784396  58.6376572
  55.6442976  30.5856347  59.0795612  55.0481892  30.3515983  57.7081108
  69.4283458  68.4794982  18.6631706  69.0781399  67.8650959  18.0181148
  70.3095218  68.1551655  18.8490989   0.6667735   6.3486369   8.9808395
   0.4113127   6.6881020   9.8385837   1.5667845   6.0458691   9.1014221
  36.3742713  63.3786489  64.8181486  36.2777213  63.8722111  65.6325865
  37.0275811  62.7088238  65.0200272  15.6654060  34.0031576  56.1467361
  14.9745202  33.9125490  56.8030119  16.2544942  34.6649909  56.5089321
   5.7952312  79.5075388  51.4552498   6.1701563  80.1090510  52.0985603
   5.8908251  78.6419357  51.8525219  26.5812806  79.6689416  38.4594679
  27.1281174  79.0879423  38.9882755  25.7049302  79.2876978  38.5132861
  85.6037208  70.6612047  11.5393665  86.1979267  70.4870375  10.8094242
  85.3308793  71.5701540  11.4144638  84.6256945  39.8892522  67.4152994
  84.6679721  39.1809559  68.0577660  83.8373003  40.3787374  67.6499748
  34.0491104  33.5458183  53.9578867  34.3339849  32.6604319  54.1840935
  33.8033509  33.4897590  53.0344725  60.8058854  71.6870912   6.8162086
  60.3654095  71.1269864   6.1770752  60.5753085  72.5780471   6.5530422
  20.8590201  58.4991170  57.5809193  20.8007125  59.2156173  58.2129478
  21.7606667  58.1865884  57.6556635  42.3433094  49.5559450  18.7850788
  42.2521763  49.5728662  19.7377803  43.0259018  50.2004679  18.5982826
  17.2171451   0.8367665   6.2749126  16.9766523   0.9877665   7.1890190
  17.2475959   1.7115815   5.8876159  45.6162024  46.7806053  62.1152878
  45.7367373  46.7037773  61.1688232  46.4859295  46.6199112  62.4813223
  73.0871582   0.6415511  60.7417774  72.8065825   0.9941989  61.5862608
  72.4941349  -0.0921188  60.5796480  73.8943550  54.7183510  24.0086391
  73.7465831  53.9636382  24.5785549  74.0904638  54.3373712  23.1527069
  71.2378141  50.7663496   6.4054516  72.1553632  50.4938146   6.3981178
  71.0725566  51.0751524   5.5146339  84.1908523  75.6001719  11.0200908
  83.6268159  76.2283548  11.4711788  84.7119876  75.2023300  11.7174938
  46.7562199  38.3818865  62.6625443  46.0117054  37.7914333  62.7778721
  47.2767448  38.2691717  63.4578943  81.7252942  83.5235318   3.7573269
  82.3506471  84.0744027   3.2864645  81.3390085  84.1053780   4.4119003
  44.4864035  26.3201404  67.2235775  44.3108845  26.8649697  67.9907751
  44.1689062  26.8383813  66.4840841  19.2207031  62.5311490   3.4314563
  18.7567120  63.3654722   3.3618095  18.8619785  62.1226343   4.2192819
  50.3136826  26.2123251  71.8192053  49.6186352  26.2989831  71.1668015
  51.1150217  26.4382100  71.3469076  87.5318595  21.6121705  37.1854618
  88.0755731  21.1674937  37.8357532  86.6340372  21.3884624  37.4306133
  52.2888708  26.5561652  64.7902822  52.8548336  27.2824883  65.0517654
  52.2930574  25.9659648  65.5438566   7.1715623  22.3927546  70.0996733
   6.8513077  22.2227550  70.9855461   6.6040003  23.0891609  69.7693396
  11.6938211   4.4299586   7.3149040  12.4702264   4.9044735   7.6119831
  11.7047693   3.6148198   7.8165558  45.5198956  46.0832071  70.6332588
  45.1316643  46.6852188  69.9983644  45.5608702  46.5864372  71.4464664
  46.0237885  11.2909806  66.2040663  46.3523149  10.7431149  66.9169092
  45.8801651  12.1473622  66.6068268  46.4990759  63.7393332  70.0074291
  47.1964216  64.0456915  70.5871630  46.2950277  62.8588724  70.3226805
  37.4308443  27.5022602  61.6327810  36.4839840  27.6382041  61.6675472
  37.7598429  27.9013371  62.4382162  37.6304698  30.6785583  51.7189217
  36.7038393  30.4388499  51.7301798  37.9693127  30.3644872  52.5572395
  80.1588890  54.9955185  51.8906906  80.9928438  54.5275207  51.8491771
  79.6737358  54.6888109  51.1246612  22.5337768  27.4373889  74.0290213
  22.2511816  28.1460071  73.4508944  23.3081937  27.0729899  73.6003876
  35.5412769  44.5135307  37.4530268  34.6895790  44.0790701  37.4073362
  35.4219174  45.3267908  36.9625235   3.4552695  20.2744992  16.8773487
   2.5582601  20.3820736  16.5610721   3.9964558  20.3435976  16.0908535
  77.8400850  34.1866016  54.8287249  76.9060135  34.2176080  54.6218872
  77.8715181  34.0036249  55.7677507  11.7344095  12.9679425  39.5231559
  12.1121360  13.4565146  38.7918213  11.8406011  13.5467036  40.2781322
  57.4803352  62.9928350  67.5303650  57.9821396  62.6320028  66.7994595
  58.1383896  63.3953094  68.0971241  31.7788982  21.9629669  71.9343996
  32.1698236  22.2193670  71.0991383  31.5571737  22.7914739  72.3594284
   5.7897787  81.0305890  34.3035152   5.2964811  80.2293309  34.4792297
   6.6536074  80.8679994  34.6824577  48.5416397  81.4660009  32.9433658
  48.9283618  82.2837432  32.6303604  47.6010629  81.5775450  32.8051403
  69.7607231  31.5408778  59.0633488  70.6942463  31.3795424  58.9264536
  69.4736814  31.9802427  58.2628536  82.9695054  82.2865828  30.5313327
  83.0965110  81.5539607  29.9285343  83.3128759  83.0461653  30.0608375
  79.2527294  20.5280447  54.8729801  80.1007938  20.0858188  54.9110556
  79.0589285  20.7531595  55.7829237  61.2519169   2.4227245  55.1649141
  61.7960596   1.9508016  55.7953310  60.3589964   2.3177645  55.4934025
  10.1134471  65.9806646  40.3365612   9.9040488  66.4752162  39.5442224
  11.0433510  66.1510504  40.4865074  88.0573484  82.2218426   2.5768116
  87.3012086  82.1525343   1.9939926  88.6048957  82.8988918   2.1792820
  60.7541915  63.2513674   4.3485429  60.9665367  64.1761049   4.2220524
  59.9865695  63.1041344   3.7959936  40.2656603  27.5134897  49.7228146
  40.4855299  28.1407213  50.4116344  39.4172907  27.8086066  49.3920517
  59.9559164  20.8879733  57.6373386  60.8938313  20.7059240  57.6956844
  59.8287868  21.2058711  56.7434645  11.4146663   3.4909136  17.4239566
  12.3526670   3.6310227  17.5533703  11.1524154   4.1771252  16.8103054
  43.9002705  38.2593918  60.5379009  43.0364609  38.6283207  60.3536272
  43.7682390  37.7173281  61.3156939  59.8901176  38.9538574  51.7005825
  59.4434404  39.6407723  52.1954155  60.7480764  38.8772774  52.1180487
  61.4367390  32.3009467  71.5771055  61.8378258  32.9964304  71.0558939
  60.7817793  31.9137502  70.9962940  32.2734548   1.1831076   6.3116005
  33.1718875   0.8729680   6.4250305  31.7342235   0.3996022   6.4191940
  11.6181307  45.3340629   6.1347988  10.7365065  45.7067668   6.1427047
  12.1843987  46.0524564   6.4167240  77.9545852  37.9432627   9.5399883
  78.5866424  37.3682579   9.9713924  78.4722253  38.6954083   9.2526653
  23.9672208  28.0519652  64.0279055  23.5909748  28.9313912  64.0636921
  24.2839670  27.9633665  63.1289911  70.2749487  70.4894384  39.6252849
  70.1878115  71.2114318  40.2476719  69.6208259  70.6739839  38.9512661
  52.1503925  33.4836364  51.7313242  52.0565033  32.6177502  52.1283865
  53.0485153  33.7445021  51.9351768  85.2476900  13.4115155  10.9225013
  85.6952327  12.5875552  10.7300785  85.1244371  13.4011490  11.8716743
  76.9316774  12.7872260  15.8027103  76.1796408  12.1976454  15.7473304
  76.5465825  13.6609204  15.8704975   1.6578894  74.5504530  32.2451236
   2.5880747  74.5191463  32.0215061   1.4581852  75.4844149  32.3088958
  65.5906515   2.4642785   5.7814052  66.0882109   2.7923329   6.5304401
  66.1050706   2.7275307   5.0183227  75.6493637  84.8538645   6.2292602
  75.9128448  85.6421908   6.7039707  76.1618492  84.8783549   5.4211834
  30.6275058  20.2306366  60.2897692  31.1110330  20.9212852  60.7430220
  30.6798601  19.4766045  60.8770752  51.1947870  10.3679419  59.5265293
  50.5420256   9.9523807  60.0899506  50.7035398  11.0278273  59.0371847
  74.3641588  50.8341833  21.8057754  74.9852582  50.3831347  21.2339046
  74.7040292  51.7265638  21.8719509  72.9764318  19.5204687  63.8604307
  73.0318928  19.1994023  62.9603910  72.1782064  19.1225636  64.2079067
  91.3340351  61.4256187  14.6841934  90.6837531  60.7702383  14.4315174
  90.8171102  62.1649977  15.0041034  23.6869645  53.0654716  70.5980730
  24.2556000  53.1203699  71.3661051  22.9766297  52.4830008  70.8671236
  40.7497120  30.8840370  62.7687025  41.1668730  31.7451954  62.7438736
  41.2986040  30.3689694  63.3600187   6.8999891  81.2143978  17.6248195
   6.5258102  82.0273503  17.9644230   7.3629122  81.4777120  16.8294552
  55.6453153  84.9692305  25.3559520  56.0150095  84.0900811  25.2743843
  55.1719996  84.9537857  26.1877945  54.4662905  20.7084942  46.5834904
  54.4138479  20.0770330  47.3009443  55.0160027  21.4138174  46.9249105
  26.7739677  31.2283945  27.6572323  27.1066308  32.1176672  27.7787328
  26.0279679  31.1681247  28.2539582  21.7505002  42.1266794  65.1403046
  20.9003401  41.8605471  64.7901106  21.5756392  42.3408937  66.0566902
  48.1421328   9.8090833  72.1237516  47.3478889   9.5614743  71.6503620
  47.8354645  10.0446165  72.9993725  57.0523545  62.4362799   9.7380283
  56.1511990  62.7270063   9.8781421  57.5629064  63.2453450   9.7067001
  81.1643764  74.5336851   3.4187391  82.0069238  74.3597396   3.8383701
  80.7816907  73.6671050   3.2815578  65.7927247  79.1595324   4.5959833
  66.3068458  79.4656404   3.8488510  66.1290642  79.6600493   5.3393486
  52.6349640  23.0139327  54.7514629  53.3995342  23.5157323  55.0340509
  52.6027203  23.1402063  53.8031769  68.9297649  43.9372084  23.0941799
  68.4403845  43.4328820  23.7440994  69.6522805  43.3631126  22.8399875
  56.5097046  36.5314388  60.2598000  57.2875261  37.0834899  60.3402424
  56.4620829  36.3190770  59.3276691   6.8020277  54.6932789   3.0134132
   7.1919804  54.5711680   3.8790109   5.8584051  54.6463498   3.1670311
  38.1752849  17.3779356  60.3335905  37.9494238  17.4238300  59.4045544
  37.9983282  16.4696789  60.5785179  18.1626158  40.7712579   1.2341192
  18.8345509  40.3312602   0.7134082  18.5459786  41.6211007   1.4509895
  42.0411539  32.9097724  69.2669582  41.4268303  32.1859002  69.3887949
  42.6301193  32.8532982  70.0193977  44.7221231  36.5507221  62.9361296
  43.9475822  36.3198066  63.4489632  45.2608061  35.7595515  62.9464197
  84.2056465  54.7613859  73.5623646  84.9656487  55.3427553  73.5369062
  83.5904980  55.1437998  72.9366016  52.5262548   1.3053353   8.5127094
  52.2715379   0.4081519   8.2972553  51.9565107   1.5472920   9.2428329
  86.9367381  84.6582945  10.6867340  87.0862457  84.4052037  11.5976837
  87.7785274  84.5103129  10.2557876   3.7495928  44.9310324   0.1591184
   3.6916189  44.8952148   1.1138895   2.9996996  45.4632955  -0.1065657
  57.1152353  21.3705635  49.3956518  56.7265511  21.7893291  48.6276722
  56.4440060  20.7603621  49.7011614  50.0203657  43.2179689  71.6155910
  49.3595600  43.5963774  71.0356188  50.8200121  43.7055302  71.4179039
  20.6673717  38.7968206  56.7076445  20.0518608  38.7333965  57.4379587
  20.1850128  38.4501076  55.9570789  59.6238610  66.1653908  35.9803131
  60.4573366  65.9227403  35.5769947  59.5879885  67.1186336  35.9011200
  84.4551373  30.6885433  59.2643499  83.8775349  30.0930548  59.7418499
  83.8728905  31.1615634  58.6698198  30.7829075  67.1835264  27.2782161
  31.0783367  67.6778348  28.0428150  30.3489761  67.8336700  26.7257240
  69.8551989  46.8457031  55.4646635  69.5070124  46.9533014  56.3497734
  70.6906223  46.3953400  55.5890322  69.4390842  78.7802347   3.3768251
  70.1183959  78.4477099   3.9635065  69.6502015  78.3980759   2.5249937
   5.8103447  75.4704913   2.8668859   5.3475313  76.3073142   2.9088667
   6.4885740  75.6048354   2.2049263   0.7016878  85.1059588  29.2924144
   1.4236956  85.7233151  29.1748932   0.9483080  84.5926197  30.0617626
   8.2353139  40.2464390  72.9475260   8.4528232  40.1803827  72.0177078
   8.8275504  40.9185076  73.2848883  86.4066383  64.2192324   1.9361999
  86.1228200  63.7038477   1.1811807  85.7039472  64.1119250   2.5772455
  56.3066198  13.4432013  49.1032150  57.1443368  13.6148913  48.6731270
  55.6487848  13.6788304  48.4490230  20.0170398  14.1157162  74.0087700
  19.9870813  13.8487148  74.9274874  19.5886159  14.9715579  73.9939833
  24.7080445  31.1923623  57.7058029  25.0867724  31.5744424  56.9140911
  24.6208286  30.2607393  57.5040579  60.0881481  41.5284729  61.6414356
  59.8018312  41.0909176  60.8396912  60.4048777  42.3827744  61.3480425
  74.9496698  44.5705891  54.1246986  74.1952991  44.3809605  53.5668516
  74.6132755  45.1770926  54.7844124  76.1521551  52.7924015   9.6089103
  76.2092229  52.5287153  10.5272987  75.3850099  53.3636125   9.5709541
  64.4959307  20.6166625  71.6134644  64.8277140  20.0219917  72.2861576
  63.7388754  20.1620173  71.2441397  73.7021848  78.6385282   6.4356830
  74.4764682  78.8926657   5.9335544  74.0168306  78.5565694   7.3359611
  27.2121024  19.6935248  53.8707733  26.5942478  19.6239364  53.1430101
  26.8659759  20.4032683  54.4117832  61.8805981  12.6656604  65.7419014
  62.5039387  12.7066231  66.4671612  61.1587620  12.1333134  66.0762548
  32.7770058  74.1205915  40.1145485  32.1855732  73.8337239  39.4187477
  33.0779090  74.9842819  39.8321941  28.5430431  29.9005771  59.7184181
  28.8483119  29.6799994  58.8384247  27.5919104  29.8027968  59.6735096
  46.4975023  25.2635169  50.4660368  46.9341755  24.6464753  51.0532427
  47.1577644  25.9334302  50.2885580   0.3199511  79.5870217   0.3502824
   0.4879456  78.7913736   0.8552149   0.8458118  79.4829353  -0.4427264
  62.4253580  79.8268541   8.6587742  61.9173952  80.1191600   7.9019668
  63.2755658  80.2544745   8.5562160  15.9833814   3.1218941   9.4810703
  15.6253578   3.1508715   8.5938194  16.4987565   3.9248545   9.5577171
  79.2498323  50.2244570  28.4056595  79.2794105  51.1365362  28.6945656
  79.0272876  50.2747746  27.4760463  54.3109846   0.4547239  71.3342714
  54.6577978  -0.1593481  71.9814730  55.0714016   0.9661548  71.0578060
  58.9401579  19.0784931  50.6885719  58.7906170  20.0199485  50.6017971
  58.7709188  18.7275076  49.8142767  15.7935742  79.2922861  68.6924171
  15.8232144  78.6095596  69.3626738  14.8769692  79.3187721  68.4178829
  85.9629822  30.7306671  45.8420229  85.9426308  31.6683817  45.6509495
  86.2358761  30.6787491  46.7580271  57.3763868  83.6795720  19.8582580
  56.5052244  83.3695420  20.1056221  57.7702972  82.9413231  19.3934372
  69.7565603  38.2348061  66.1835575  70.5788374  38.6288500  65.8923101
  69.6529198  38.5363436  67.0860863   3.3624773  59.1988750  15.3214290
   2.6590424  58.5497149  15.3209903   4.0757971  58.7787541  15.8019474
  13.9735414  15.6271155  16.2377002  14.8138429  15.3242619  15.8936145
  13.6367561  14.8828537  16.7365863  24.5848179  15.4644358  56.4494419
  25.1603556  15.6596541  55.7099247  25.1435280  15.5632234  57.2203588
  22.6285362   8.1370652  54.8482037  23.0042577   9.0112722  54.7441530
  23.2985044   7.6431274  55.3208542  48.3995533  30.2024484  74.2231321
  49.2283010  29.9747229  73.8017607  48.0566072  30.9275723  73.7008142
  73.7845823  76.0848459   7.9543045  74.0031167  75.1535757   7.9194763
  74.4389697  76.4626106   8.5419300  28.4257439  78.0713988  49.6757746
  28.7693528  77.3606343  49.1344976  27.8799132  77.6329810  50.3285265
  14.8429183  82.0072610  57.2330666  15.7573966  81.7632560  57.3759747
  14.6749714  81.7815609  56.3181448  76.7867204  53.2428487   2.9798057
  77.3974916  53.9408680   3.2163599  75.9210273  53.6408933   3.0712774
  37.3881269  19.0421820  73.3017540  36.7521667  19.3432939  73.9506912
  37.2030401  19.5675373  72.5233078  30.8270121  28.9777780  71.3195229
  31.4893079  28.4110689  71.7150402  29.9948645  28.6432028  71.6539192
  55.8758688  10.9254348  62.1620703  56.3005829  11.0572159  61.3144350
  55.5803061  11.7985058  62.4201822  20.7185721  55.1785231  68.1786919
  21.5183640  55.2306175  68.7020016  21.0263681  55.1533318  67.2726822
  53.2440090  29.4555235  65.4789209  53.9036608  29.8687148  66.0360193
  53.3223772  29.9079514  64.6390390  58.1118584  14.4647551  65.5987215
  58.6523628  15.2547312  65.5938578  57.6607275  14.4884050  66.4426136
  61.7039987  75.8262475   4.3315818  62.6205465  75.5712350   4.4371298
  61.6823884  76.3045510   3.5027340  70.8209181  47.6075077  71.5650892
  70.0726366  47.8172159  71.0062265  71.5846491  47.8699303  71.0512018
  85.3846618  69.4618019   1.0245445  85.5532857  70.2104982   1.5966060
  86.1817809  69.3755802   0.5016687  70.9696981  60.8370193  34.6410968
  70.3437778  60.6781705  35.3476551  70.5231019  61.4520439  34.0592697
  77.5353765  44.6200800  59.1370821  77.7479553  45.2490139  59.8266363
  76.9137096  44.0177250  59.5456600  76.5624142  26.9134188  59.8281050
  76.8547916  26.0604739  60.1494074  77.3075724  27.4947667  59.9797678
  86.0692310  47.2644711  59.9029541  85.7913971  47.0282888  60.7879734
  87.0167351  47.1285629  59.9050951  31.1908937  20.1793551  55.7420540
  31.9772959  20.3640985  55.2285624  31.2628937  20.7527828  56.5050936
  28.6306267  76.7699440   8.0195739  29.5378094  76.4876851   8.1361034
  28.1081371  76.0173114   8.2966736  62.3497534  19.4369638  70.0805569
  62.6579571  19.7991121  69.2498398  61.6941452  18.7862396  69.8296213
  30.9036303  36.5948820  73.3511925  31.4455700  37.3481202  73.1163216
  30.0230432  36.8338823  73.0619240  77.9643631  85.8919621  59.5606375
  77.0849228  85.6373215  59.8398781  78.2266951  85.2091980  58.9431906
   1.4203795  43.9051199  56.2949085   2.3426207  43.8250160  56.0513878
   1.4367160  44.2858791  57.1729660  59.6055269  46.6500759  60.0585651
  59.1529751  47.2733307  59.4902515  60.2302170  47.1836948  60.5497360
  55.1236820  41.4210892  57.3123264  55.0499678  42.2293997  57.8197050
  55.6338310  40.8338547  57.8701210  54.0361978   7.5746758   5.0648811
  53.2748605   7.5178130   5.6422641  53.6880208   7.3967106   4.1911915
   8.9390259  66.9678005   9.2011097   8.5916691  66.3855394   9.8767879
   9.8430948  66.6786774   9.0774181   0.0313338  39.4468880  44.6633196
   0.9836062  39.5266128  44.6080351  -0.1138154  38.6071062  45.0991297
   7.8113080   8.5720189   1.3417366   8.6288144   9.0696413   1.3586261
   8.0477644   7.7365239   0.9389188  66.6348362  41.1520815  62.0779419
  66.9350386  40.5437946  62.7532959  65.7195807  41.3234568  62.2996712
  80.7415485  27.9642630  70.6647062  81.5478992  27.4948549  70.8784533
  80.3734875  28.2072473  71.5142441   0.6058579  72.8376349   3.3968332
  -0.2654524  72.4431976   3.3585289   0.4589348  73.7073048   3.7687423
  47.9817010   1.0108931   7.5573757  47.5849534   0.9149153   6.6915729
  47.6134206   0.2917607   8.0706527  75.8970833  14.4762146  63.7308645
  76.7252207  14.0527022  63.5048914  76.0567331  15.4084122  63.5833788
  52.4316980  14.0567477  15.1601722  53.3722211  13.8967116  15.2379062
  52.0332910  13.4519036  15.7860019  87.8721544  64.8024591  17.2886112
  88.4218904  64.2882689  17.8799083  87.2743675  64.1633018  16.9008472
   2.7760936  38.5364182  29.1970852   2.8600551  38.3415158  28.2637050
   3.0195714  39.4591076  29.2719391  59.7966862  56.9135094  67.1005535
  60.2022791  57.2074890  66.2848949  60.2886772  56.1292219  67.3436022
  47.5121356  18.6942799  16.0705593  48.1705619  19.3233902  16.3653877
  47.4081232  18.8764079  15.1366165  29.6870138  40.2105076   3.4875467
  30.3159858  40.9317334   3.5089710  30.1091529  39.5097287   3.9844682
   8.1519918  70.5780562   6.8910244   7.5780087  71.0311874   6.2734058
   8.9959078  70.5290636   6.4419773   0.7911547  44.1832924  73.7283373
   0.7864817  45.0760412  74.0736008  -0.1343004  43.9609671  73.6266756
  11.3644847  36.3772440  52.7473593  10.4774626  36.7241168  52.8428030
  11.2450274  35.5276299  52.3229504   4.1257982  46.9730275  15.5240085
   4.3240814  46.7336180  14.6186855   4.9556141  47.2984161  15.8729484
  83.7463590  75.3122195  39.6443870  83.0572721  74.7731431  39.2560699
  84.5059701  74.7317918  39.6925953  13.5839205  83.3208617   2.3646286
  13.1334381  83.6783942   1.5994718  13.0721455  83.6323937   3.1111314
  81.4496204  83.4857901   8.5221317  82.0912000  82.9052003   8.1128338
  80.7861968  82.8955778   8.8795498  68.5469055  74.9088764  71.1740685
  67.7559614  74.3707418  71.2065411  69.1790676  74.4385576  71.7175817
  31.9254856  83.7874278  14.4591835  31.4253216  83.8064059  13.6432769
  31.3460045  84.1918715  15.1048210  45.5854607  52.5836992  59.1881227
  44.7980642  53.0632305  58.9306498  46.2790728  53.2433367  59.1859198
  17.9861527  53.4750565  26.1398723  17.5585394  54.1241225  26.6985252
  18.6738281  53.9639445  25.6878498  28.8540173  81.8329620  61.1531305
  29.4240570  81.1362553  60.8277178  29.0350437  82.5778675  60.5799246
  82.8835773  47.3190784  72.8303051  82.0801926  46.9547844  73.2019091
  83.5839462  46.9587135  73.3742380  76.7730141  70.7711029  47.9742336
  77.4958944  70.3996611  47.4685574  77.1135902  71.6028547  48.3035135
   3.5722094  74.8350819  20.3700378   4.1499500  75.4465159  19.9133232
   3.0615454  74.4223770  19.6735313  30.1112700  32.9855299  71.8066835
  30.0942183  33.8604116  71.4187098  30.1210117  32.3910213  71.0565519
  76.9786835  54.1782808  57.0940161  76.3215733  53.9318275  56.4430952
  77.6153708  54.7003222  56.6058302  28.1982662  20.1125081   1.5373686
  28.0818607  20.9206707   1.0378101  27.3227693  19.7276623   1.5777233
  87.4159261   0.8837294  70.2241373  86.9684764   1.0364698  71.0564137
  87.5327989   1.7574953  69.8511553  33.9637780   5.3686279  53.0909491
  34.3962669   5.3732836  52.2370386  33.6226749   4.4788957  53.1818199
  59.2075014  11.9844556  66.2243509  58.8350296  12.8590107  66.1118746
  58.7426758  11.4423633  65.5869293  58.1301451  57.5349474  68.8986397
  58.6594820  57.8978252  69.6088171  58.7698078  57.2188711  68.2605457
  60.3554678  44.0729809  54.2536974  59.7013760  43.9534616  54.9422550
  59.8993731  43.8357019  53.4462881  83.8170338  23.6790705  60.0778341
  83.7351418  22.7679300  59.7961426  82.9823971  23.8739538  60.5040073
  12.7744513  72.2954591  10.7283333  13.2231169  72.9781969  10.2295330
  11.9918852  72.0979603  10.2137211  86.3687992  67.1216106  53.3482218
  86.3807774  67.9921198  52.9503536  85.7656288  66.6170931  52.8024483
  11.5583190  70.6726789  61.4958477  10.9306296  71.2622595  61.0779715
  12.4148806  71.0327435  61.2658548  23.3366609  22.7090693  71.4534616
  23.5120225  22.5838256  72.3860884  23.0214357  21.8568563  71.1524677
  90.0238439  63.0250295   6.5306213  90.6639310  62.7096518   7.1686294
  90.4549381  62.9129477   5.6833770   9.5385103  71.3500269  11.1412742
   9.5867615  70.3940805  11.1328724   8.6030560  71.5431817  11.0792186
   5.7945021  58.7082291  20.5518699   6.2938937  58.2999563  21.2590861
   5.7595023  58.0404997  19.8669314  56.8526697  45.0272322  56.9908619
  56.6236877  44.8335791  57.8998709  56.1656094  45.6232071  56.6925430
  70.6736994  18.7615669  64.5749283  70.3927994  19.6394694  64.8330259
  70.0951767  18.5288060  63.8487339  72.1528387  39.1872072  72.8922367
  72.9162788  39.6887636  73.1782913  72.5168324  38.3693719  72.5532866
  64.1241598  15.7578313  47.7535534  64.4942999  16.1712396  46.9736052
  63.9779234  16.4821386  48.3620167  77.8219797   7.2042496  12.5676181
  77.4391080   7.9994948  12.1971729  77.5660898   6.5099223  11.9604423
   8.0386027  33.5156107  45.8915615   7.5436267  33.5159183  45.0722742
   8.0663546  32.5955892  46.1542797  25.0320245   2.6472743  20.8524635
  24.6304561   1.7787440  20.8775547  25.9362937   2.4853785  20.5835464
  52.5867367  50.6983137  57.6214123  52.8089809  51.1989403  56.8364191
  52.4366331  51.3622427  58.2943916  10.9069471  79.8935946  14.2207172
  10.6503277  79.3435129  14.9608448  10.6318836  79.3995388  13.4483936
  71.4531680  81.0512980   5.0702408  72.2303268  81.1848195   5.6128528
  71.5883705  80.1947936   4.6648433  66.4386845  56.6230869  64.3479586
  65.6355333  56.7888451  64.8416281  66.4177895  57.2616196  63.6351633
  77.8906012  50.3972960  45.4502249  78.0087662  50.3030109  44.5050383
  77.3474598  49.6495628  45.6994677  54.5953465  36.4101481  68.4541988
  55.5226517  36.6070437  68.3216524  54.5527124  35.4539609  68.4651899
   1.3472586  76.5913161  20.9029510   1.4623146  76.8984302  20.0036838
   1.9573479  75.8583888  20.9856441  16.9267234  43.3730698  59.0937614
  16.2455901  43.5913992  59.7298479  16.8734130  44.0680408  58.4377050
  75.9384509  46.6884034  15.7288006  76.5674850  46.1478155  16.2066200
  75.8515474  47.4803468  16.2593677  14.7247486  63.8804635  13.2658222
  14.1180687  63.1401285  13.2744053  15.1880293  63.8008221  12.4319961
  78.5142660  64.0327692  62.6332855  79.2134523  63.3856392  62.5405836
  77.7129269  63.5126734  62.6931238  45.2809381  51.0996103  61.3137770
  45.5658150  51.5766811  60.5343676  44.8460436  51.7600107  61.8531942
  58.6225796  69.3662024  73.4698296  59.1563988  69.3880177  74.2640543
  58.8142395  70.1942730  73.0296040  49.5246841   7.5627596  16.7063549
  50.2790548   7.5324185  17.2947815  49.7832872   7.0255549  15.9575107
  42.7630807  34.9223883   4.7462204  43.6712934  35.1544268   4.9399736
  42.3196317  35.7632906   4.6345546  40.6802893  13.4525633  58.6247969
  41.4506102  13.1431711  59.1013622  40.4483032  12.7256906  58.0468130
  36.5311815   7.0747645   0.3128603  36.5165330   6.5292246  -0.4735253
  35.6214429   7.3474820   0.4321506  40.9281446   6.4676363  17.4578407
  40.1551725   5.9191830  17.5918033  40.6653501   7.0905097  16.7801979
  36.8844940   3.4197361  12.3893955  37.3319437   2.8221829  11.7902782
  36.1315681   2.9212363  12.7069309  48.6343145  35.0033712  71.8304348
  48.8956451  35.6680965  71.1931896  47.7267933  35.2201080  72.0441151
  57.7510548  37.9187632  49.1066885  57.2372723  38.1387806  49.8837662
  57.1019220  37.8217196  48.4099483  37.4480295  52.1585989  68.3097219
  38.3981729  52.2404051  68.2274437  37.1934652  52.8850269  68.8786983
  75.6450462  58.0958986  54.9651527  76.0658598  58.5682106  55.6835318
  75.7923317  58.6476564  54.1969728  52.9395505  76.7715534   5.3464582
  53.0910918  77.6697930   5.0524690  53.6769005  76.2755140   4.9907997
  67.2757864  45.2462721  59.3611193  66.8743992  46.0617733  59.6612549
  67.0138454  44.5962572  60.0131130  85.6580448  33.2526135  69.5445538
  84.8422337  32.7555370  69.6045923  85.9410381  33.3590746  70.4527426
  37.6651335  40.2007294  67.1342897  38.1393194  39.9728298  66.3346386
  37.9464698  39.5468068  67.7741909  14.7544556  81.1626085   4.4048479
  14.5636396  81.6462787   3.6011770  15.1127653  81.8203314   5.0008753
  15.0778656   9.2947268  66.2364626  15.8175116   8.7888979  66.5730429
  15.3219442   9.5051168  65.3351355  89.2953226  85.6210288  17.6577118
  89.9533626  86.3160618  17.6696708  89.0075656  85.5793150  16.7457416
  71.4216043   8.0963786  42.9037597  71.5565778   7.9297287  41.9708946
  71.2224580   9.0313036  42.9536846  55.4356672  47.8392441   1.5036609
  54.9245550  47.0662243   1.7433241  55.4225828  48.3876641   2.2880676
  78.3447027  38.1695747  57.0564651  78.6897182  38.8422179  57.6436186
  79.0899944  37.5928044  56.8888140  80.5646133  48.8348341  46.2986374
  79.8816013  49.5054483  46.3010645  80.5177307  48.4420633  47.1702862
  89.9521351  26.1481571  72.4388075  90.3373623  26.8672323  71.9380474
  89.1875267  26.5356207  72.8648186  31.4537574   3.5562785   7.8551223
  31.2376882   2.8880293   8.5054996  31.8438055   3.0677493   7.1302536
  64.7909975  36.5920544  61.8809271  64.4595051  35.6957030  61.8271017
  64.3996763  36.9445491  62.6802063  34.7250749   3.9223750   0.3958490
  34.7857048   4.4064314   1.2194040  34.2736675   4.5197899  -0.2004406
  84.2113686  28.3663344  65.4882145  83.7329102  27.7158093  64.9742794
  84.6402073  28.9193177  64.8351145  75.6568670  51.1033726  74.0317202
  75.2899551  51.3835526  73.1932068  75.0661945  51.4740086  74.6874380
  18.1809904  12.0113833   1.1098411  18.4347011  11.4049895   1.8056514
  17.3298122  11.6909392   0.8114507  66.0781240  51.6541672  63.6916399
  66.2254524  52.4963427  64.1220570  65.3307199  51.2759495  64.1548538
  32.8880788   0.2372487  17.4596622  32.5560380   0.1299937  16.5683296
  32.1290828   0.5293734  17.9644611  15.6004143  42.0110178  65.0563812
  16.5296805  42.0514441  64.8304176  15.2946985  42.9144573  64.9753571
  83.0646515  31.7575073  65.6333780  82.9004097  31.3644814  66.4905787
  83.5635853  32.5514603  65.8255529  88.5443401  66.1694050  55.0926447
  88.5127068  66.9037008  55.7058668  88.0892372  66.4884090  54.3133163
  72.2193384  52.7507448  63.0280066  71.3281202  52.7765322  63.3762789
  72.3381567  51.8454123  62.7408028  31.5899396  53.9031363  65.2994013
  31.3208699  54.6239519  65.8688402  32.1088290  54.3214941  64.6124077
  68.7192392  17.8173125  58.8968134  68.2740450  18.2538474  58.1705427
  68.6428070  16.8840325  58.6983776  74.6353579  28.9352751  49.1652155
  75.3696871  28.3961749  49.4590902  74.8904562  29.8302126  49.3893623
  61.8316650  18.0235541  64.1115713  62.1624041  18.6629283  63.4806633
  62.6167488  17.5939250  64.4511223  44.6509933  17.6449347  74.5122337
  44.9756384  17.4857843  73.6259413  45.4381800  17.8206003  75.0277042
  17.6363122  14.8865902  71.0183239  17.3212051  14.9492431  71.9199991
  17.0329452  14.2754066  70.5956745  85.8332825  13.9534903  67.7310038
  85.2777481  14.4196713  67.1062708  86.2874889  13.2963181  67.2036982
  52.5155640  47.9677868  51.6115856  51.9270372  47.7478361  52.3337269
  53.3231258  48.2529211  52.0390987  62.8104448  31.4170980  16.1585867
  62.7094793  32.3096967  16.4892006  62.9628611  31.5252137  15.2198040
  65.9995651  35.1512575  50.4374981  66.3169718  36.0097575  50.7176065
  65.0939941  35.1184058  50.7458687  61.0468340   2.7466899  59.2588425
  61.0754728   3.6939573  59.1243219  60.1261663   2.5151232  59.1364479
  46.0823631  30.5855370  62.4296284  46.9375992  30.2078652  62.6349688
  45.6976604  30.7854056  63.2830238  29.2333366   5.2506001   7.3684337
  29.8217823   4.5231230   7.5702884  29.2634393   5.3254397   6.4146354
  41.1512566  58.9169645  66.2895155  40.5047512  58.2163477  66.2035036
  41.9466496  58.5585833  65.8956385  34.1554071   3.0229981  30.9924343
  34.8946239   2.4213393  30.9041526  34.2305948   3.6071427  30.2378776
  54.7999855  84.3500050   8.1304577  55.3459546  84.2997702   8.9150741
  54.0653273  84.9082240   8.3852031  18.4323748  43.5350609  22.6958346
  19.3421611  43.6914968  22.9489064  18.3893164  42.5939465  22.5264764
  27.8476219  56.7931720  16.3568046  28.7657719  56.7150303  16.6158989
  27.3959904  56.1235138  16.8704441  67.6803156  72.8281101   1.3250425
  66.9602391  72.7448114   0.6999138  68.3395645  73.3462532   0.8633640
  55.3952789  27.5565672  57.7374077  54.4422436  27.4740005  57.7711153
  55.5689096  28.4500575  58.0336475   5.5181150  69.2425331   2.1489837
   4.6209269  69.5760830   2.1545246   5.4259234  68.3105048   1.9513586
  68.6747122  82.2902393  53.3480930  69.2871284  82.4403572  52.6279211
  68.8320208  81.3834572  53.6111975  71.0886289   6.5305884  18.9431026
  70.3331281   5.9538491  18.8298252  71.8436243   5.9797080  18.7363556
  48.1779863   5.2992470  46.2824085  47.8169633   4.7019846  45.6273010
  48.9012433   4.8124583  46.6775921   6.7928200   2.8105043  73.0288458
   6.4806967   3.4223436  73.6955214   6.7161064   3.2933401  72.2059155
  86.1056137  32.9734778  59.4733191  85.6981277  32.1184158  59.3352890
  85.3816319  33.5965896  59.4115686  29.5170832  21.4005089  63.2787275
  29.0928388  20.6540585  63.7018824  28.8055611  22.0197582  63.1159496
  29.2986061  57.1944458  28.2540062  28.5277177  56.6525490  28.4222438
  29.5658399  57.5058300  29.1187980  17.7282859  51.7839749  15.0042370
  17.7607490  51.6389782  14.0586403  17.6065637  50.9105523  15.3764465
  73.9752579  47.1187544  71.4478970  73.5008430  46.7526102  70.7015038
  74.8347044  46.6986465  71.4148712  72.0296526  45.9762335  52.9304218
  72.0232725  46.9300938  52.8507948  71.2935495  45.6859970  52.3917723
  75.9893370  13.9777207  49.5152712  75.7927942  14.8253059  49.9142742
  75.1541853  13.6854744  49.1501093   7.4286040  29.2442465  53.9464808
   7.7805575  28.8467622  53.1500101   7.5141200  28.5621166  54.6125317
  44.7673990  26.6184552  18.0087497  45.6350471  26.2972434  18.2541874
  44.7753669  27.5430090  18.2564762  21.9153174  51.3089609  71.8398190
  21.9419917  50.8494616  72.6790905  21.9759139  50.6140995  71.1842871
  71.2722398  10.8329947  34.6453026  71.2536146  10.8760865  35.6013515
  71.8750097  11.5298302  34.3858364  75.3438807  85.6094074  60.3208542
  75.0650740  84.7272873  60.0751925  74.7798920  85.8421612  61.0584021
  29.9783231  25.4479153   1.1396959  30.1537801  24.9283535   1.9242313
  30.8036519  25.8988078   0.9614923  42.9612400  32.4604113   3.1015184
  43.4954835  32.3359711   3.8859489  42.5126935  33.2934220   3.2468870
  49.1442013  37.4076271  70.7409143  49.1453981  37.9150534  71.5525484
  50.0409889  37.4772859  70.4135752  51.6864491  34.5984530  56.3555098
  52.5804663  34.2584372  56.3187599  51.4831305  34.6371126  57.2900677
  56.0508013  36.3395190  54.2026281  56.6506672  36.8790746  53.6875772
  55.8538866  35.5931783  53.6365557  66.1005878  34.7333145  59.3542719
  65.9257650  33.8612223  59.7080040  66.0070419  35.3195262  60.1051664
  70.6796217  42.4910831  51.8432760  71.2864399  42.2445536  51.1452627
  69.9233437  41.9181776  51.7165995  50.7280874  44.6086502  61.2029696
  51.4862728  45.0893879  60.8708954  49.9761915  45.1471996  60.9562922
  45.7672119  43.9813662  64.5037317  46.1252260  43.7011814  65.3460836
  46.3174391  44.7200966  64.2434263  71.5325805  67.5168212  20.2257660
  72.1889326  67.0934947  20.7791450  70.8163902  67.7299698  20.8239868
  80.5938884  70.1783379   1.6418722  80.0389739  70.1294025   0.8634737
  80.2989932  70.9670623   2.0970466  24.6879388  17.4099238   6.2219932
  25.3155900  16.9363482   6.7678955  24.5072414  18.2146056   6.7078521
  13.2826977  78.7340148  13.9381530  13.3189993  78.1822380  14.7194698
  12.5592690  79.3381985  14.1050079   5.4511194  39.8034372   8.9122226
   5.4238539  39.4330161   9.7944191   4.9082451  40.5899765   8.9658287
  20.9794094  26.9750864   5.0116756  20.6049777  26.5978606   4.2156007
  21.5758325  26.3014491   5.3383520  70.4097795  12.1472061  71.9658804
  69.6864653  12.2287762  71.3442707  71.1109972  12.6783037  71.5884495
  54.4109583  52.4423456  60.6196308  54.4450140  52.2728395  61.5610886
  54.7827435  53.3188009  60.5204678  22.1479417   9.1245015   6.1027935
  21.6766740   8.4559281   5.6056431  21.4901592   9.4921906   6.6930130
  75.8112737  74.5524081   3.8906028  76.3113519  75.0410994   4.5443084
  75.9074947  75.0614675   3.0857256  46.9896698   9.8346615  57.8269243
  47.6129675  10.2718651  58.4070826  47.5156975   9.5540690  57.0780659
  58.9069843  40.9277344  53.1957674  58.0098438  40.8345509  53.5162163
  58.8712645  41.6739178  52.5972986  81.8816948  20.4332376  36.8595433
  81.0276508  20.3569078  36.4340997  82.1791840  19.5293868  36.9633913
  33.5349350  -0.2896238  42.0023680  33.9311199   0.4907297  42.3900747
  33.2538395  -0.0081469  41.1317444  74.5609094  16.4577277   1.4063862
  73.8778593  15.7894499   1.4618614  74.3163206  17.1056492   2.0671442
  26.2727548   9.4921620   0.5288294  25.5943014   9.8394234  -0.0502560
  26.0430290   9.8279746   1.3952520  90.4082319  65.7676633  20.0663879
  90.1884719  64.9849590  19.5611026  91.3478300  65.6899889  20.2317741
  69.1500570  17.5580342   2.5937011  68.3499814  17.8736813   3.0137947
  68.8737489  16.7836554   2.1035745  55.4605390  15.6739027   2.4836662
  54.6499731  15.4804738   2.0126989  56.1147596  15.7937415   1.7952850
   6.1663510   0.2500613  27.9897430   5.6279780  -0.3628414  28.4904792
   5.8649589   0.1510413  27.0866420  87.8520557  67.8841408  10.8768013
  88.4432861  67.8463181  11.6286304  88.0618211  67.1012815  10.3675296
  90.5553790  84.5500954  26.9431904  91.2511035  84.6496828  27.5930240
  90.4873296  85.4114302  26.5312412  23.7720968  13.5688050   8.5682895
  23.4983303  14.0388281   9.3559196  23.2324888  13.9381440   7.8692558
  53.2398796  21.9392037  41.0967016  52.3491430  21.5979981  41.0167456
  53.3779192  22.0298147  42.0395517  51.8924665  61.3705540  71.0111380
  51.5363312  62.2115612  70.7245922  51.3249111  61.1040354  71.7343807
  24.3271209   2.2483714  28.0919578  23.7964536   2.3330147  28.8840797
  24.8388769   1.4514143  28.2305362  81.3046074  52.6281595  70.7096815
  80.7795525  52.1587610  70.0614357  80.6737041  53.1737900  71.1792469
   9.0681772  84.1552266   7.4432113   9.4161015  84.7137698   6.7480781
   9.3900232  84.5517977   8.2527664  81.4780045  44.3992138  61.3592243
  82.3847866  44.7056389  61.3683510  81.0250187  44.9731064  61.9770288
  63.3340883  51.3273382  64.7796869  62.8420019  50.5861807  64.4264603
  62.6624870  51.9344091  65.0905657  90.7070180   0.1694941  71.1141062
  91.4283487   0.1710485  71.7433214  90.4421636   1.0871672  71.0511017
  91.0931533   3.2052357  32.1434238  91.7348116   3.5993416  32.7343490
  90.3872435   3.8496668  32.0921829  39.7499324  40.7142193  11.6054561
  40.6466390  40.4728253  11.3733413  39.7938396  41.6531403  11.7863205
  49.7698736  61.1464405  72.8198004  49.9988937  60.4245758  73.4052038
  48.8931179  61.4113903  73.0978823  81.2349701  46.5187073  32.3027492
  80.9059906  45.6335735  32.4594307  80.4662418  47.0130920  32.0183659
  23.9360954  11.9513257   5.0352504  23.9198066  12.9057438   5.1063373
  23.0353309  11.7119915   4.8171356  69.3255806  52.2931862  40.8973026
  69.4847441  51.6469383  40.2093601  68.5332394  52.7512503  40.6169367
  82.9091263  78.0578995  19.9335945  82.6490307  78.9260912  19.6256626
  82.0956612  77.5535107  19.9431479  73.8770103  55.0708437  68.8653231
  74.7194290  55.5250549  68.8495064  73.2919645  55.6674337  69.3322611
  87.4915409  75.5838680  62.7842712  86.9674683  75.9362698  63.5035753
  86.8477821  75.2394152  62.1652746  64.5892572  41.6272879  69.2614031
  64.8882723  42.0933342  68.4806156  63.6703968  41.4266920  69.0833998
  44.4865751  80.0888062  45.7448626  44.9813795  79.8190975  46.5185976
  43.8773680  79.3676281  45.5867577  29.0328266  45.6945927   5.9541919
  29.3580486  46.2688477   5.2608707  28.9665081  46.2610562   6.7229297
  49.9522209  70.5348301  56.6804743  49.9774027  70.1167822  57.5411892
  49.1458607  71.0505390  56.6881800  15.5277376  54.4139894  14.6385887
  16.3218670  54.7113486  14.1945484  15.1580887  53.7541314  14.0519169
  69.7993851  66.6682673  67.4726295  69.1666698  66.4384222  68.1531239
  69.6063709  67.5825453  67.2650719  50.9122087  23.3607323   5.6625679
  51.5622236  23.6891777   5.0414112  51.3575841  22.6481421   6.1209228
  19.6256142   3.3338808  66.0033798  18.9287500   2.6886438  66.1229038
  19.7519760   3.3771395  65.0555420  32.2518589  52.4658234   6.5035846
  32.6898338  51.6266186   6.6454818  31.9149496  52.7089817   7.3659065
  51.7249203  59.7345924  27.6880550  52.5694370  60.0592089  27.3755670
  51.6305923  58.8762188  27.2751045  62.6783277  24.2661126   6.0413006
  62.4502851  25.0715907   5.5771568  62.5093271  23.5686429   5.4078891
  64.2496347  53.3776760  68.3243036  65.1677704  53.3041763  68.5847950
  63.8015079  53.6878681  69.1111946  78.6929035  84.4478893  50.3241634
  79.5195866  83.9701176  50.2566004  78.5494804  84.5464706  51.2654114
  69.3335104  69.3445778  72.0073557  69.6865559  69.4879150  72.8854465
  70.0971556  69.1193295  71.4760017  46.3512327   4.2136795  26.0022667
  46.0059787   3.3377964  26.1750724  45.5967809   4.7934325  26.1067894
   8.5795097   4.4393801  63.0407190   9.0565090   3.8451265  63.6200047
   8.9350491   4.2617106  62.1699381   4.1333350  30.0755119  59.6502495
   4.6962889  30.7325625  59.2408514   4.7413882  29.4288826  60.0085545
  43.4275056  28.2674248   2.0616415  43.8344146  28.7812884   1.3640764
  43.9352943  28.4815915   2.8442743  15.4776915  52.5493288  52.1279907
  16.1624583  51.8805265  52.1228838  15.7976397  53.2150650  52.7368021
  54.0892315  34.9565315  63.8549376  53.8201857  35.5299783  63.1372976
  53.3387327  34.9480605  64.4490004  66.7506886  73.7087679  61.3482332
  67.3978090  73.9759541  62.0009804  65.9477806  74.1604805  61.6080952
  55.4798700  49.3828518   4.0898063  54.8387433  50.0426896   3.8255956
  54.9521638  48.6384804   4.3790605  57.3941614  26.9907839  18.7237194
  57.5395967  27.5142128  19.5118263  57.4422265  27.6213391  18.0051639
  77.3105001  31.1868238  67.5803137  78.1491947  31.3258076  68.0202103
  77.0296764  30.3184462  67.8689098   6.2674953  14.0345509  17.6038482
   5.5745245  13.4107573  17.8204277   7.0404293  13.4907181  17.4520328
  47.8984594  76.8093443  63.2238770  48.7766171  77.1735573  63.3353186
  47.9645014  76.2595606  62.4431038  46.6439201  33.1152232  21.2246730
  46.9206621  32.3936350  20.6599167  46.2593175  32.6868947  21.9894245
  87.0098850   3.2653307  63.0211544  87.8328678   3.7015890  62.8006601
  86.4023038   3.5386251  62.3338461  56.5165330   8.6248238  39.5640590
  56.1680414   9.5128949  39.6422603  57.0545293   8.5088284  40.3472164
  78.3842611  52.3924780  74.0952587  77.8013992  52.4805355  74.8494148
  78.3023214  51.4749718  73.8350630  16.9833239  81.0198021  67.1284533
  16.4646681  80.8456135  66.3430357  16.6968592  80.3567505  67.7565718
  16.4295702  61.4497217  13.9422825  15.5943518  61.9160040  13.9073208
  17.0830803  62.1117028  13.7165859  26.5540506  22.0593865   3.9152124
  26.8646289  21.7532093   4.7672870  25.8020832  21.5004332   3.7193897
  29.5465948  54.3182690  29.9563244  30.0529958  54.9895031  30.4137542
  30.2029993  53.7947304  29.4966915   2.6743774   2.6711725  71.4083004
   3.4598665   2.5664305  70.8713913   2.9466705   3.2493948  72.1208620
  67.4124857   1.8925928  74.3425226  66.5643689   2.0511984  74.7569799
  67.1950551   1.5615343  73.4711123  53.3057404  73.9565468  63.4105539
  53.8199472  73.5998201  64.1348219  53.9379025  74.4506311  62.8885508
  64.3351364  64.2171717  54.8544216  64.6972227  64.9931192  54.4265938
  64.3009329  63.5563374  54.1627884  85.2451580  28.4131463  12.1665504
  84.8813241  27.6611168  11.6993168  84.7803586  28.4230263  13.0032661
  77.7223730  59.0868902  65.0994301  77.6410294  58.2341099  65.5264950
  77.1695900  59.0186119  64.3209696  48.5218906  42.8536844  51.4053869
  48.8409662  41.9707441  51.2187386  48.5643864  43.3067226  50.5632591
  72.1866989  51.0002041  54.1054440  71.2798262  50.6987572  54.0511847
  72.1786404  51.6601944  54.7986794  87.6610374  61.1432266  54.1987133
  87.8279686  61.8283558  54.8459864  88.4033871  61.1963892  53.5967875
  34.2875959  15.3120215   1.1337307  33.6355163  15.7881291   0.6195810
  35.0996305  15.4045947   0.6354740  89.7779083  54.4531012  60.1026058
  89.3411064  55.2403307  60.4277325  89.6674156  54.4929028  59.1526365
  13.8912134  76.4887865  18.5916069  13.4270363  75.9173568  19.2033508
  14.4132881  77.0643075  19.1505649  29.9910165  13.8972266   3.6788347
  29.0610029  14.1202147   3.6389854  30.1046707  13.2233412   3.0086210
   0.0062685   5.3838228  39.0076470   0.5099993   5.6218313  39.7860050
  -0.4870863   6.1748289  38.7905121  57.4152090   3.9933283  18.6658981
  57.7901174   3.1143506  18.6104515  57.3070051   4.1488154  19.6041706
  50.8621359  80.1679802  59.9559975  51.0492945  80.7289982  59.2033577
  50.4647541  80.7549191  60.5992889  65.2929498  31.4167197   2.1294286
  66.0836603  31.7082388   1.6755274  65.3996564  31.7360194   3.0254724
  79.1434738   9.5806097  62.6957083  78.2361385   9.8528456  62.5583696
  79.6634694  10.3423475  62.4395990  62.7915956  20.2371962  30.2164295
  63.3407022  19.7572596  29.5964554  62.7199747  21.1155589  29.8428276
  59.9411011  65.8951807  67.2628498  60.2568531  65.1382351  67.7563763
  59.4055557  66.3827276  67.8887224  86.4900303  84.8644257  57.9401731
  86.3842773  84.3179989  58.7189341  87.4364376  84.9799252  57.8553391
  35.3559495   1.1609728   9.0748050  35.8852722   1.9278939   8.8559749
  35.0247337   0.8502133   8.2322147  12.3592909  76.9944811  54.9040031
  12.6271495  77.9087353  54.8111582  13.0027827  76.6160250  55.5030966
  84.1844463  59.7101021  64.4036770  83.5280037  60.2262735  63.9358282
  85.0189972  60.1182079  64.1730022  80.7671356  63.0671644  69.8492050
  81.4763927  62.6528168  70.3406382  81.0678959  63.0575752  68.9405346
   8.8415774  35.8732104  73.0818892   9.2348441  35.6965280  72.2272825
   7.9185065  36.0397100  72.8909636  64.3023348  78.8005400  69.9988270
  63.3979654  78.5102415  69.8801756  64.6902990  78.1448317  70.5782747
  85.7966518  44.9521637  63.8083363  86.4063931  44.9104691  64.5450211
  85.0719357  44.3818140  64.0646887  17.7941181  23.1571753  16.8020179
  18.2947875  22.7355607  17.5004413  18.2695295  23.9683754  16.6226509
  13.0673941  59.5837355  66.6701031  12.4352797  60.0494385  67.2176170
  13.4421214  60.2614737  66.1075354  18.1463107  44.5994139  74.2873383
  18.8214453  43.9789248  74.0127230  18.3180293  45.3853178  73.7685871
  67.5799465  54.7908401  60.0216246  66.9354725  54.3589258  60.5822802
  67.3661709  54.4929028  59.1374493  51.4454031  84.3106651  70.8336020
  50.6830502  83.7951088  71.0967779  52.1942759  83.7467957  71.0271740
  61.3303853  29.2353137   3.3700063  60.7688619  29.1205056   2.6033571
  62.2022058  29.3916256   3.0070808  84.1594383   6.9488691  66.3322449
  84.5752546   7.7788900  66.5654850  83.4659168   6.8373751  66.9824982
  87.2680475  11.1975844  17.7317264  86.4764692  11.0690863  17.2091224
  86.9455816  11.4526160  18.5961368  51.6996099  26.9785531   7.3786857
  51.7478944  27.5093253   8.1737831  51.1279584  26.2474616   7.6131084
   5.3796412  20.6715329   8.2913330   4.9358441  21.0221941   7.5191238
   6.3010479  20.8952982   8.1602981  39.7096826  37.6248105   3.3260658
  39.2614604  36.8653614   2.9538133  40.6083299  37.5541241   3.0040958
  59.4217111  23.3707602   6.3736179  59.8387720  24.1954977   6.6228321
  60.0749399  22.7011521   6.5765026  30.9056331  17.7617819  18.0147579
  30.6780864  18.4777482  18.6079242  31.8509342  17.6545413  18.1203201
   1.7768984   6.3732218  58.5936213   1.2112503   7.1429705  58.6549139
   2.4953728   6.5551256  59.1993761  87.3426704  19.0898394  65.9065008
  87.7227383  18.9027952  66.7648697  86.8957024  19.9286150  66.0201025
  44.7643758  20.2859862   8.7897995  44.2934038  19.5156701   9.1076591
  44.0759994  20.8865006   8.5038784  39.9203587  24.8635411  46.6550112
  40.7256126  24.5508099  46.2427092  39.2199373  24.5401263  46.0884047
  84.9072266  62.6779366  55.2497196  85.8550739  62.8107405  55.2636528
  84.6436691  62.9256916  54.3635035  32.9338314  32.1811802  14.1785553
  33.0383588  31.3588173  14.6571281  33.3553363  32.0220644  13.3340194
  18.9697362  26.6278393   9.7564342  19.8024274  26.8449767  10.1756122
  18.4856082  27.4534829   9.7435405  87.6980707  13.2559370  57.1676064
  88.1526204  13.8267111  57.7871466  88.2064268  13.3264421  56.3596249
  89.1644859  44.6169901  73.7481642  88.5989571  44.0485287  73.2254267
  89.3208408  45.3784084  73.1895733  89.1070271  70.0866318  48.0137920
  89.6244144  70.8380222  48.3035326  88.4920216  70.4505634  47.3769569
  74.2667675  30.3868055  62.6889420  74.0487337  31.3131905  62.7914381
  75.1480961  30.3063989  63.0536699  11.9079857  14.1592573  65.8527803
  12.3539953  13.7293219  65.1230764  11.3408833  14.8090052  65.4375076
  80.1449871  61.1538410  65.4057550  79.5281696  60.9582233  66.1110926
  80.3122425  62.0927715  65.4873848  81.3364315  55.0800896  68.1461954
  80.7323074  55.3016043  67.4375391  81.8006134  55.8969307  68.3293390
   9.7946959  75.1669916  13.0504539   9.2147903  75.1950415  12.2894313
   9.2514353  74.8088487  13.7524727  34.7675897  28.1052859   0.1903703
  35.0639774  27.2719557   0.5563667  34.1182519  28.4246428   0.8169534
  43.0445386  46.2293847   4.6839216  43.7515451  45.6822045   4.3419197
  43.1713630  47.0777447   4.2591312   1.3607081  35.9023023  49.7656775
   2.1087798  36.3446140  49.3644571   0.8821162  35.5242205  49.0279531
  29.7261028  78.9569481  34.9996975  29.7346764  79.4712671  35.8069351
  30.5016975  79.2495092  34.5210579  57.2815801  47.4929554  12.7255085
  56.6858293  48.2093556  12.9448059  56.7656995  46.9164975  12.1617820
  66.2806129  43.6287594  61.1783361  65.8043623  43.6448860  62.0084906
  66.4808083  42.7037716  61.0349846  85.3781796  61.4422321  59.5113707
  85.3263187  60.5011511  59.3442917  86.3154221  61.6363287  59.4993591
  70.0610209  78.4004593  39.7178531  70.1251173  79.0525246  39.0200472
  70.7319307  77.7525568  39.5025921  73.0403902  23.5660155  30.8350303
  72.4941350  22.9186137  30.3892543  73.5363199  23.0590470  31.4778831
   8.6093005  44.4430590  54.0174103   7.8582247  44.5206261  54.6057034
   8.2231578  44.2931366  53.1544781   1.5678462  69.7199011  49.3571854
   1.0284766  68.9837551  49.6459723   1.5238627  69.6886635  48.4015083
  47.2812797  47.7125676   8.9826420  48.0632545  47.7214272   9.5346191
  46.6608669  48.2824738   9.4370868  89.1998672  25.0017595  53.0189514
  88.9284611  24.0848136  52.9768038  89.8155117  25.0359130  53.7511063
  83.7863541  38.5407758  69.6219206  84.0620136  37.6335859  69.7532463
  83.5773468  38.8572073  70.5007982  72.0774841  68.8520622  70.5689669
  72.7837181  68.8083553  71.2136030  72.1098375  69.7499180  70.2387524
  64.7033119  60.7073164  70.1016331  65.0679064  59.9051428  70.4755545
  65.0044155  60.7064342  69.1930246  64.9114037  62.0452738  63.6131001
  65.4299784  62.8198290  63.3954430  65.4416466  61.3087559  63.3087730
  33.1971027  15.0060208   5.7700470  32.3348953  15.2426035   5.4281976
  33.8153364  15.4163582   5.1653650  12.5741579   0.3984482  36.3798454
  13.2458497  -0.0265090  36.9132068  12.0380451  -0.3228776  36.0504463
  41.5152740  58.6310577  71.1299658  41.2882710  59.4251633  71.6138029
  41.7513847  58.9422750  70.2561092  39.7106363  13.6062367  48.8795879
  40.1242973  13.6203225  49.7426727  40.3857995  13.9331801  48.2850292
  73.2762023  82.8080424  23.9340904  72.3351785  82.8487094  24.1045406
  73.3420488  82.6041134  23.0011871  19.8444061  62.2611972  34.7282150
  20.0904446  61.5469464  35.3160408  20.1802425  61.9937643  33.8726928
  91.1466639  24.8626215  32.0947101  90.6616752  24.2945845  31.4960888
  91.4410274  24.2784531  32.7935245   3.1936034  59.0187263  57.5893688
   2.4680384  59.6327877  57.7021265   3.9553603  59.5752192  57.4272680
  15.4503803   5.3985094  56.5684891  14.6222286   5.2434515  56.1142302
  16.0685568   5.6177877  55.8713436  83.6901665  25.5372071  62.7431250
  84.1288662  24.9526358  62.1250248  84.1690254  26.3630366  62.6728821
  35.1715900  21.4151986  23.5888221  35.9054996  21.4015038  24.2031696
  34.5348550  22.0070298  23.9894893  22.1134930  75.4625829  18.5004738
  21.6966133  75.0602659  19.2624405  22.7066593  76.1168989  18.8696029
  31.2134247   4.8373674  56.0964251  32.1651440   4.7691607  56.0201550
  30.9949474   5.6533884  55.6463003  39.2711832  29.6453173   8.4479931
  39.0467454  29.7205527   9.3754604  38.5398342  29.1624815   8.0629852
  82.7423191   6.7130780  72.5343323  81.8042660   6.8469024  72.3987579
  82.8309727   5.7716048  72.6826620   3.3562280  13.3259709   8.4281662
   2.7904369  13.6185391   9.1426685   3.5067154  12.3976643   8.6065796
  42.7569105  11.5428288   1.8423584  42.3126270  11.6709740   2.6804664
  42.2208787  12.0230277   1.2112405  55.4642916  24.2956805  60.0541925
  55.9976101  24.4628406  59.2771101  54.5840216  24.5779109  59.8057938
  90.4781151  51.9132280  26.8699813  89.5380497  51.9397306  27.0483637
  90.6649685  50.9887314  26.7068243  49.7961029  78.1643923   5.1101043
  50.2801606  77.4955734   4.6257475  50.4381439  78.5320171   5.7174518
   5.0758704  44.8316956  66.4319754   5.5133017  44.6356916  65.6034470
   5.6659278  44.4863558  67.1019077  57.4108934  42.8777504  73.5888052
  56.6885900  42.3573589  73.2370901  57.7758884  42.3378515  74.2898893
  48.0173542  23.0619700  12.2302272  47.6544429  22.7092726  11.4177444
  47.5191833  23.8642104  12.3866680  13.4879740  57.2885323  69.3082476
  13.6890277  58.2109070  69.4664717  13.0267295  57.2843885  68.4695196
  49.3443252   9.2740138  12.8261116  49.2038156   8.3454783  13.0113533
  48.9540340   9.7288687  13.5724476  83.3659554  21.1783195  58.7981701
  84.1400337  21.2286687  58.2373667  83.5945129  20.5300045  59.4642639
  82.8111669  13.0868982  39.0160036  82.9390832  13.6266398  39.7960973
  83.5737821  13.2730269  38.4682775  53.3491899  49.1825993  17.5829437
  52.5039674  49.6224053  17.4912098  53.2147886  48.5502560  18.2888534
   0.5304583  59.3307114  55.1014376  -0.1452199  59.7498894  54.5685339
   1.3533267  59.6938896  54.7739935  68.1363344  48.8580322  39.1468120
  68.4699297  48.1111956  39.6439862  68.9119005  49.3869591  38.9598227
  36.0446598   7.6049359   9.7901752  36.4966108   8.2241137   9.2169502
  36.1580659   6.7560704   9.3626335   2.3687037  65.9410381  65.3601456
   2.2751673  65.0132513  65.5762339   1.4732131  66.2429571  65.2079058
  24.4430979  84.2681694  42.1819115  24.8827513  84.5116997  41.3672733
  24.0332945  83.4246826  41.9900131  28.9117031  69.4126328  19.9183967
  28.8974075  69.1394361  19.0011146  29.8166542  69.2711028  20.1963737
   5.2467402  61.0863876  39.2043185   4.5674571  61.6227770  38.7955594
   5.4803523  61.5621996  40.0013494  26.8062763  70.1604446   5.6677559
  26.0584621  70.3150924   6.2448909  27.5142841  69.9010929   6.2574032
  36.3028957  18.6445982   6.1657837  37.0957519  18.2528098   6.5319946
  35.5886413  18.1135018   6.5179279  23.3607273   3.1567549  63.5697460
  22.5372105   2.6827311  63.6852551  23.1250649   3.9220404  63.0453110
   4.8038062  74.7542620  56.6682720   5.3387030  74.0897799  57.1025229
   3.9996871  74.7904921  57.1862650  14.1495781   2.3321985  35.3856897
  13.9284210   3.2193827  35.6689334  13.6457996   1.7625879  35.9670591
   1.3664656   8.3560823  56.2905121   1.2341290   7.4153494  56.1733389
   1.4440517   8.6997294  55.4005051  89.3075848  50.9626341  56.9924545
  88.6778259  50.5852890  56.3782549  89.6133614  51.7609072  56.5617657
  20.7885171  21.8504317  15.5938938  21.2900640  21.2291748  16.1218288
  20.3236677  22.3886378  16.2345817  43.1114103  23.0344613   0.2186849
  43.6262418  22.8190167   0.9963539  43.5077526  22.5165732  -0.4819844
  53.0298902   5.3077586  12.8597381  53.0094339   6.0578520  13.4540203
  53.4305192   4.6062548  13.3731678  59.8775197   4.4036086   9.3702247
  60.4894544   4.0410836  10.0107982  60.0273420   5.3484089   9.4038990
  69.3487883  77.1534157  26.2045264  70.1306295  77.1231890  25.6531310
  69.5190954  76.5146971  26.8968153   5.6238898  30.0145602  64.1487885
   4.6738681  29.9093127  64.0975285   5.9719618  29.3282485  63.5795307
  90.6163788  54.3607903  66.9282818  91.3999367  54.9030256  67.0190763
  90.6852150  53.9855051  66.0504150  68.4020330  20.1612790  31.6501644
  67.8052904  20.8813651  31.4462116  69.2405893  20.5878003  31.8266514
   7.6927902  41.0422070  20.1787689   7.8431727  41.7126496  19.5123413
   6.7984487  40.7412178  20.0181701  68.7959623  59.4456291  40.7572842
  69.4134426  58.7144184  40.7403898  68.0308962  59.1241169  40.2802849
   2.6211910  75.3850993   1.4067676   3.0423145  75.7813033   0.6439378
   3.1264620  74.5892771   1.5729025  57.7594186  26.8997462  11.2883117
  56.9940378  26.3775380  11.0480335  57.3949148  27.7199204  11.6210106
  82.1313572  66.8374014  30.2796030  82.5431156  67.1815443  31.0722303
  81.7345810  66.0110760  30.5552554  57.1792985  21.5431673  14.1907814
  58.1284620  21.6649945  14.2124775  56.8251325  22.4306471  14.1343715
  63.4091854  84.3462467  62.9921293  64.3315220  84.2291641  62.7644777
  63.2060337  85.2400780  62.7164078  33.5118915  10.9363682   9.6235016
  32.8308298  10.4224570  10.0574138  33.6958267  10.4567559   8.8158062
  85.4941865  10.4446005  37.8498459  85.6341669  11.0644030  37.1339655
  85.4660341  10.9894728  38.6363316   1.5739020  46.3741922  54.0390396
   1.1794337  47.1423101  53.6259794   2.4237307  46.2806892  53.6086130
  44.8019123  76.5774727  56.1408901  45.5789804  76.6407394  56.6962290
  44.2733383  77.3385239  56.3809776  47.6547958  18.7036879   1.4660909
  48.1052734  19.2418320   2.1170118  47.3544313  19.3280013   0.8056047
  85.9199163  81.1888727   0.8166101  85.2311918  80.7622703   1.3264158
  85.4495117  81.6861661   0.1475408  65.5354500  76.8242550  71.5390253
  65.0063467  76.1012173  71.8759108  66.3700056  76.7459726  72.0012140
  62.4873590  70.9828520  67.5112200  62.3334026  71.8420887  67.1184826
  63.0982447  71.1532021  68.2281828  51.2921047  73.2399178  50.3646135
  50.8507490  73.3297491  51.2092209  52.2202253  73.1643009  50.5862093
  48.5498571  32.3436761  58.8042450  48.0575848  31.8665838  58.1361961
  47.9736948  33.0651402  59.0567446  87.8113290   6.0526728  49.4850826
  87.6909229   6.9877504  49.3196774  87.6924201   5.6407999  48.6292458
  18.7632371  17.4211295  20.5252292  19.6207715  17.8040011  20.7103660
  18.9248229  16.4783986  20.4880455  36.3719916  70.6440020  73.6436462
  36.9344640  71.3430738  73.3102512  35.6660151  70.5774403  73.0006886
  31.3420944  82.6378568  21.8898800  31.4880066  83.0248936  22.7530983
  31.1778908  83.3864506  21.3164070  90.7869911  41.1009884  52.6052427
  91.4287472  41.7652702  52.8564548  90.0300598  41.6020060  52.3014832
   3.7751540  80.6203461  73.0712223   3.0235156  80.9106922  73.5879135
   4.2958888  81.4126778  72.9398012  74.7714235   6.0282357   6.4081886
  74.8428918   6.1614544   5.4630020  75.0059415   6.8750603   6.7878273
  35.8542730  40.9331830   0.7935646  36.0827114  40.0042088   0.7611349
  36.6366674  41.3601906   1.1425045  85.2421761  21.1844754  56.9967318
  85.4577351  21.4261842  56.0959816  85.9910011  20.6661177  57.2913504
  72.5235340  56.7990550  14.1704681  72.5812265  56.1153480  14.8378875
  71.7977497  57.3532458  14.4574192  72.4233770  38.4810162  52.3705673
  72.1849632  38.8204360  53.2332277  72.3599195  37.5302482  52.4613571
  19.8893978   9.4013197  10.4428413  20.6022884   9.8900921  10.8540943
  19.7842170   8.6240513  10.9914997  18.2022314   2.6788401  69.1990757
  17.8949862   1.9814371  68.6198854  17.5744896   3.3901094  69.0714693
  14.2665251  48.0988216  44.6659517  13.5490950  48.7302876  44.7185850
  14.2551764  47.7986097  43.7571192  29.9719287  21.6480525  25.5485466
  29.7897626  22.0782168  26.3840130  29.4190885  22.1079476  24.9168041
   7.1271571  77.9582071  54.7439718   7.9184302  77.8880644  55.2780104
   7.3698100  77.5686646  53.9039707  80.9692955  82.5661945  50.1428509
  81.3385105  81.9697094  49.4916153  81.7244625  83.0449295  50.4845572
  46.7769290  43.9686043   8.8769367  46.8071605  44.3755944   9.7427776
  46.4249088  44.6499665   8.3041694   5.2377280  37.2139168  64.3813324
   5.7109889  37.8626013  64.9023533   4.3206843  37.3298287  64.6299839
  19.9269466   5.5084013  67.4727201  20.7841950   5.4707788  67.8969145
  19.8781948   4.7020411  66.9592619   1.5455969  67.7562714  70.7067108
   2.1067198  67.1839380  70.1834393   2.1510562  68.2260895  71.2802267
  73.9487649  27.7279742  18.9231136  73.0650712  27.6776440  19.2875030
  74.0664102  28.6530097  18.7070110  77.6649019   0.1816725  33.9080858
  78.1981632   0.4188894  34.6667624  78.0648013   0.6532358  33.1773734
  10.0072126  26.1813520  69.7374487   9.2637901  25.6453775  69.4612551
  10.0058298  26.9229101  69.1321993  17.1974238  31.6366959  48.3329678
  16.3404425  31.8803144  48.6829185  17.0356902  30.8304286  47.8430653
  70.9986258  83.0136108  74.1633844  71.8751478  82.6717281  73.9871740
  71.0052490  83.2193851  75.0981808  90.8513853   8.0288099  48.1372309
  90.1684352   7.8625082  47.4874973  91.4584133   7.2951483  48.0398130
   1.7698059  20.9530623  11.2325123   1.5736542  20.6404288  10.3493335
   2.7187500  20.8584101  11.3148430  66.3404636  24.1807055  71.5246391
  67.1774654  23.9568972  71.9315481  66.2056809  23.5007834  70.8645058
  17.1085482  17.7907633  56.6736698  16.7354851  18.0838274  55.8423090
  18.0530005  17.9021524  56.5648842  90.9352398  78.2454395  62.8780890
  90.5159855  78.8913631  62.3095465  91.6171169  78.7365341  63.3364439
  82.8458309  38.2578015  73.2693577  83.7815571  38.2256889  73.0703259
  82.5906277  37.3406887  73.3694124  73.4035349  21.7636061  73.0118465
  73.1168938  22.6463556  72.7777052  73.8397932  21.4368486  72.2249889
  78.7721540  39.0468628   3.3544328  78.7326910  38.2471783   2.8298547
  78.3263399  38.8201745   4.1705778  62.7754259  63.1792450  66.0916424
  62.5698566  64.0297174  65.7034826  63.3814716  62.7732849  65.4718542
  85.8974096  15.5020212  35.4689813  86.3682195  14.8393988  34.9635124
  85.8802816  16.2707304  34.8988819  51.8426275  69.3949366  68.0376530
  52.6406765  68.9108658  67.8254461  51.4437294  68.8978481  68.7518072
  76.4944649  47.2246265  57.4984598  76.8603420  46.4687729  57.0390511
  77.2412777  47.6118946  57.9551029  88.8618088  72.6697493  48.8737679
  88.7815666  72.8835917  49.8033142  89.1404152  73.4881639  48.4629059
  26.9919921  64.2606385   9.2358616  27.0250465  63.5274537   8.6213806
  27.9097797  64.4788964   9.3979099  67.9598665  74.1964006  44.7934484
  68.2616138  74.4953871  45.6512308  67.4733925  74.9402142  44.4380426
  41.2705574   9.0523703  22.9146984  40.8037720   8.5213120  22.2694614
  40.6577072   9.7534544  23.1363418  63.9684583   2.8351004  19.9563816
  64.5065690   3.0515463  20.7178333  63.1666948   3.3438237  20.0772789
   6.4385852  28.7692213  66.8334627   6.7098673  29.6354747  67.1371841
   6.2534770  28.8891101  65.9020185  30.6326656  22.7014421  74.4796181
  29.8879890  22.8483080  75.0628185  30.4558640  23.2573961  73.7207460
  13.5284575  76.7714357  67.8830290  13.2840308  77.6964235  67.9127741
  14.4682463  76.7660856  68.0646944  44.2024117  27.0800089  56.6179609
  44.8725014  26.6671633  56.0731983  44.5543938  27.9483580  56.8136978
  15.8612900   7.7309011  58.9578390  15.9677486   6.7961382  59.1342211
  14.9484568   7.9141401  59.1800880  39.2207508   4.3045115  35.7640982
  38.6012154   3.5814261  35.6663132  39.3235855   4.4054960  36.7103839
  26.9606571   0.2338957  46.4811373  27.1349411   0.3806376  45.5514479
  27.3633747   0.9823870  46.9213724   1.4518603  71.5877199  21.4692521
   1.0634383  72.3148584  20.9827995   1.4173468  70.8481359  20.8625793
  83.3721352  85.7462597  68.6818838  83.9824200  85.2735424  69.2478514
  83.7975502  86.5886211  68.5216475  73.0421354  71.2630398   6.3357856
  72.6076414  71.1017926   7.1733120  72.7278139  72.1256859   6.0650757
  28.5646399  69.3990135  64.1794872  29.2285308  69.0319157  63.5957718
  28.3220824  70.2310371  63.7731171   4.4528894   9.9981569  61.8068647
   5.0663977  10.6565546  61.4807510   3.8880043  10.4768061  62.4135208
  42.1415712  52.5043042   8.2096222  41.7897178  51.6273530   8.3625152
  41.8566610  53.0124600   8.9691188  75.2762604  56.8119812  50.7729197
  74.5509672  56.4471579  50.2658892  74.9558735  56.8238688  51.6748285
  76.0134649  51.1743212  54.1400719  75.4752111  51.8336487  54.5780230
  76.6522312  51.6811037  53.6386871  48.9086418  22.4371122  45.0005198
  48.7358837  21.9970106  45.8328056  49.8622971  22.4287294  44.9185848
  20.8510761  71.1855443  12.1168640  21.1579304  71.4467367  12.9851082
  20.0015717  71.6166314  12.0233658  10.7077273  85.7829857  66.7367697
  10.5555018  85.0265598  67.3032284  10.3945407  86.5304947  67.2460651
  52.1796228  37.9071743  18.0493667  52.7772905  38.0518563  18.7829139
  52.4924756  37.0998795  17.6411560  33.6736299  49.3816979  34.5868328
  34.2307331  50.0040467  34.1193512  34.0025712  49.3940098  35.4856517
  67.3966123  54.0180619   7.1635845  68.3025934  53.7336571   7.2841957
  67.3974325  54.4686444   6.3190677  36.3885193   7.7517962  55.7314682
  36.9211369   6.9565271  55.7409477  36.9844704   8.4426474  56.0209513
  38.4523277  16.4716410  37.7528310  37.5595074  16.5046476  38.0963492
  39.0056591  16.3992094  38.5305309  65.6246568  14.3922741   2.4143007
  64.6706392  14.4438298   2.3557832  65.8279802  13.4789069   2.2126796
  77.8587028  86.1626299  32.5611999  77.6162931  85.3971823  33.0823162
  77.2965690  86.1137637  31.7879894  13.3234386   1.6114878  42.6403904
  14.2194538   1.2764143  42.6069593  13.1474571   1.7320131  43.5735226
  58.6500837  34.5198758   9.1481235  58.5291387  35.4123862   8.8240459
  59.3161108  34.1441948   8.5723617  47.7412321  35.5128176   8.6170223
  47.5229312  35.9553273   9.4372490  48.3652307  36.0981591   8.1877926
  81.7597486  27.5072415  15.9102276  81.4160062  26.7348368  16.3590648
  81.0047914  28.0891211  15.8225944   9.5100050   5.6518435  74.5541334
   9.5355969   4.8174738  75.0225353   9.9887638   5.4854654  73.7421370
  42.7201920  18.8168978  42.9622269  42.1564751  19.2413115  43.6090088
  42.1749477  18.1260275  42.5858831  71.2771034  81.9527054  51.9026423
  71.5149736  82.5040340  51.1571980  72.1141529  81.7150021  52.3014832
  70.2496149  21.5521510  13.7593582  69.7890283  20.8981783  13.2336071
  69.8081972  21.5310032  14.6084335   0.6525000  49.3362808  71.5895844
  -0.0807611  49.7988272  71.9953012   0.4297026  49.3034744  70.6592512
   9.7846469  60.2531385  66.4261389   9.9684390  60.5484962  65.5343866
   9.8731383  61.0410404  66.9624329  63.5810757  56.5459204  51.2496471
  62.7733469  56.1707449  51.6004276  63.3568096  56.8038702  50.3555536
  51.8202497  28.6935599  22.2870948  52.4539091  28.4497960  21.6123417
  51.9955064  28.0903513  23.0093601  32.1816044  36.7501997  33.2220268
  31.4509754  36.2422632  33.5747600  31.8918304  37.0113443  32.3479176
  63.6148263  56.1095269   7.2437504  62.9234411  56.3948853   7.8410747
  63.7927057  56.8765194   6.6994026  84.7418690  73.8651657  71.1561728
  84.1295242  73.2391310  71.5426064  84.1915607  74.5962143  70.8751822
  40.6983547  42.4915289  67.5173521  41.1576634  41.6518091  67.5058413
  40.4016857  42.6146482  66.6156530  66.3422441  64.5464802  23.5689235
  67.1391344  65.0259686  23.7953949  66.4593410  64.3080854  22.6493096
  56.3250162   5.6089385  11.4067295  56.7515756   6.1357148  12.0825794
  56.3964178   6.1365206  10.6112411  29.8628618  35.3969462  11.2474277
  29.4062282  36.1752446  11.5667560  29.4738676  34.6728833  11.7379882
   9.9901545  22.6569605  52.7684259   9.1776192  22.1769881  52.6082802
   9.7059906  23.4905863  53.1433201  16.3059691  66.0807360  61.7197180
  15.4212168  66.4339937  61.6266870  16.4582184  65.5989672  60.9067297
  71.1179991  62.9254008  65.2421808  70.5963738  62.5037242  65.9250593
  70.6850035  63.7662722  65.0949383  19.1866139  56.0901476  46.4501619
  19.3446854  55.5816055  45.6547785  19.3854884  56.9926668  46.2008810
  57.5430298  16.9562709  70.1727438  58.1336164  16.4092648  70.6906509
  56.8019629  17.1259463  70.7543468  18.0870942  83.9481241  60.4328394
  17.4276665  83.5695405  59.8514080  18.2977036  84.7940405  60.0374842
  32.3367834  35.9223604  20.2312255  32.6727748  36.2234139  19.3870044
  32.8309393  35.1233315  20.4145193  36.2065172  33.1811619  50.9668398
  36.7607808  32.5703168  51.4525318  36.6398692  34.0288234  51.0663652
  16.3069371  82.6521222  53.8567066  16.4046458  83.5484369  53.5352993
  17.1365718  82.4631194  54.2951345  41.3259390  79.1297049  49.0781879
  40.5808047  78.5655672  48.8714266  41.5952710  79.4900180  48.2332802
  73.6227437  29.1684075   8.0175712  72.9812690  29.6892734   7.5344112
  73.5723516  28.2985660   7.6212528  37.3976874  12.4610174  64.5208549
  37.8682685  13.1667948  64.9643230  37.0668316  12.8618443  63.7170506
  55.3394767  37.9234161   6.0122993  55.6671187  38.1497740   5.1418712
  54.4825312  38.3468323   6.0632351  27.2923481  24.4324215  15.2028396
  26.9223839  25.1182993  14.6470287  27.9438281  24.0013250  14.6496990
  11.0907439  33.4359861  71.6195393  11.6290644  32.6497246  71.5288353
  11.5810183  33.9935471  72.2236824  58.3751154  12.8958428  54.9234438
  57.5957918  12.3954737  54.6815395  58.8454819  12.3268664  55.5327559
   8.6318940  15.5339909  67.9209948   7.9088444  15.7754207  68.4999132
   9.3335545  16.1447215  68.1466341  69.5844126   9.6084642  58.3873653
  69.2545938   9.6653843  59.2841434  69.6986675  10.5192327  58.1159306
  73.1258304  71.1112989  69.6485996  73.7859924  70.6830872  69.1035748
  72.8443272  71.8677081  69.1339779   8.3857517  65.8294710  16.9786575
   8.8747196  66.6508397  16.9286468   9.0127449  65.1603802  16.7040088
  13.7812880  76.0954977  61.0138321  13.2801560  76.8910534  61.1932516
  14.2612723  75.9268130  61.8246317  87.3111982  85.5823801  40.6869793
  87.8465242  86.1980478  40.1863670  87.0733638  86.0620036  41.4804697
  63.7005043  14.8615706  34.0414929  62.7508926  14.7427833  34.0223789
  63.9135504  15.2266502  33.1826806  43.5499907  19.1500020  55.9126663
  43.0678129  19.9765015  55.9378290  43.6748838  18.9174640  56.8327522
  48.5676241  14.5291162  70.6458664  48.0067205  13.7535775  70.6585741
  48.0932283  15.1589441  70.1031923  76.3813230  27.7935215  37.0840290
  75.8632060  27.0880660  36.6965702  75.8102294  28.1702598  37.7534702
  43.3411741  22.6169515  67.8999996  42.4562550  22.3520732  67.6490116
  43.2811451  23.5639691  68.0256414  52.7905342  16.8422302  14.0407016
  53.1958267  16.7912968  13.1750324  52.5172635  15.9446963  14.2304065
   7.0214872  47.8668236   2.1795156   7.2083979  46.9282212   2.1615865
   7.2773199  48.1452276   3.0588749  15.5789069  81.9842587  62.4823523
  15.7979992  82.8913660  62.2693062  15.3740672  81.5826798  61.6379547
  38.7022614  21.0588813  65.8048677  38.3318114  21.3088846  64.9584055
  38.2375550  20.2563739  66.0420656  65.4459640  29.9598225  12.2833469
  65.9848114  29.3197032  11.8184593  65.6565043  30.7964178  11.8686035
  72.1682889  55.5479670  54.9809265  71.3249512  55.3320290  54.5829535
  72.0266218  55.4315020  55.9203959  24.0912652   5.2345806  20.2673388
  24.3543863   4.3662882  20.5724096  23.3000994   5.0777650  19.7518802
  12.3768835   6.1021336  15.4452923  12.5462751   5.5068167  14.7151306
  13.2378225   6.4532598  15.6727245  27.3412514  12.3530650  42.8604031
  26.6736746  11.6960299  43.0575800  28.1678581  11.9339728  43.0998087
  51.3649866  47.6036491   0.3731229  50.8055755  47.5248705  -0.3995869
  50.8358880  48.0931230   1.0029628  47.6073512  35.2541425  19.4670894
  47.7494654  34.5941498  20.1456478  47.1803841  35.9790196  19.9236896
  58.6404129  29.5672878  23.7887600  59.0289709  30.4418143  23.8101509
  57.7926394  29.6922370  23.3622577  27.1503094  65.1050449  61.0953236
  26.7730883  65.0561524  60.2169466  26.6574887  65.8015419  61.5292025
  32.2858313  75.3261233  44.1196489  31.9680241  75.7587911  43.3271646
  31.5387562  74.8137332  44.4287920  10.2690819  71.7915989  32.5300026
  11.1996392  71.8848575  32.3260403  10.2049378  72.0078064  33.4602547
  60.0601673  21.4919591  47.9035187  60.8099937  21.7953134  47.3916864
  59.8184824  20.6570673  47.5025511  21.5210605  14.3850267  54.0643835
  21.3214493  13.4813273  53.8200188  21.8526220  14.7831249  53.2595110
  66.7621156  16.3911136  14.3421390  67.5100681  16.9884380  14.3403175
  66.3355585  16.5388497  13.4980705  89.4164201  23.0607303   9.9010875
  88.9965745  23.7924775   9.4488647  89.1722461  22.2903331   9.3881633
  35.5531168  12.1848261  74.0695286  34.9478984  11.9867456  74.7841644
  35.0325179  12.0665276  73.2750368  34.8772219  50.6732274  69.3728495
  34.2422894  51.1577106  69.9004555  34.9771241  51.1967827  68.5777760
   5.4632858  46.8128634  36.4000034   6.1643151  47.2980977  35.9648752
   5.7419447  45.8981873  36.3558269  37.1766806  28.8959646  64.0863514
  36.2966633  28.7117267  64.4147635  37.7574539  28.4102511  64.6720266
  33.9459922  32.1429451   5.3387859  34.3528056  32.1964439   6.2035873
  34.2473867  32.9290112   4.8832729  33.8386965  25.7805443  70.4413414
  34.3071246  25.1803732  69.8611689  34.3114114  26.6090012  70.3611565
  55.0716039  31.4665910  13.0373123  54.1233369  31.4663180  12.9068496
  55.2823898  32.3732027  13.2606056  83.2043905  78.3624322  74.1221523
  82.4019070  78.8490845  74.3103552  83.4809394  78.6798186  73.2624912
  57.3053885   4.0900421  21.8790722  57.2656775   3.1420192  21.7529488
  56.6630697   4.2673561  22.5662541  71.7313835  37.0327028  19.4786194
  72.6253911  36.7205306  19.6183517  71.1767885  36.3067909  19.7644737
  43.3515501   6.1822265  72.8051090  43.3421564   5.3507125  72.3310518
  43.7894344   5.9814304  73.6322498   9.9494628  38.2880665  64.7098303
  10.9033803  38.3564354  64.7498322   9.7571496  37.4161936  65.0549269
  62.2824812  19.1283369  67.2877026  63.0050468  18.6148262  66.9265413
  61.6333771  19.1558409  66.5847492   3.0671004  67.9617346  67.1568727
   2.1692494  68.0712391  66.8436527   3.3493117  67.1250547  66.7873430
  32.7023295  54.9689866  62.7621794  32.7267626  55.9001804  62.9824305
  33.5961989  54.7642375  62.4877548  15.6999425  63.3660818  28.3019948
  14.8735264  63.3696652  28.7849545  15.5381421  62.7902318  27.5547004
  31.3028315  58.9731027  26.7452812  31.3122967  59.7592140  27.2913337
  30.6419686  58.4097410  27.1479177  43.8545008  84.0510146  65.7717276
  44.1312749  84.6301953  66.4817810  43.4922130  84.6398743  65.1097441
  10.7143533  16.0551512  47.2884464  11.1744595  16.0894895  48.1271124
  11.4102948  16.0863316  46.6319990  48.5396147  27.4277616  56.4528227
  48.7661457  26.7637348  57.1039629  48.1861210  28.1548882  56.9652271
  74.6509811  36.5126272   6.0001400  74.5778200  36.9347342   6.8561199
  73.8475629  35.9989884   5.9169223  14.3022614  24.0574475   5.5769756
  14.3728809  25.0119801   5.5875423  13.6639862  23.8569125   6.2615421
  32.4126816   1.3846897  69.3942785  31.8931532   1.5347421  68.6044645
  31.9091821   0.7417242  69.8935938  32.1214703  78.8729174  65.7046556
  31.6188172  79.0694321  64.9141169  32.8499869  78.3334286  65.3973436
  10.0475578  60.3283497   3.4839370  10.0658255  59.6713265   4.1797950
  10.6309109  59.9796315   2.8098991  50.9106445  10.9540689  47.0118856
  51.3148737  10.3664172  47.6502371  51.2922144  11.8114471  47.2003937
  39.8365525  69.4981862  67.6607561  40.6356886  69.4366659  67.1374750
  39.3521956  70.2273191  67.2734642  12.3722820  24.2801686  45.3083065
  12.4895172  23.9133187  44.4320038  12.1581917  23.5257193  45.8571270
  23.4183359  25.1198840  51.9841290  22.9275036  25.0955844  52.8055477
  23.9155054  25.9367561  52.0262766  56.8499565  10.7617450  74.4782734
  57.7132082  11.1402595  74.3116808  56.5817070  10.3967130  73.6350489
  82.8586837  57.5725528  13.4382751  83.6712524  57.0693453  13.4907367
  82.7424737  57.9321738  14.3177059  30.7534647   2.1879698  55.2022314
  31.1508226   1.9783935  56.0474634  30.7128739   3.1441900  55.1871681
  69.5183321  56.7130323   5.9749630  69.5185038  57.2663470   6.7560318
  68.5921356  56.6017946   5.7604435  52.8605747  19.7996306  57.5435543
  51.9453526  19.8220170  57.8230143  53.3284855  20.2948403  58.2159090
  17.8520182  81.5377871  57.6341105  17.5047377  80.7440741  57.2271061
  18.4329060  81.2183980  58.3246088  12.1270445  68.8942481  68.8263416
  12.5472525  68.6896850  69.6616888  12.4448565  69.7699667  68.6064720
  50.5742931  29.7724652  65.7591200  51.5233898  29.6738029  65.8346939
  50.3243542  29.1611171  65.0662851  41.5577841  22.9219246  61.6593027
  41.5161324  21.9949079  61.8941164  40.9659386  23.0064774  60.9117699
  35.6579590  16.1108863  68.3604050  36.5089774  15.6895471  68.4806967
  35.7836676  17.0020115  68.6864805  43.9878559   6.0080397  49.8521042
  43.6959362   6.6242296  50.5239153  44.1910791   6.5575367  49.0951490
  32.2685603  80.9395851  57.9761553  32.5027159  81.7290528  57.4881554
  31.9142750  80.3453572  57.3146343  43.1375313  15.5662060  54.8083162
  43.5475111  16.1275172  55.4664040  43.7130594  14.8034298  54.7519970
   3.3801106  83.7667402  46.0768986   3.7967590  84.5752225  45.7785845
   4.0510729  83.3314351  46.6027832  61.7453929  19.0813669  25.2977302
  62.2815367  18.2914718  25.2281120  60.9035155  18.7708100  25.6309440
  83.4998841  55.8507944  54.9850893  83.6625166  55.1249886  54.3826008
  84.2906685  56.3875628  54.9324369  22.2800330  79.6216948  57.3243761
  22.3802069  78.9650483  58.0135870  23.0094651  79.4554151  56.7272902
   7.2480348  83.5959668  38.6931777   7.4234084  82.9881901  39.4115663
   6.5940598  84.2000594  39.0447736  35.3404760   8.5972136  71.1660290
  36.2242460   8.9107925  70.9740639  35.1666665   7.9421520  70.4900694
  76.0768557  14.3521905  39.8046947  75.7753468  14.5027709  38.9087892
  75.3571081  13.8801563  40.2234793  52.9633018  17.5932582  27.0915916
  52.5356170  18.4471973  27.1556690  53.8380643  17.7357682  27.4531295
  37.9106283  20.7645059  60.7211065  37.2503424  21.3909006  61.0175610
  37.5825334  19.9142098  61.0136509  88.3054611  48.1734385   4.9555280
  89.1598770  47.9858311   5.3441312  87.9545089  47.3139863   4.7222736
  71.7150164   8.2306451  62.2008657  72.5354195   8.1712508  61.7113352
  71.9784784   8.5141557  63.0763340  56.7523193   0.8486138  57.6415730
  55.8373690   1.0916629  57.5000763  56.7380190  -0.1056446  57.7151823
  37.3064690  52.7773543  11.9979503  37.1665936  53.7011381  11.7898872
  38.2101612  52.6062914  11.7327812   6.9770125  58.4783579  31.5274549
   7.2052673  59.4069983  31.4855146   6.0240630  58.4697605  31.6171670
   7.2786001  82.9102678  65.4479122   6.4420608  82.5077085  65.6811190
   7.6058725  83.2758091  66.2698030  83.0423471  52.9151907  26.2399414
  82.3042175  53.4751435  25.9994342  83.6693593  53.0252596  25.5251243
  74.5207521  25.1152535  13.7336090  74.9924251  25.9446033  13.6565521
  74.1710826  25.1204725  14.6246364  77.6796075  40.6232982  20.0392940
  77.0759221  41.3443061  20.2180221  78.5013362  41.0524376  19.8008945
  28.4503869  77.2528983  59.1844559  28.3961419  76.9025506  60.0735807
  29.3884019  77.3575927  59.0250874  30.3732279  58.7722660  57.3484659
  29.8473958  59.4152928  56.8728113  31.1839465  58.7055160  56.8439770
  28.3915914  27.3946544   4.5729425  29.1151216  27.3488339   3.9479330
  27.6049068  27.4108478   4.0278747   3.2190541  67.5555695  54.9591637
   2.3737720  67.8729797  54.6413946   3.3240727  66.6987933  54.5454788
  73.3156176  77.8155930  70.0070429  72.5123007  77.6028038  70.4820538
  73.1125982  77.6182772  69.0926695  24.8570423  21.5232118  21.0459163
  25.1206188  20.7442673  21.5358188  23.9976196  21.7501028  21.4010837
  47.9706546  67.8365096  11.1085251  48.0650290  68.5627826  11.7248466
  47.5600656  67.1397193  11.6205146  23.0866672   4.0622504  11.3110950
  23.0836584   5.0164158  11.2349918  23.1294776   3.7500222  10.4072597
  55.4552698  19.1986799  50.7732916  55.5567312  18.3164549  51.1305285
  54.6671486  19.5392728  51.1964846  72.2317457  32.3968935  47.1913385
  71.5814495  33.0992413  47.1985006  72.0366573  31.8979263  46.3981199
  15.8087090  66.1313857  52.4951649  14.9380854  66.5230704  52.4256754
  15.7777575  65.3736473  51.9111204  30.3006152  84.7948457  39.8293304
  30.1051596  83.8590951  39.7803473  29.4720963  85.1994486  40.0863981
  85.9556675  13.5908985  50.4205036  85.2539253  13.9645600  49.8874235
  86.5165329  13.1351781  49.7928286  68.7304112  33.5011991   5.1187971
  67.9909655  33.3717682   5.7126835  69.2347738  34.2114474   5.5155304
  39.9182916  20.9538198  47.0353603  39.7279406  21.1046982  46.1094904
  40.0622654  20.0096869  47.0995188  72.2290203  49.6937772  14.0706852
  71.4546605  49.2152556  13.7746837  72.1120664  50.5776276  13.7223079
  64.5173550   3.2566038  58.7055016  64.7278070   4.1351518  59.0218782
  64.2041588   2.7913430  59.4811773  90.3614421  53.7184645  72.6506519
  90.4915280  53.5656525  73.5865784  91.2312026  53.9458133  72.3219252
  89.7199364  60.2114249  57.7534294  89.8086138  60.3466655  56.8099880
  89.4913073  59.2861916  57.8423119  60.8980179  19.9597216  54.6629143
  60.8555412  19.1240656  55.1277876  61.5495348  20.4690814  55.1449013
  68.0736542  35.5530477  57.4520874  67.3267365  35.7526302  58.0164576
  67.8604078  35.9687161  56.6166401  30.2048234  66.8541873  51.1117315
  30.9257773  66.6713692  50.5092049  30.2051619  67.8069735  51.2035370
  18.2866991   9.1112095  53.1434536  19.0501153   9.2366916  53.7070847
  17.5370336   9.2051888  53.7311602  20.2862671  70.5622054  57.3628044
  20.4874018  69.6315921  57.2641468  20.8264760  70.9953798  56.7019224
   5.1781321  12.1610773  55.6653070   6.1253971  12.0808756  55.7770586
   4.8205766  11.3769448  56.0818672  12.2304087  29.9233993   4.2845848
  12.7201490  29.3193801   3.7264183  11.7749243  30.5002745   3.6714151
  11.0500889  73.3212408   4.4862917  11.7596607  73.2046827   5.1180723
  10.3407126  73.7164744   4.9930504  37.6650027  70.6896354  61.6137266
  38.0047349  71.0082556  62.4499655  37.7870825  69.7410012  61.6514158
  58.6779976  13.0199564  28.5446954  59.5424175  12.8067517  28.8962054
  58.0712986  12.8020060  29.2522573  63.0824423  18.0390429  73.9380789
  62.8892279  17.3295105  74.5508289  62.2278547  18.2956159  73.5915518
  16.3014536  66.8423088   9.8779895  15.4724960  66.4797123   9.5656040
  16.1089544  67.7633532  10.0536373   2.3871117  67.0427164  10.0444915
   2.1300774  66.7379816  10.9147194   3.3323841  66.8963178  10.0089767
  89.5482445  35.3153419  70.2540493  88.7632465  35.4605770  69.7259283
  89.2326927  34.8515534  71.0296488  59.0791317  21.0099300   1.8350055
  58.7917015  21.3066348   2.6984766  59.0393444  21.7936858   1.2869384
  86.2594933  53.8567925  52.7682400  85.8816523  53.0886007  52.3400402
  85.7876916  54.5984770  52.3893785  24.6481514  17.5415075  21.6681886
  23.9042211  17.3830545  22.2492981  24.8565173  16.6804802  21.3056326
  38.3889464  82.5184370  53.4908199  38.5145787  82.5099237  52.5419378
  39.0533379  81.9162659  53.8257980  39.8206925  30.2533579  45.6092358
  40.4591942  30.4115367  46.3045931  39.1847301  29.6540093  45.9998369
   6.9381813  73.9790822  47.6611280   7.0076231  73.9952994  48.6156654
   6.9867805  74.8991955  47.4017811  79.2785759  77.9205883  72.8943300
  79.2204840  77.0945264  72.4142504  79.0047200  78.5849071  72.2619438
  32.0653801  60.3817507   6.1333206  31.5992909  60.1274343   6.9297626
  32.2701149  61.3080319   6.2610653  45.5651787  57.1770740  71.8858528
  45.5964402  57.7655388  71.1315584  45.3945187  56.3137890  71.5092325
  17.5489533  26.5606904  56.9737768  17.6189291  27.3048759  56.3758421
  16.6378582  26.2772131  56.8977594  71.7219114  16.8793750  22.6109982
  71.0274458  17.4152124  22.2278142  71.2833071  16.0695016  22.8716946
  63.0546376  71.7994364  36.4640644  62.2581455  71.2929877  36.6232517
  62.8451868  72.6796826  36.7763641  80.9394712  72.9280377  44.6849060
  81.8800731  72.7889551  44.7951651  80.8743782  73.5921145  43.9986134
   3.6998824  62.4432255  41.5887022   4.0223721  63.3381272  41.6953993
   3.1666735  62.4738980  40.7943583  68.3838698  71.1283000  18.4951809
  69.0365716  70.4346593  18.5904434  68.0808088  71.0494216  17.5906589
  63.2970810   8.6808383  65.7370949  63.5406685   9.3015897  65.0503874
  62.6029921   8.1506443  65.3454685  29.6582726  84.9607429  52.0045424
  29.4227961  85.6777829  51.4157820  29.4547061  85.2922697  52.8791189
  12.1931389  71.8155862  68.4018612  11.9681100  72.3982120  67.6765060
  12.8438595  72.3027147  68.9073277  47.1194506  16.7616558  36.9644499
  47.5552702  16.1230767  37.5288177  46.5305376  16.2383091  36.4208341
   8.7642578  63.8182903  58.3394957   8.0419854  63.3918811  57.8782701
   8.3382181  64.3526937  59.0096712  90.4990215  83.7297609  50.5598402
  90.7905717  82.8181417  50.5463839  91.0869737  84.1601188  51.1805964
  27.3556828  32.0975351  66.0979128  27.4900007  31.2183237  65.7440996
  26.5183091  32.3787475  65.7291889  86.2140771  69.0047821  16.1287334
  86.4715787  68.2573374  16.6684082  86.9974300  69.5535119  16.0901382
  12.7622156  52.3957952   8.0417183  11.8356018  52.1576085   8.0119827
  12.7766686  53.3287521   7.8281429  47.2786951  19.8315513  44.1159105
  46.8838358  19.8666596  44.9871635  47.0420074  20.6663871  43.7118578
  75.9636470  35.3181269   8.9793041  76.3137409  36.0939231   8.5413387
  76.2073966  34.5899816   8.4077957  72.0830822  11.8185246  63.0138445
  71.2329626  12.2012269  63.2307959  72.0931530  10.9801018  63.4755564
  10.2776984  68.2906652  51.6739511  11.0948065  68.0482388  51.2382984
   9.8706893  67.4548400  51.9019270  69.1033459  14.0074039  68.3111715
  69.1412830  14.8517799  68.7604141  69.0428114  13.3632755  69.0166235
  49.9999189  18.7922072  65.7043791  49.7630835  18.5074043  64.8217535
  50.2434921  17.9858255  66.1589718  78.0018806  19.5184803  41.5346813
  77.4292183  18.9848447  40.9837580  78.1260252  20.3274083  41.0382414
  78.1320484  66.9367255  34.4836903  77.7041109  66.4879514  35.2128696
  78.1251318  66.2971283  33.7715816  70.9936094   4.2655781  44.1869736
  70.7586813   3.3394969  44.2454052  70.9685659   4.4603813  43.2501411
  52.9740473  50.8753755  12.5112846  52.8829738  50.7751646  13.4588554
  53.0550643  51.8196382  12.3769882  76.0701847   0.3986742  60.3023863
  75.1486635   0.2160519  60.4859161  76.5243435  -0.4140085  60.5249166
  67.9209229  37.4994280   9.7121265  68.8179537  37.2285058   9.9074962
  67.9812333  37.9306313   8.8596847  34.6601319  10.0470614  24.5732665
  35.1859927   9.4197291  24.0771270  35.1901770  10.2465189  25.3449535
  57.5527143   1.9909796  43.2902670  58.2058954   1.2928641  43.2431030
  57.3027229   2.1470051  42.3795605  79.2124435  63.0517538  17.0238712
  79.6434423  63.8827475  16.8240669  79.2320081  62.9954227  17.9792144
  15.4804543  84.7873755  44.5042896  16.3422755  84.4834676  44.7891283
  15.1488236  85.2953027  45.2447367  79.5405765  83.1273300  60.4155779
  79.4689746  83.2222370  59.4657898  78.6675055  82.8521062  60.6952763
  39.0273142  10.3417289  65.3907299  38.7935805  11.2128747  65.0702524
  38.3002305   9.7826904  65.1167679  77.7290841  51.6796102  23.3188751
  78.2997295  52.4324532  23.1645229  78.3044883  50.9201648  23.2273319
  73.7377834  19.4375944  54.6422291  73.8580036  20.1345682  55.2872133
  74.0907288  18.6553788  55.0662613  28.9821510  62.2969135   7.9877975
  29.2015820  61.6680702   8.6752823  28.8813667  61.7640289   7.1990612
  17.4639015  48.9266940  13.1422546  17.3607426  49.0782633  12.2027805
  17.0425491  48.0811068  13.2961300  72.4356604   8.7253940  53.7247801
  72.5778294   7.9891109  54.3196774  73.1613207   9.3228883  53.9054775
  58.7076426  17.5630486  48.4464693  59.2592239  18.0033314  47.7998352
  58.9089441  16.6333640  48.3397198  10.6990698  78.4526933  50.8012486
  10.1468352  79.2244990  50.6763983  10.3131035  78.0008734  51.5516615
  66.9766995  74.4006666  14.0220764  67.6355692  74.7797044  14.6038463
  67.2658607  74.6432908  13.1424453  79.6238041  32.1690488  68.4997416
  80.1622772  32.9106998  68.2236433  79.6166658  32.2209144  69.4555092
  49.1252574  55.1038929   2.4826029  49.6351680  54.7150608   1.7719438
  49.6658465  54.9773415   3.2623317  15.4860950  34.2931199  51.4155722
  14.6447575  33.8657165  51.5759134  15.6947553  34.7287965  52.2419357
  84.7135682  80.6903518  38.0072737  85.4273052  80.5621685  37.3824692
  83.9658875  80.9468950  37.4674702  50.5605868  77.2782380  62.7372599
  51.3331488  77.1572948  62.1852112  50.8604411  77.8449185  63.4480333
  56.0181761  24.4694686  65.8439207  55.3571558  24.5597625  66.5303087
  56.4482021  23.6356330  66.0337305  52.6515627   7.1814454  29.0933347
  51.7940187   7.1451521  28.6696219  53.1819487   6.5437269  28.6155963
  89.7861047  73.7113739  12.9778576  89.3904276  74.5801486  12.9078376
  89.3986626  73.2130326  12.2582901  36.7806959  10.0992680  48.0883455
  36.6571307   9.6241128  48.9100456  37.6997900  10.3663099  48.1019688
  34.5998144  23.0338907  55.5358124  34.0522122  22.4763298  54.9831009
  34.2612243  23.9179444  55.3942490  77.4941226  57.5670298   3.2137134
  78.2891771  57.5553807   2.6808145  76.7804071  57.6187058   2.5779703
  90.3211117   2.2145046  55.1692295  89.6067333   1.6632371  54.8498440
  90.4205132   1.9687051  56.0889769  46.2215948   3.4885323  55.5376816
  46.9343519   3.7002003  54.9348545  45.5972719   4.2063460  55.4318619
  37.3265648  23.5415125  54.4601774  37.7662921  22.7461886  54.1596222
  37.0713210  23.3477950  55.3621483  27.5964001  76.8371327  52.7140665
  27.3960618  76.7445804  53.6454773  28.5431079  76.7070980  52.6586342
  66.0957667  15.7663496  41.3827636  65.4176566  16.3704952  41.6851070
  66.5765664  16.2592753  40.7178714  59.0305090   2.1744315  51.3027811
  58.1596136   2.5702178  51.3362837  59.3852949   2.4474657  50.4567242
  79.3319246  40.0553306   8.5163524  78.8271305  40.2032246   7.7166393
  79.8448726  40.8558350   8.6272934  36.7435837  18.3086908  55.2423906
  36.9087243  19.1774905  55.6086540  37.3459768  18.2426679  54.5014524
  52.6413059  20.1213288  38.7342691  53.2797289  20.7250690  38.3546066
  52.0390320  20.6843162  39.2206240   9.0418510  32.7815839   4.8491743
   8.6019640  31.9342538   4.7801521   8.8015251  33.2423927   4.0453508
  35.1642541  70.9813918  66.8718195  34.7673205  70.6271256  66.0761023
  35.0001982  71.9231368  66.8224955  37.9145793  78.1700248  74.2244577
  37.3535088  77.3951132  74.1938066  37.4782160  78.7574191  74.8415375
  85.1008911  85.8444101  38.9440584  85.6741614  85.6031955  39.6716619
  84.7216601  85.0151838  38.6528540  55.9310862  18.7868913  21.3893821
  55.9423038  19.3002804  20.5815818  56.4176580  19.3195470  22.0184734
  29.8813132  61.8423153  65.9526920  30.5740813  62.4565578  66.1956120
  30.0745705  61.6103412  65.0443554  22.1371535  54.8423005  61.2768221
  23.0647877  54.8873139  61.5085506  21.8557147  55.7563044  61.2365532
   4.4331198  52.5003787   7.8689411   4.6278935  51.8929257   7.1552875
   4.7790175  52.0700648   8.6508682  48.1586456  37.2711110  64.7058249
  48.1074333  36.4843345  65.2485895  48.4028482  37.9673100  65.3156662
  31.1922550   7.4446529  55.3109598  31.9269347   7.8762358  54.8748255
  30.4380417   8.0011731  55.1168489  39.0789345  58.7317706  23.8610506
  38.7326554  59.1255403  24.6618438  38.6400059  57.8831721  23.8022351
  80.6447002  61.3534995   5.3265646  80.4374954  61.2739309   4.3954542
  81.5973398  61.4429625   5.3531435  62.5042483  58.3072456  14.8392322
  62.6340672  59.0395041  14.2365863  61.5779039  58.3531555  15.0758865
  66.6705036   1.2669751  56.9012022  67.5327873   1.6421650  57.0798826
  66.0839891   1.7128652  57.5122786  31.9546247   7.1889496  68.5659170
  32.4384046   7.8308678  68.0461740  32.5904679   6.4955920  68.7425232
  44.9767876  36.6281891  67.5715208  44.4877481  35.8533692  67.2945213
  44.4688702  37.3656082  67.2331905  35.1334929   2.7190492  51.4107609
  35.0024676   2.7984959  52.3556137  35.0381017   3.6121315  51.0797977
  76.1137659  75.3791786  54.9106503  76.9533462  75.1104666  54.5376492
  75.4739494  74.7918690  54.5082426  33.7752104  15.4885793  20.7280779
  34.6727896  15.3455210  20.4278874  33.8156748  15.3572714  21.6753650
  49.3000317  22.7597499  70.1811075  49.7579956  22.2760725  70.8685350
  49.8202276  22.6055264  69.3925381  25.8380842   6.5394115  67.8870869
  25.7212377   5.6338608  68.1744099  25.3319335   7.0566744  68.5135698
  55.0563574  27.7148414  67.8562307  54.9909019  28.1617928  67.0123243
  55.8758163  28.0346036  68.2336903  84.3314953  85.1198287  34.6989989
  85.2558894  85.0346870  34.4655848  83.8792152  84.5153769  34.1105151
  29.3031386  77.7735806  43.0288887  29.8920611  77.0517124  42.8090906
  29.6891812  78.1679810  43.8109732  36.2943295  76.3096024  70.7120848
  36.3096455  77.2325421  70.4587460  37.2002724  76.0180427  70.6096363
  53.6184788  12.4057138  73.2684660  52.9361391  11.7387652  73.1921768
  53.9920282  12.2677231  74.1388988  62.1002504  46.9167178   5.3115633
  61.3480088  46.3768091   5.0689438  61.7162582  47.6942148   5.7168796
  66.9577953   9.0574869  13.1857898  67.6979610   9.2203935  12.6011207
  67.0704171   9.6888312  13.8963916  19.3704346  85.6296428   9.8228955
  19.1308097  85.9287343   8.9457661  18.5551098  85.6746169  10.3223491
  12.9866675  83.3306406  43.9986229  13.3903388  82.8504671  44.7216129
  13.4385565  84.1744100  43.9896011  20.2286509  82.3206312  39.3717647
  20.5203179  81.4611168  39.6757340  19.3955687  82.4635304  39.8209667
  59.7477579  30.9406281  52.9589987  58.8992453  30.6131101  53.2573080
  59.5311975  31.6382504  52.3404074  39.7671107  73.2652415  72.0376205
  40.4226140  73.1514443  72.7258062  40.2464799  73.1144453  71.2229443
  72.6675435  58.5647877  26.3722732  72.8731128  59.2596837  26.9976452
  72.0194217  58.0222698  26.8215492  56.9158649  20.1741791  44.6852160
  57.4223280  20.8874202  44.2966127  56.6203022  20.5212069  45.5269098
  50.1313475  71.6317821  35.3935695  49.5045355  72.3114980  35.1459455
  50.9147147  72.1135808  35.6589842  71.9006062  20.5868864  58.7911034
  71.2836313  21.1464190  59.2628050  71.6749859  19.6977806  59.0646315
  77.0245906  27.7466865  16.4830616  77.6977321  27.2045752  16.8944385
  76.4297983  27.9734965  17.1979168  63.5253021  66.5455945  18.0830219
  62.8964087  65.9539422  18.4961536  63.5840889  66.2388190  17.1782234
  48.9785385  21.0015368  54.6653366  48.3710480  21.4850616  55.2251482
  48.4445763  20.3107309  54.2730284  84.9236843  24.7951468   7.3602321
  84.6351358  24.8519548   6.4493301  84.5992156  25.5996450   7.7648761
   6.2829021  67.8090514  45.6840658   6.2043027  68.7596107  45.6035042
   6.9197205  67.6800943  46.3869619  55.2268553  12.3835635  25.7754564
  54.7843266  12.9016769  25.1031756  56.1510181  12.4085307  25.5273890
  87.8445907  63.2655550  55.7683849  87.9072113  63.3392144  56.7206907
  87.8437419  64.1709209  55.4576731  42.6865101  28.1099224  53.0609894
  43.3075285  27.3843145  53.1247044  43.1916046  28.8240266  52.6721859
  34.9385905  34.1633368  71.8799829  34.5774007  35.0474477  71.9441748
  35.7282805  34.2652106  71.3487196  87.9522843  55.1438547  46.2436676
  88.2545919  55.5748678  45.4442501  88.2922931  54.2514969  46.1779070
  24.0538144  18.5074162  62.5440836  23.2323074  18.3983123  63.0230951
  24.2632771  19.4368446  62.6363945  29.5579576   9.2744994  54.2014360
  29.3543100  10.2076936  54.2639494  28.7930369   8.8906145  53.7727642
  24.1882372  16.0673714  67.8788567  23.6809349  15.3055680  68.1590891
  25.1010513  15.7951200  67.9730988   3.3254460  67.1933902  45.4084444
   3.4410981  67.9208303  44.7971439   4.1950301  67.0555998  45.7840347
  59.2458200  18.0738580  57.9150629  58.9891481  18.9508402  58.2001114
  60.1941538  18.1283510  57.7970552  60.6997010  74.9261268  14.7894790
  60.6105348  74.1351851  14.2577961  60.0988599  75.5537303  14.3878200
  33.9017940   9.4595844  58.0232763  33.5622692  10.2029192  57.5248671
  34.5989895   9.8317212  58.5633326  35.8675030  66.9664956  48.8103104
  35.0886515  67.1904982  49.3196678  36.2054709  66.1731935  49.2258596
  40.5746440  69.8934055  44.7206879  40.9178952  69.3505622  45.4304266
  39.7525815  70.2440704  45.0634480  13.7575448  57.8589821  25.8645058
  13.4435606  57.2956610  26.5718365  14.7032619  57.9120636  26.0024643
  18.2662562  84.5993181  44.3309402  18.8969735  84.5838105  43.6110878
  17.9135302  83.7099377  44.3595314  25.8521438   4.4902807  49.1272783
  26.1413264   3.7052128  49.5923328  25.6535769   5.1197922  49.8204756
  31.1579159  72.7490247  43.2608223  31.1325625  72.1213520  42.5385904
  30.2975730  73.1682647  43.2441092  37.7092770  73.3265937  14.8792803
  37.8505305  73.9719261  15.5719745  36.8784550  73.5828997  14.4789457
  46.0670090   4.6323442  51.2901592  45.3234434   4.5953295  51.8917990
  45.7107592   5.0244564  50.4929352  14.2944396   7.1354860  72.8199434
  13.9830959   6.2349719  72.7284479  15.0010300   7.2109383  72.1786404
  78.0048374   3.7929142  57.0284700  78.0268089   3.3092853  57.8542137
  77.5265077   4.5961505  57.2340012  25.5804328  75.8270205  66.7414331
  26.1872033  75.2518190  66.2753725  25.0929574  76.2727065  66.0486412
  13.4972790  85.1482652  62.6658678  14.3551282  85.4048856  63.0041981
  13.0184678  84.8407351  63.4355450  12.3574570  65.5729986  65.9216166
  12.9219988  66.3454593  65.8928776  12.6716736  65.0199510  65.2063274
  26.7799405  82.5848694  30.2128744  26.7417220  81.6695906  29.9353218
  27.1322182  83.0506284  29.4544554  89.4600148  82.6839856  67.9916048
  89.0111895  83.5276447  67.9366016  88.9870591  82.1206889  67.3790359
   2.3045998  31.2090524   3.0126980   2.9869919  31.1934205   3.6837652
   1.5534382  31.6160389   3.4443834  66.1348438  33.5990357  74.1732883
  65.3750992  34.1474986  74.3687487  66.2234640  33.6430860  73.2212162
  61.7849588  15.4886484  52.7024841  61.3117599  14.9569917  52.0624447
  61.6129732  16.3921642  52.4373198  19.6555070  68.1202317  48.3529425
  19.1722659  67.8327096  47.5783205  19.1529397  68.8634408  48.6865664
   0.3355559  11.0280275  34.7650123   0.8489283  10.3470957  35.1997757
   0.6912383  11.8494213  35.1041818  57.3132992  13.5486281  37.4625206
  57.2801828  14.0424848  36.6432285  56.5327024  13.8268244  37.9415941
  17.3939589  83.1205139  50.1826477  16.6365174  82.9136504  50.7301140
  17.3025158  84.0536488  49.9899578  80.1700049   6.6926129  13.8742378
  79.3032306   6.7251904  13.4694221  80.5587166   7.5447733  13.6768463
  59.7474098  24.5085335  64.3130589  59.7026062  23.5756230  64.5225954
  60.1463699  24.9086571  65.0856972  86.4297838  73.1910253  44.5550871
  86.3881917  72.4388481  43.9645481  87.1543331  72.9905690  45.1476049
  45.7677126  29.4544625  59.9536943  45.7339382  29.6545601  60.8891344
  44.9312019  29.7692466  59.6110725   2.4837741  26.0841370  70.6053734
   3.3738192  26.4051414  70.7502985   2.0550498  26.1744189  71.4564180
  75.8456612  42.7536440  60.5626249  75.7112312  43.5348654  61.0991430
  76.6282749  42.3426580  60.9298325  15.8399848  65.1929666  34.7235274
  15.0806740  65.1414419  35.3040624  15.5460385  65.7363177  33.9923668
   4.6324091  49.7409072   1.7590883   5.2266626  49.0678962   2.0909860
   5.1477509  50.2146282   1.1062172  70.1200485  12.1636081  26.3999653
  70.3054571  11.2734318  26.6990352  69.8633432  12.0598483  25.4836869
  32.2370291  34.4206142  70.9218740  32.8916979  35.0418568  71.2407780
  32.5271916  33.5729122  71.2586784  48.2258987  31.2792087  55.2877951
  48.5315561  30.7528353  56.0265350  49.0137434  31.7137027  54.9610662
  29.6267223  29.8320842  54.3399000  28.7396979  30.1617551  54.1958952
  30.0252199  29.8287106  53.4696054  69.8834515  29.0941739  58.5947990
  69.0966272  28.7081623  58.9796829  69.7522879  30.0386667  58.6782551
  62.5709629  20.5150652  63.0175686  63.0435276  21.3473630  63.0038548
  61.9041634  20.6069922  62.3370075   6.6759901  40.4083227   2.3966530
   6.2974768  41.1350056   2.8915146   7.5162153  40.2400233   2.8231838
  42.9209280  31.1099482  66.1909866  43.3582354  30.8419371  66.9991732
  42.9625893  30.3366876  65.6283474  19.2919494   5.4914887   3.1545379
  18.4852554   5.8917267   2.8300598  19.7218420   5.1496012   2.3706176
  44.9575615  30.2304816  67.8122282  44.6560907  29.4201875  68.2230425
  45.4001093  30.7054067  68.5156679  78.8895723  63.9660319   1.7582443
  79.6257039  63.3684095   1.8893745  79.1679403  64.7832426   2.1716573
  86.3862487  45.2484647  13.0740478  86.7029640  44.6781405  13.7745121
  86.5756961  44.7667526  12.2688797  73.7507582   7.5509095  50.0379848
  73.9199543   7.2131079  50.9174681  74.3981504   8.2459849  49.9197340
  67.3869753  54.5417643  47.6984549  66.8977308  53.7289286  47.5713158
  67.8293943  54.6882963  46.8623781  36.2793616  84.1480956  43.8283110
  37.0986727  84.4988743  43.4791470  35.9403971  84.8452150  44.3898773
   1.4978771  54.8827918  13.0528190   2.0417242  54.2298802  13.4934547
   1.9778280  55.0931092  12.2517898  37.6542454  52.4766805  22.4396732
  38.4467106  52.7328273  22.9115036  36.9788151  52.4254777  23.1159904
  22.0755032  81.0519246  65.8054066  21.1361626  81.2350074  65.7866907
  22.1643571  80.3177024  66.4130688  43.1384516   8.6780900  71.8212843
  42.7894592   9.0537679  72.6295567  42.8335428   7.7707744  71.8277025
  79.0108824  39.6374106  38.4508276  78.2192326  40.0053930  38.8434005
  78.9200068  38.6919880  38.5697818  46.0606098  15.5601656  60.9466267
  46.0433054  16.1016560  61.7357540  46.0419416  16.1883509  60.2246380
  21.7618489  12.0491731  52.9860926  22.6558089  11.7073441  52.9712534
  21.2075520  11.2691820  53.0105972  86.1587020  51.0846027   2.6546743
  85.6840536  50.6623825   3.3706834  85.4731103  51.3975062   2.0645120
  23.4655932  71.4861215  70.7908916  22.9589728  71.2286092  70.0206614
  24.2882613  71.8220819  70.4351044  85.4214096  18.8114810  52.4945450
  84.6133232  19.3215096  52.5501966  85.7170296  18.7313879  53.4014225
  48.8204190  72.2683176   6.8690517  48.5139069  72.1304949   5.9727886
  49.7089979  71.9124874   6.8756797  26.0574988  84.9279680  60.9079409
  25.3499297  84.4538000  61.3446760  25.6625155  85.2573049  60.1006269
  48.9551306  21.3483644  62.6414442  49.6037483  21.9691825  62.9732752
  48.1328869  21.6201997  63.0491877  73.2550812  17.8924155  28.6631250
  72.9281616  17.2794437  29.3216228  72.8384686  17.6128888  27.8479362
  36.2903094   7.7859080  52.2436237  35.5141616   7.3816592  52.6314545
  35.9936643   8.6507487  51.9602776  48.5668715  65.9791788   8.8782146
  48.1858953  66.1010464   9.7478416  48.3002027  65.0964578   8.6214664
   0.0785427  67.4311169   4.2682054  -0.1711149  66.9943913   5.0825575
   0.1105957  68.3605250   4.4949320  11.4882640  84.3378706  64.4337034
  11.2226513  85.1046919  64.9413109  10.7083634  84.1009670  63.9318419
  33.0890778  83.0015288  47.9112339  34.0242652  82.7974261  47.9123306
  32.9480961  83.4831927  48.7263107  40.0867728  72.6988317  56.1631918
  39.3225793  73.0756856  55.7270479  39.8934725  72.7794636  57.0971966
  29.3854381   2.8656228  15.7281234  28.6791564   2.7289755  15.0966766
  30.1335050   2.3989899  15.3554561  33.4847069   3.8341740  62.9995298
  34.1277289   4.0312129  62.3184061  33.9572048   3.2819358  63.6224365
  41.8424967  80.6355853  70.5876541  42.6361397  80.4421265  70.0887203
  41.2026290  79.9946285  70.2778578  59.2808723  16.7252386  39.5257854
  58.9688826  15.8585382  39.2655468  58.6993074  16.9845116  40.2404785
  41.6032743  39.9471474  67.5702572  42.0625448  39.5568204  66.8266487
  41.7729664  39.3484879  68.2976103  87.8217193  28.9888044  10.4763153
  87.5104400  29.7255727   9.9504688  87.0297548  28.6265119  10.8735016
  55.0561190  42.7408266  11.6728389  55.2674627  42.3801231  12.5339210
  55.8929825  43.0594873  11.3346803  50.4907322  28.1256771  63.4360790
  49.7600079  27.7166533  62.9724216  50.7911634  27.4546528  64.0490198
  16.6143684  44.0954972   3.9603641  17.3694782  44.4959979   3.5295036
  16.5245466  43.2402237   3.5400369  74.3837908  74.1337169  69.5626402
  73.6537913  73.8952328  68.9912748  73.9791373  74.2889751  70.4160929
  43.8917923   3.5599658  61.7421103  43.6982536   2.6228893  61.7678547
  43.1631327   3.9679641  62.2098970  51.3042240  70.7697185   4.2003324
  50.5915337  70.1340993   4.2658928  51.4743691  71.0329183   5.1047685
  11.9187193  35.8134784   9.5667865  11.1857014  36.4230987   9.4814899
  11.9377260  35.5904855  10.4974582  70.5209684  31.8671966  61.6113949
  70.3008127  31.7092991  60.6933355  69.6866941  32.0941472  62.0221472
  64.4750929  47.9892731  70.9877110  64.1249084  48.6091137  70.3478670
  64.2050743  47.1306419  70.6620169  75.5252668  47.1878686   2.7497318
  74.9460145  47.2573145   3.5085991  76.3025876  47.6896997   2.9950407
  70.6073952  25.7216454  64.4480276  70.2750063  25.7164621  63.5504103
  70.4840708  26.6235805  64.7438955  61.3520098  25.6188250  51.2955284
  61.1331987  24.9946117  50.6036377  62.1999407  25.9781647  51.0345316
  66.8491125  39.3576980  55.9772015  67.4115562  39.9220991  56.5076160
  66.0449934  39.8634362  55.8595037  84.6765995  18.0774069  62.6212358
  85.6014156  17.8590274  62.7363682  84.2708874  17.2587037  62.3360109
  74.0580750  28.3839178  53.4590149  73.4058285  29.0553141  53.2589436
  73.8732624  28.1325722  54.3639469  57.1428728  14.8628330  59.6152639
  57.8177834  14.2470574  59.9008322  57.4486399  15.7147253  59.9267435
  86.5235921  65.8433708   7.9576900  86.7406866  65.3686436   8.7600258
  86.7748424  65.2478989   7.2516372  89.5401260  62.2479602  11.1837032
  88.8170072  62.2220202  10.5570820  90.2510330  61.7772194  10.7486751
  63.6314440   7.5613236  50.9017944  64.4691038   7.4635559  51.3545609
  63.5750103   6.7928559  50.3339005  52.7334881  17.3999381  55.6615114
  51.8331242  17.2012436  55.4044199  52.6888227  18.2835996  56.0267258
  58.4066963  39.1503239  63.7360144  57.6918459  39.1457272  64.3725634
  58.5373020  40.0757456  63.5292006  75.5415154   5.2483821  47.7280474
  74.5857811   5.2651638  47.6778555  75.7311630   5.1880187  48.6643267
   9.3537196  18.2799673  59.8224545  10.1716860  17.8883040  59.5162630
   8.8587531  17.5463867  60.1872826  61.2182045  26.5266490  58.0474615
  60.8710098  26.4484334  58.9360428  60.9514046  25.7160735  57.6138544
  40.9781865  74.6622027  49.1912222  41.3740615  75.2969361  49.7884035
  40.0414303  74.8566044  49.2216778  79.7537300  85.1578291   5.4520586
  79.4505664  84.2574509   5.3352716  78.9764615  85.6368884   5.7394340
  18.8903551  46.0046964  17.6215294  18.6273079  45.7289078  18.4995868
  18.0964975  45.9147375  17.0943477  40.4234886  10.6448019  72.3127747
  39.8063397  11.3713872  72.3989820  40.9460545  10.8646345  71.5415239
  19.3417053  60.8520587  10.3605869  18.8596993  60.5275126  11.1212280
  18.9882116  61.7286166  10.2091816   0.5781345  59.3882855  26.0054424
   0.0750618  58.9346679  25.3291443  -0.0839777  59.7472235  26.5962055
   6.9395426  77.0199353  51.8587685   7.2397736  76.2882895  52.3980188
   7.3931340  76.9040651  51.0238695  89.7338676  50.4970455  73.0307245
  90.1695538  51.1980343  73.5155249  88.8021183  50.6269073  73.2074022
   1.7927226  32.4433255  52.4179554   1.6563090  32.9450321  51.6142654
   2.0241126  31.5650749  52.1156836  73.3430195  18.6300087  61.4213943
  72.6118708  18.3964288  60.8494759  73.9810038  19.0416729  60.8385181
  57.2324562  29.4401622  70.3429747  57.1160030  28.8330364  69.6121740
  56.9198275  28.9570284  71.1078787  64.7830725  28.2473516  52.4919796
  64.6016026  27.4598312  51.9790363  63.9570904  28.7310576  52.4885178
  52.8525877  30.9028196  74.4245768  52.5654554  30.1574302  74.9520063
  53.0844593  30.5217910  73.5776472  69.9583626  48.6162615  49.0405035
  70.4916954  47.9157639  48.6648798  70.2112532  48.6412287  49.9633551
  65.9097740  48.2846036   1.7364528  65.0898429  48.6496236   1.4037302
  65.7111236  48.0322315   2.6381614  27.1740513  40.7663152  21.5882518
  26.9746475  39.8569523  21.8108013  28.1299286  40.8132718  21.6064384
  88.6277696  70.9873041  12.1406486  88.6374923  70.0345691  12.0488193
  88.9657947  71.3118370  11.3059929  89.9610584  17.4383433   6.7842605
  90.8915537  17.2179873   6.8272903  89.8254268  17.7299578   5.8827045
  35.2490882  59.8998667  20.0332975  34.9447516  59.7245480  20.9237337
  35.6604079  60.7625628  20.0862670  45.7400206  85.7240192  50.1209259
  45.4849747  85.8960314  51.0273457  46.2213687  84.8975894  50.1602697
   9.3394664  82.5933308  60.3988695   8.4147862  82.4009413  60.5543852
   9.7794179  81.7487670  60.4957581  30.5329255  78.8469298  62.6037264
  29.6093777  79.0708859  62.7183294  30.9891251  79.6877880  62.6364279
  62.3862457  31.4578629  55.4783869  62.0536613  30.5633354  55.4046488
  63.2915211  31.4028049  55.1723099  75.5449247   3.3644849  53.6937189
  74.9658680   3.4106353  54.4545031  76.3919163   3.6700159  54.0185070
  19.1233691  30.1602697  41.4200592  20.0558814  30.3683782  41.3622808
  19.0355929  29.3246365  40.9615326  20.4432823  16.2326653  -0.0076125
  20.8876420  16.5080483   0.7942226  20.3394081  15.2860482   0.0891378
  70.5895329  35.0436306  47.1021318  71.3354158  35.6429434  47.1289015
  69.9458075  35.4869318  46.5495634  70.2543541  22.2955473  21.2960174
  70.2894541  21.7108663  20.5389526  69.5230099  22.8844555  21.1101272
  73.3720350   3.9820349  62.0011139  74.1171122   3.6036262  61.5343237
  72.8283072   4.3658990  61.3131905  46.8139264  81.1462172   6.6365268
  47.3914274  81.6272028   7.2293022  47.3601648  80.9525855   5.8747127
  75.2908012  57.0964166  15.2637603  74.6132347  57.1563419  14.5903042
  75.0751182  56.3008674  15.7503917  55.8097744  27.7231741  71.9423580
  55.2485514  26.9899774  71.6900015  56.2595367  27.4201155  72.7310896
  69.1029307  75.9270962  20.0029781  69.2984101  75.7130392  20.9152343
  68.8200232  75.0977882  19.6176937  84.5926857  32.0450592  40.0662851
  83.8424969  32.5251317  40.4169703  85.3441906  32.3892117  40.5490255
  42.9451705  24.0748150   5.9682205  43.1601573  24.4153006   6.8365982
  43.4337522  24.6338398   5.3640583  47.9863071  45.9481001  64.3286180
  48.9379740  45.8546448  64.3713713  47.7241278  46.1430454  65.2283335
  26.6051198   2.2020800  14.1907528  26.8175031   2.9295237  13.6059883
  25.6746389   2.0365603  14.0389564  48.4045982  29.1160488  68.2885456
  48.4030533  28.5833311  67.4932861  47.5649881  28.9248276  68.7065506
  21.5310268  75.1899966   9.6716907  21.4929276  75.7110580   8.8696506
  21.2494450  75.7910450  10.3613975   3.2270794  71.2748321  12.7434852
   2.9491978  70.3727873  12.9026344   2.4255686  71.7305263  12.4862888
  84.0796205  56.0319074  10.0046661  83.9787313  55.5209716  10.8077839
  83.5381338  56.8085941  10.1453045  34.5671940   2.1910001  42.6858425
  34.7337055   2.6905352  41.8864870  34.7709823   2.7999794  43.3956671
  87.2104549  66.6593790  43.3282137  88.1079292  66.5145874  43.0285597
  87.2258377  66.4202499  44.2549372   4.2124013  84.8130444  22.2287035
   3.3657364  84.7651048  21.7847562   4.5381740  85.6906809  22.0290589
  26.9246818   5.1305468  28.1020286  27.7973701   5.3591902  28.4219673
  26.9387676   4.1762383  28.0290153  59.9346161  48.7064695  72.7968597
  59.3441582  49.3454361  73.1960058  60.4070425  49.2020702  72.1279621
  43.7150839  61.8449164  64.4108391  43.7214736  62.4557639  63.6739159
  44.6381548  61.6406156  64.5606041  54.8866892  40.7044649  60.8953333
  55.2938318  40.1759005  60.2089739  54.4793463  40.0653028  61.4799500
   5.4476814  67.6811083  17.4381282   6.3574057  67.9364975  17.5911262
   4.9363403  68.2767399  17.9858425  61.6451737  77.7048596  10.2418163
  61.6490694  78.4991368   9.7076442  62.4060890  77.2090991   9.9393871
   2.0903853  75.5754865  63.5155201   1.6417006  75.7667256  62.6919031
   2.0456055  74.6228183  63.5970688  38.0984402  13.6847055  39.6275806
  38.0860853  13.4037924  38.7126112  37.8186417  12.9124236  40.1190329
  79.9015903  12.8056145  48.4280205  79.3228674  13.3622563  47.9069948
  79.6983528  13.0319560  49.3355989  58.8997650  34.7955441  54.1101885
  59.5871162  34.1314030  54.0582514  58.2345963  34.5009756  53.4880877
  73.1522655  10.1238716  24.9120998  73.0813313   9.4202393  25.5571580
  72.3499346  10.0560832  24.3945122  86.8556900   5.6853867  51.9048309
  86.0283009   5.3108460  51.6025400  87.2806797   6.0020006  51.1077261
  28.2128811  19.8022544  37.5989747  27.7169347  18.9837646  37.6174641
  28.1631470  20.1327538  38.4959316  79.9120331  19.6613610   9.9308437
  79.1167879  20.1784539   9.8026526  79.7669077  19.1995203  10.7566011
  90.4025269  17.0057905  59.6993637  90.1396942  17.8339636  59.2977619
  89.8590660  16.9371414  60.4843283  34.0543485  36.5938377  72.2888041
  33.3767676  37.2698903  72.2805023  34.8455262  37.0440555  71.9928694
  78.0811044  54.6951683   8.4330204  77.3738548  54.1010340   8.6840847
  78.1566354  55.3022321   9.1692283  58.8138342  20.2454209  32.6401186
  57.8918266  20.4417086  32.4739695  58.9034462  20.3035212  33.5913420
   5.9004642  11.7235072   2.8710725   5.6403114  11.0794384   2.2124937
   6.5869953  11.2867053   3.3751657  13.0104951  81.1759798  62.6939631
  13.2193974  81.5601666  61.8424988  13.8542632  81.1120702  63.1414032
  90.4697132  22.3878741  51.9216871  90.3441715  23.1952262  51.4230394
  90.0036621  21.7204332  51.4181519   5.5513533  14.2373765  45.0646591
   5.5104788  14.5818269  45.9568024   5.1076087  13.3906996  45.1142454
  60.7450199   4.3115777  31.9412351  60.9648657   3.8684711  32.7607203
  61.5787983   4.3833157  31.4765835  15.8337145  52.4671253  36.5003231
  15.1912336  52.0800479  37.0949867  15.3858738  53.2248720  36.1241653
  76.6697216   5.8978498  63.6463594  76.0985470   6.6329312  63.8691711
  77.5318336   6.2941319  63.5200500  48.2302761  13.7978017  61.3331079
  47.7145386  12.9936171  61.3925600  47.5786161  14.4965506  61.2755013
  20.4539089  58.3320220  16.2577655  21.1309319  57.7586313  15.8984687
  20.9265118  58.9217981  16.8451717  57.1823263  25.6076169  55.0581217
  56.4522743  25.4516673  54.4590044  57.4082041  26.5283346  54.9258804
  70.0478697   9.9399036  54.9629068  69.1971731   9.9828207  54.5262146
  70.6077862   9.4630015  54.3502951  57.1049099  63.4088787  31.7419079
  56.2345772  63.5029276  31.3547256  57.2010880  64.1773089  32.3044899
  87.9039288  39.5075345  42.8292942  87.6798248  38.7029195  43.2968426
  88.8608265  39.5121956  42.8056240  85.7854244  76.9717773  13.3132866
  85.8549472  77.2110828  14.2374828  86.4790412  76.3256677  13.1803444
  88.0115291  74.9448498  38.8875988  88.1719133  75.2366146  39.7850254
  87.0724460  75.0765165  38.7571552  70.7614565  28.5820365  37.0480728
  70.8454943  27.8881645  36.3940763  71.2704706  29.3100858  36.6915941
   0.2222805  32.1111318  18.1775119   0.3733044  31.4794858  17.4743488
  -0.5066366  32.6472982  17.8653743  68.0714273  12.7477849  48.7210989
  67.8114796  12.4918985  49.6060705  67.9638433  11.9518971  48.2003069
  53.4284735   9.1048068  40.8587027  53.7377977   8.8781947  41.7357445
  54.0546513   9.7573072  40.5450487   3.3499460  50.3976979   4.4978264
   3.5406857  50.1266076   3.5998514   2.4581795  50.0884690   4.6570709
  70.4310036  26.9605231  27.6930594  69.7825146  26.2937093  27.9190159
  71.2729645  26.5118694  27.7708244  82.3367214  27.1216297  32.0368958
  83.0186844  26.4754343  32.2201967  82.7674389  27.7744126  31.4849973
  15.5750588  78.8712091   9.8906237  15.3759793  79.8072339   9.8692346
  14.8517636  78.4837086  10.3834939  76.7496654  61.6269692  16.9009044
  76.5524503  61.5570935  17.8349617  77.5233623  62.1891244  16.8608692
  82.7157307   0.9958886  34.1138649  81.9938469   0.4288202  34.3850756
  83.2050800   1.1625236  34.9194670  52.4771976  31.4188647  58.3430862
  52.0330238  30.9951758  57.6086330  53.0940533  30.7601500  58.6621809
  27.2426014  33.6714812   0.6894138  27.0788841  33.5558446   1.6253927
  27.0674019  32.8114017   0.3075721  77.0294925  82.0242103   7.0895031
  77.3147556  82.4073633   6.2600162  76.8954059  82.7757605   7.6669243
  54.5225620   5.6260061  54.0796328  53.8250399   4.9801561  53.9675283
  54.1520643   6.2778360  54.6746826  20.1759127  79.1221256  44.7812080
  21.0069970  79.5873214  44.6857166  20.4187230  78.2697071  45.1426744
  16.7190674  83.3551730  65.4727221  16.7065171  82.6708088  66.1418390
  17.4557713  83.1236593  64.9071217  16.6030339  86.0397291  72.2611380
  16.8387345  85.7399671  71.3831758  17.3669032  85.8306177  72.7987337
  49.8540449  12.4749053  58.2487822  50.1953840  13.2764471  58.6453295
  48.9084816  12.5216758  58.3900213  64.4538900  45.6196727   0.4143074
  64.1669151  45.8804678   1.2894418  64.3025276  46.3937776  -0.1279900
  41.4526033   3.4162205  68.0648947  40.9039068   2.7296120  68.4440136
  40.8888721   3.8451517  67.4211121  46.4125395  31.3097692  70.1683760
  46.6114902  30.5374265  70.6976557  47.2242212  31.8171167  70.1704597
  39.9605799   7.8057688  72.4218035  40.0498009   7.7011549  73.3690786
  40.3765726   8.6470336  72.2335100  15.9661560  25.6127282  26.2828090
  16.7507486  25.4829093  25.7500961  15.9193974  24.8319586  26.8345764
   1.1279135  82.3976906  13.0462768   0.7569532  81.9029053  12.3156574
   1.7122393  83.0332669  12.6329639  34.8620585  83.1080384  50.2014256
  35.5502156  82.4539463  50.3232241  35.3083113  83.9480209  50.3087473
   3.3092364  20.3195977  69.3888044   3.9374694  20.4961348  70.0890875
   3.3122119  19.3666255  69.2989922  76.8945190  64.1850432  39.3958595
  76.6784974  64.5366343  40.2595451  76.0474416  64.0711912  38.9648941
   8.3878641  31.5384599  32.2494533   7.9345207  31.6565951  33.0841663
   7.6872759  31.3802823  31.6166809  71.7257575  70.0697125  36.7433739
  71.2942198  70.5256284  37.4659729  72.0826701  70.7701767  36.1973023
  12.4216871  86.0214623  13.6881092  11.6913204  85.4048117  13.7384823
  13.1886845  85.5050238  13.9355686  31.5267920  13.4728706  58.3868313
  31.1028433  13.3556676  59.2369843  30.8190989  13.7425184  57.8014278
  83.3808274  81.5384860  58.9332199  82.5580306  81.0669897  59.0633154
  83.4433050  82.1239407  59.6879196   0.1882228  29.2793870  52.0820761
  -0.6880704  29.5018840  52.3964453   0.6809577  29.0688992  52.8752613
  46.2091017  58.8231277  66.7739773  45.7666540  59.6440935  66.9895792
  46.7399406  59.0318298  66.0052872  77.6596355  24.3548632  54.6419668
  77.2554636  23.4900117  54.5719194  78.0238104  24.3780875  55.5268764
  89.9239751  82.2031721  17.6882293  90.6823179  81.6550716  17.8900650
  90.1871177  82.7003368  16.9137504  72.0673180  42.2425461  64.3594217
  71.2045908  42.6409435  64.4743776  71.9183588  41.3063192  64.4917965
  82.1508217  12.8802574  52.7487087  82.8153419  12.8664136  53.4375143
  82.4061775  12.1739101  52.1553278  68.8171526  46.6671016   9.3758228
  69.3861100  47.4216028   9.5282962  68.1368085  46.9951104   8.7878063
  43.6195831  54.0763553  20.2058723  42.9926949  54.5037671  19.6222999
  43.2808380  53.1873544  20.3115108  24.5497894   2.0253187  70.2844048
  23.9896536   2.6028532  70.8029938  24.7219920   1.2794006  70.8590221
  47.9777336  42.5249052  48.4737158  47.1138096  42.2428179  48.1732225
  48.5045719  42.5738430  47.6760435  30.9228304  62.8438951  57.3307085
  30.3112296  63.4900189  56.9775772  31.7019156  62.9259110  56.7806816
  87.6097031  82.9746214  53.8658142  88.0934281  83.7707163  54.0859842
  87.5391622  82.9934529  52.9114056   7.7671604  75.6365355   0.9444072
   8.4702759  76.1059245   0.4954794   7.0478754  75.6217035   0.3130319
   9.5822390  56.5990448  43.6381245   9.5144805  57.2565889  44.3304253
  10.5224093  56.5139198  43.4798241  44.4474079  20.9479506   1.3801792
  44.1419317  20.0447733   1.2954071  45.2193262  20.9936602   0.8160188
  80.0938416  72.5494194  54.1142845  80.8262062  72.6447439  53.5053587
  80.3864002  72.9907036  54.9117231  31.7790653  36.4520724  13.9021328
  31.2658550  36.0913737  13.1791237  31.6298582  35.8457406  14.6276214
  65.1371431  54.5220375  50.2809811  64.7150230  55.2533674  50.7317591
  65.6004572  54.0496397  50.9726572   0.9027176  84.6034249   6.8517616
   0.8140783  84.0195425   6.0984638   1.3474159  84.0742691   7.5139263
  78.4870386  56.9597340  42.2845221  79.4192314  56.9149351  42.0718288
  78.1343699  57.6121044  41.6793203  30.4520969  79.3531164  16.6466072
  30.8830624  78.7543424  16.0367134  29.6961193  78.8628396  16.9696453
  65.5889988  16.8605137  45.7190609  66.1478281  16.8511832  46.4961386
  66.0085440  17.4874473  45.1298475  26.8092879  30.9976220  38.1664610
  26.7087039  31.9470978  38.0985785  27.2821673  30.8649993  38.9880657
  68.7768316  42.2472620  69.3729782  68.3661985  42.7765560  68.6892653
  68.1524658  42.2665882  70.0982523  68.3652544  38.4219074  49.9218655
  68.1124115  37.7751899  50.5806971  69.3215179  38.4409928  49.9596119
  30.4850464  29.7250303  16.8553188  30.5950623  29.1739925  16.0804012
  29.6329098  30.1434203  16.7326763  90.4808828  83.5834082   4.5218303
  89.9092122  82.8322872   4.6807125  89.9676248  84.3395098   4.8066261
  67.8018475  24.3098092  24.0392947  67.2579956  24.5026755  23.2755780
  67.7900696  25.1180458  24.5519805  23.3726653  37.2194338  38.9106226
  24.0203627  37.8154516  38.5344887  22.9206999  37.7433419  39.5720506
  83.4293938   3.4453803  52.7645493  84.2164326   2.9010957  52.7410078
  83.0417156   3.3436191  51.8953037  57.2574902  32.1227288  55.0673485
  56.3124037  32.2705412  55.0327873  57.4187183  31.4482784  54.4075346
  67.3114634  34.3791056  46.3413763  67.5131559  35.3145671  46.3628721
  67.3836899  34.0974998  47.2533607  74.0333891  53.3600760  58.8062954
  73.2383537  53.2193947  59.3204546  74.0186739  54.2930746  58.5929251
  73.5106897  36.6146469  63.2865429  73.7063169  37.4851489  63.6332273
  72.6811266  36.7229414  62.8214312  18.4196242  19.9390376  67.5414658
  18.3777770  19.4701123  68.3748865  18.6962184  20.8242607  67.7783442
  49.4663811  45.7895136  74.0123367  48.5973740  45.8226490  74.4122887
  49.9716234  46.4531946  74.4819021  81.0464764  33.1931114  59.7912169
  80.8652020  33.4885597  60.6834507  80.9820461  33.9858723  59.2586660
  84.1139984  68.0472994  20.4869533  83.4576130  67.4742651  20.0907016
  84.3673801  68.6440897  19.7827685  60.0466204  25.2348542  48.7086678
  59.9114180  25.3257966  47.7654409  59.5851994  25.9818411  49.0898895
  39.8211908  26.6689157  71.6347218  39.6961784  25.9244919  71.0461330
  38.9742517  27.1148944  71.6400623  37.9863243  75.1895817   1.8905666
  38.8786011  75.5320533   1.9435003  38.0424004  74.3146714   2.2747781
  71.4511776  17.3644304  55.0919199  71.4871645  18.3135986  54.9735308
  71.8691111  17.2127759  55.9395981  49.2180347  15.7314312  46.9481754
  48.6985207  15.7030296  46.1447239  49.6584749  16.5807688  46.9187069
  53.3768824  72.9418994  32.6699066  52.9057959  73.7425352  32.4390721
  52.8048209  72.2336997  32.3742390   8.1894263  38.4849453  54.8022079
   8.2492503  37.9331040  54.0223885   9.0978583  38.7001181  55.0136137
  12.0151957  40.5181265  27.5062895  11.9159182  39.6987057  27.9909754
  12.7485903  40.3577995  26.9124413  40.3532793   8.8418610   5.7395103
  39.9823762   9.7006066   5.9425190  40.4712011   8.8503773   4.7896364
  23.5815792  41.7587536   9.0877464  23.3895092  42.5921757   9.5175769
  23.2625275  41.8718974   8.1924083   3.3386021  43.3785304   9.1983631
   2.4319868  43.3510662   8.8925388   3.5227518  42.4832173   9.4825008
  82.1122456  29.0984559  57.5006723  82.5165844  28.8053012  56.6840982
  82.8012466  29.0003014  58.1578445  50.1071168   8.7044795   2.5971773
  50.7990838   9.2732842   2.2597244  49.3380977   8.9251931   2.0716932
  12.4890860   4.3519154  20.3739238  13.2163485   3.8717017  20.7697988
  12.4912795   4.0768453  19.4571018  55.3907776  23.6854982  50.8541918
  55.5841064  22.9663348  51.4555740  54.6321344  23.3829403  50.3550386
  89.0730858  28.1805277  37.6758909  88.8361263  27.9011703  36.7915606
  88.3341122  27.9072690  38.2194734  71.5442848  49.8844862  68.8538933
  72.4653196  49.9237156  69.1115522  71.4344454  49.0057850  68.4905052
  64.4731617  11.1448550  56.3210487  63.6434221  11.6220570  56.3142538
  64.2302179  10.2451169  56.5394020  85.2848913   6.0633929   1.3712051
  85.6692506   5.1867564   1.3692119  85.9676744   6.6251166   1.0044506
  54.3002653  43.6789322  69.0015602  54.4677734  44.3866062  69.6239519
  54.3669748  44.0950441  68.1421232  64.7705841  29.8713446  39.6012950
  64.1283751  29.7748685  38.8980937  64.9982691  30.8010221  39.5918345
  61.9317198  12.3955131  57.0773935  62.0284653  12.5617206  58.0150747
  61.4279699  13.1418157  56.7525864  71.1627007  22.8798437  45.3137875
  71.8478680  23.5463023  45.2626991  71.6025734  22.0650315  45.0712538
   6.0191210  46.0326576  54.1917658   5.3425273  46.5652609  53.7736988
   6.6430148  46.6690016  54.5411253  53.7418795  17.4302387  59.6899319
  54.0882683  17.1513140  58.8423204  52.7912617  17.3944914  59.5836878
  72.1288824  69.1396666  59.0821314  71.2994862  69.5268297  58.8020563
  72.1547604  68.2877684  58.6464357  65.5786276  46.6193724  65.6045580
  64.6832752  46.3166523  65.4531050  65.5021667  47.5714445  65.6673527
  62.2280169  42.2623158  55.2739334  61.5648890  41.6845894  55.6517315
  61.7331696  42.8620672  54.7156715  74.8670149  30.0812769  74.0859175
  75.0882578  29.1689038  73.8992071  74.2943335  30.3413463  73.3643675
  16.7574598  14.5756085  25.5111625  16.7818595  14.6110995  26.4673927
  16.1951639  15.3079016  25.2585819  62.0704269  43.9276934  73.0533457
  62.3569155  43.6910391  73.9354706  61.1189747  44.0055609  73.1233406
  71.5011406  36.3424921  43.9560413  70.8887243  35.9438181  43.3377838
  72.2814512  36.5286922  43.4338522  74.6480942  16.2571073  61.7226839
  73.8836718  16.6116035  61.2685728  75.3433990  16.8928111  61.5533686
  87.0500183  28.8848758  41.2106562  87.2969246  28.9295697  42.1343803
  86.0928631  28.8801217  41.2185335  76.8682098  40.0099564  65.7460499
  77.2963715  40.0984478  66.5975618  77.2736692  39.2369366  65.3532696
  85.4957008  25.7566357  54.7674751  86.1410141  25.2882600  55.2970219
  86.0065651  26.4105463  54.2903519  78.5149431  61.3420963  72.4158764
  77.8657818  60.9849501  73.0219078  78.0092955  61.5893269  71.6416454
  90.3230735  62.4040516  23.8508251  90.6669446  61.5111335  23.8247516
  90.8260414  62.8343113  24.5422962  19.5774032   6.1564667  26.7844799
  19.7517587   6.2412341  25.8471229  19.6550132   5.2184565  26.9586685
  65.6591320  35.2286053  18.7959671  66.3724756  35.5150700  18.2256079
  65.1287794  34.6526217  18.2453299  51.8622732   2.5090674  23.8742137
  52.0662546   3.4420234  23.8092732  50.9919930   2.4812819  24.2717910
  34.6972896  16.6781218   7.4388530  34.8238040  16.3821681   8.3403137
  33.8669778  16.2839015   7.1716335  57.5885248  40.1688862  68.5084581
  56.8062687  40.6995201  68.3576918  58.2460022  40.5386591  67.9191971
  52.4391413   9.6819955  44.1361189  52.0223427   9.1876698  44.8419189
  53.2254362   9.1792321  43.9235067  79.0112877  30.6625104  51.5736723
  79.1286945  29.8010206  51.9740248  79.0542269  31.2755346  52.3075581
  49.6109200   1.1908399  43.6615086  49.8696756   0.3636766  43.2552099
  50.4380655   1.6109677  43.8972282  87.8577137  34.8530936  58.0724478
  87.3045063  34.6744394  58.8328886  87.2507858  35.1714087  57.4042130
  76.1805868  50.0993967  56.7953110  76.0339594  50.0695038  55.8498812
  76.1066151  49.1879177  57.0780945   2.6824530  69.9359226  72.0931149
   2.2316130  70.7682753  71.9511414   3.5651454  70.1852751  72.3668003
  64.3833351  11.4654720  33.0996585  63.5354996  11.3492262  33.5284853
  64.9489498  11.8278801  33.7815499  74.1686346   3.7753518   8.9484909
  74.9869825   3.6998637   8.4577301  73.8605405   2.8737814   9.0405681
  64.5464325  27.6928234  58.6401272  64.0572166  27.4024248  57.8703451
  64.0495682  27.3500943  59.3830204  62.7879667  38.2428932  59.4623709
  62.3832321  38.6042905  60.2509260  63.1338882  37.3940778  59.7382021
  44.4373037  10.3438075   4.6791485  43.7764312  11.0074217   4.8768881
  44.1589691   9.9703248   3.8429239  66.9783926  34.2772841  34.8801494
  66.2022591  34.3913388  34.3316603  67.7143526  34.3572211  34.2733479
  86.3979149  76.8106318  72.6611948  86.5483284  77.0845127  73.5659552
  85.6738281  76.1870718  72.7169371  29.9893265  55.5659207   0.4836681
  30.0349312  54.8696276  -0.1715634  29.0538769  55.7460793   0.5770042
  88.2465363   3.7092465  66.9442797  88.8605785   3.8674915  66.2272501
  87.3936367   3.6322969  66.5166378   0.0283457  44.8113759  11.8417576
  -0.4298328  44.1637547  12.3773792   0.5968548  45.2729733  12.4581745
  83.5759258  41.8021107  52.7552748  84.1831207  41.1628389  53.1279421
  83.2416534  42.2841692  53.5116577   3.1825122  31.1579776  21.8881583
   2.6770362  30.3702545  21.6876149   3.9934119  31.0554981  21.3899922
  64.7763538  61.2496328  55.7322216  65.2753448  61.3657522  54.9236679
  64.7396612  60.3012991  55.8569288  89.4659063  71.5167912   2.8137615
  89.3321821  72.1428593   2.1021536  89.3372699  70.6601747   2.4064615
  54.9065781  10.4464638  65.8651876  54.8775387  11.4030480  65.8468819
  55.7968903  10.2285480  65.5893421  78.8407946  29.3327332  24.6261811
  78.4341526  28.5002685  24.3856049  78.4758902  29.5375943  25.4870582
  84.4798279  30.3042340  55.3262329  83.8484097  30.8731556  55.7665348
  83.9520836  29.7852874  54.7192621  59.4160824  69.1165241  11.2415626
  58.9983635  69.9113878  10.9099987  59.7957401  68.7039932  10.4657390
   0.0989970  55.5141735  36.2473154   0.8368834  55.2181053  35.7142973
   0.2759989  56.4411116  36.4075875   0.8340892  36.8327308  57.9219627
   1.6665419  37.3039031  57.8866911   0.2360591  37.3633432  57.3956108
  63.9203215  37.4188733  36.9771194  64.1772270  36.5043688  36.8591714
  64.1412020  37.6141620  37.8877831  68.9024210  30.3987312  54.3888330
  69.5825768  30.1275682  53.7723160  68.9335966  31.3553119  54.3743563
  87.3668092  13.5759337  33.7353447  86.9402974  13.5738308  32.8784206
  88.2932680  13.7184079  33.5414150  54.1031170  37.8106713  56.0351467
  54.4371319  37.2535229  55.3321171  53.8014507  38.6026931  55.5902576
  84.4135094  32.7067065  52.7353430  83.8795280  32.5009751  53.5026550
  84.9816895  31.9439721  52.6274586  84.0845490  67.3290491  64.5246267
  83.9342022  67.0327711  63.6269379  84.2787743  68.2624531  64.4394207
  73.1255293  27.5399446  21.9513440  72.5903988  27.2806454  22.7014279
  72.5038052  27.6122928  21.2271500  73.6925220  22.3422074  48.8223553
  73.2332087  23.0820465  49.2197227  73.5990143  21.6327953  49.4581413
  88.6689186  14.8794293  49.6090841  88.9015484  15.2925968  50.4405975
  87.8910637  14.3588901  49.8096371  63.2246351  40.6698370  58.0513000
  63.3961964  39.7692418  58.3264780  62.3398447  40.8524847  58.3675528
  86.7295837  32.9673243  55.9166861  87.0197487  33.6875606  55.3569555
  86.6248226  32.2268796  55.3191948  41.8468380  43.8813829  73.0395699
  41.6646624  43.6163950  72.1380043  42.7838135  43.7209463  73.1516886
  68.0117464  37.7820492  38.7929702  67.9652548  37.1944427  38.0387902
  68.5057831  38.5385919  38.4770560  89.4564915  42.6104021  33.7003875
  88.7217903  42.4992561  33.0969882  89.3066502  41.9565535  34.3832231
  67.5740004  37.9103827  72.3588467  68.4777784  37.8695416  72.0461941
  67.0464659  37.6625037  71.5995693  68.6358500  44.9620485  72.8292465
  67.7597380  45.1907444  73.1396627  69.2163229  45.5797243  73.2739449
  65.5993082  18.0124409  29.4030693  65.1562215  18.6781533  28.8770225
  66.2996103  18.4875948  29.8503235   7.2065505  24.6823311  46.5607166
   6.4704665  24.5821667  45.9570694   7.9799708  24.4965386  46.0282421
  85.7405445  85.3254136   3.2490041  86.1720964  84.4770058   3.1480291
  86.3694497  85.9570654   2.9001072  79.0711309   3.5661967   6.7358043
  79.1138746   3.2629187   7.6426819  78.1911279   3.3273632   6.4446190
   0.1053103  61.8346071  60.8456326   0.6180152  61.0299683  60.7686567
   0.7343444  62.5363731  60.6780672  61.4318752  38.8897896  54.6786690
  61.4693975  38.1235027  55.2510548  62.0381737  38.6866140  53.9663792
   2.8910884  42.9305172  47.3631239   2.0242652  43.1178141  47.0028973
   3.1496962  43.7423420  47.7993536  71.8740797  65.1062536  55.5528641
  71.5254164  64.9214506  54.6807909  71.2541389  64.6901083  56.1518002
  37.3282005   9.8947318   8.3097675  37.6836349  10.7357581   8.0224064
  36.9939805   9.4899065   7.5093582   4.9553355  19.8693466  52.8698826
   4.5927485  20.0660706  52.0061350   5.8826598  20.0953031  52.7974939
  72.5391293  31.8582225  49.8660469  73.4956646  31.8371296  49.8947763
  72.3312998  32.0596051  48.9536428  46.8937016  40.8336592  65.4633093
  46.2056732  40.8298445  66.1287689  47.5721931  40.2585268  65.8170033
  91.3023158  55.7843908   3.3328178  90.6975004  56.1909779   2.7122381
  91.1992904  56.2939723   4.1365221   2.3587494  83.9362725   4.2503050
   2.9524212  84.5505675   3.8185432   2.9129820  83.1916340   4.4839218
  66.8101978  33.2695436  52.6453018  65.8772230  33.1094360  52.5033474
  67.1604061  33.4365559  51.7702627  16.3936766  30.4443264  40.6917667
  17.0129260  30.6169677  41.4009571  16.9101771  29.9856353  40.0291538
  60.0864124  39.6073484  48.6271334  60.5221987  39.7878170  49.4600534
  59.3154240  39.0931201  48.8666868  65.9754992  39.8969626  50.0741339
  66.7572498  39.3877530  50.2881479  65.5710220  40.0824118  50.9216213
  34.8626852  51.1969757  64.1347313  34.7842646  50.8391380  63.2504034
  35.7746816  51.4806032  64.1983366  82.3174000  16.7165208  60.6932259
  82.6595879  17.1207452  59.8958921  81.5836430  17.2753823  60.9491825
  42.3627950  12.1364529   4.5916774  41.5912200  12.1674759   5.1573112
  42.6036073  13.0540926   4.4645145  89.0761757  27.8076839  60.1685905
  89.1675091  27.4688530  61.0591459  89.1541672  28.7568879  60.2643061
  37.0024729  60.8961201  61.3311577  36.4625764  60.4138756  60.7049131
  37.1641302  61.7395449  60.9083939  86.7121887  44.3369675  66.4673615
  86.5399837  44.9281406  67.2002268  86.3781738  43.4890270  66.7600489
  72.0242023  17.9595304  37.4126935  71.2204885  18.1997919  37.8737259
  72.7181625  18.0846345  38.0599976  44.1143302  73.7851239  48.2953501
  44.9389342  74.0150429  48.7236023  43.5120848  73.6038924  49.0169382
  54.4953537  46.6898632  53.2500315  54.8728514  46.7618036  52.3733616
  54.3734026  45.7496595  53.3818769  83.6627197  31.7266440  50.3752279
  82.8308678  32.0047760  49.9919510  83.8352680  32.3681283  51.0643959
  64.4202995   2.3655641  61.5851021  64.1612196   2.9869372  62.2655487
  63.6279917   1.8577024  61.4102793  84.1892242  75.5408907  73.9624357
  83.4262276  75.1735067  73.5162401  83.8614750  76.3365936  74.3815565
  85.2651882  15.0060797  46.3831520  84.7149754  14.8722303  45.6114101
  84.6748447  14.8713100  47.1244812  81.4120960  19.2190719  72.9104471
  81.5297604  19.4798636  73.8238859  81.4853001  18.2647514  72.9224920
  83.8975334  38.5207343  64.8641443  84.0545845  38.8436079  63.9768362
  84.1770935  39.2380071  65.4330015  82.6292706  53.0505276  37.2222257
  81.9758129  52.6281071  36.6647410  82.3087692  53.9459276  37.3306823
  80.4419994  41.9730759  42.4828434  79.8711252  41.2415361  42.2479200
  79.9108791  42.7528381  42.3212576  69.2712593  51.6590691  68.3154774
  70.0618887  51.1412954  68.4672928  68.8637781  51.7326784  69.1784763
  49.5676947  67.6019192  66.7744827  50.2834988  68.1060266  66.3875294
  49.3757010  66.9231176  66.1274910  55.0348377  39.6241784  70.0762939
  55.5174875  39.8156834  70.8804131  55.1688051  38.6871505  69.9339342
  81.8425465  42.0822144  37.2921467  82.4227333  41.4506626  36.8669844
  82.0696068  42.9222536  36.8933821   1.4184054  60.1659870  51.7477751
   1.7531737  59.8183250  50.9211588   2.1522578  60.6587172  52.1150875
  54.2684841  21.6808462  43.9468718  55.1269293  22.0077085  43.6776733
  54.4611025  21.0271525  44.6190405  32.4614383   4.8148425  24.2830780
  32.7833129   5.6691344  24.5708492  31.5346338   4.8150666  24.5223739
  50.9300404  79.5175918  64.3218448  51.6879063  79.7862395  64.8411586
  50.1848106  79.9390872  64.7498729   6.1215000  63.9506801  18.0057266
   5.3188829  64.3733653  17.7001407   6.8072300  64.6012171  17.8547123
  54.5962000  41.2416983  66.9833899  54.9886847  41.9895649  66.5329552
  53.8033009  41.5944910  67.3872232  45.7994604   9.5656908  18.2902050
  46.0970402   9.1748476  17.4686682  45.0832462   9.0000868  18.5789251
  37.4911099  53.8671263   8.9764145  37.8901081  54.5378800   8.4222343
  36.5490894  53.9835425   8.8527706  61.1168195   6.5212185  23.5245636
  60.6483556   6.1790163  22.7631977  61.6361715   5.7811053  23.8387802
   3.3867606  62.9302216  37.9497766   2.4734458  63.1783342  37.8065419
   3.8736685  63.7500334  37.8657341  15.2426776  76.9816446  30.9413052
  15.0474509  76.8020964  31.8610215  16.1138209  76.6093969  30.8042765
  74.3816185  42.6241207  63.3409071  73.6078358  42.5431442  63.8985205
  74.0319347  42.8345728  62.4750805  52.3286819  39.8400259  51.4520311
  52.6387644  40.5362082  52.0311785  52.7354002  40.0324011  50.6071615
  29.2612675  82.9485432  58.5555887  29.4674948  82.1837367  58.0182123
  28.4255580  83.2643856  58.2119894  60.8331966  43.9171124  46.0347414
  60.1197100  44.3983173  45.6156826  60.9331989  44.3341827  46.8904781
  80.4663849  46.3811398  63.2164621  80.1187325  45.9368610  63.9897585
  80.2015686  47.2944736  63.3256769   3.1726893  54.4240379  24.0988684
   3.8350638  55.0414944  23.7886477   3.5308894  53.5620403  23.8870168
  85.9528637  46.3471365  43.3699560  85.4434872  45.5500317  43.2237101
  85.5231094  47.0088148  42.8279972   9.0056475  20.2610469  35.2249670
   8.7234744  19.4974387  35.7284689   9.0574225  19.9469280  34.3222594
  87.7652073  26.8418717  50.9364700  87.3383522  26.4383221  50.1807070
  88.5282135  26.2887836  51.1042070  14.7087412  63.4961518   2.7834966
  15.0744944  62.6437863   3.0199936  15.4279165  63.9525422   2.3467662
  46.9599153   7.5980980  31.5922382  47.2207548   6.7603714  31.2095955
  46.2356235   7.3785670  32.1782806  81.4260387  43.5977745  50.3093243
  80.8690262  43.4251165  51.0683775  81.7142963  42.7314854  50.0217676
   7.5536975  44.9903154  73.0571890   6.6588744  45.0391579  72.7208281
   7.5138816  44.3297482  73.7487793  12.2021772  30.8947070  10.9167698
  11.8318178  30.9240324  10.0346115  11.7170192  30.1969035  11.3571479
  17.1455249  32.6757264  54.0281582  17.7842482  32.1790814  54.5396423
  16.5230044  33.0046082  54.6766472  78.6026812  13.3444917  40.4926538
  77.8234243  13.7320757  40.0941944  78.5798788  12.4271405  40.2202940
  57.9248810  51.5564823  65.7908058  58.2027149  50.6528902  65.9409952
  58.0195379  51.9810343  66.6434622  85.7108212  42.5386000  47.6627159
  84.9025440  42.9340315  47.3362970  85.5615520  42.4289131  48.6018181
  87.0063305  33.1290412  40.7763767  87.3474789  33.9979649  40.9880829
  87.4844265  32.8693676  39.9888301  52.7167273  12.4294162  56.4236355
  52.4251795  13.2468748  56.8273544  52.8718233  12.6570189  55.5069160
  56.5020820  83.1091650  16.4308860  57.0232555  83.3837613  15.6764248
  55.9736582  83.8768681  16.6491440  88.9294052  31.2077069  45.9166050
  89.3053722  30.3278756  45.8887148  88.7456417  31.4187694  45.0012255
  22.0879722  23.8126111  54.1540337  22.1100831  22.8557396  54.1422558
  21.4153314  24.0445399  53.5137224  86.2675858  50.6427002  52.0710897
  85.7669163  50.2062845  52.7603674  86.1210728  50.1059389  51.2922096
  53.0037403  37.5263429  53.0708122  52.7035952  38.3502936  52.6870871
  52.4532700  37.4080825  53.8449097  50.4346466  44.2584562  67.3653030
  50.0783634  45.0454664  67.7775049  51.2504530  44.5497608  66.9580746
  62.7676964  38.0445743  52.3948097  63.1046867  37.1648145  52.5641966
  62.8467607  38.1529737  51.4470577  77.4016333  35.7697701  40.4898262
  77.6256418  36.3582468  41.2107611  76.5601158  35.3903317  40.7430220
  59.5503426   1.0521699  63.4245634  58.7952852   1.1180037  64.0091896
  59.2249441   0.5660902  62.6668882  70.6198359  49.1429424  59.4019318
  71.4003801  48.6489391  59.6528292  70.7985401  49.4354820  58.5082245
  80.4246807  68.0575848  62.0267010  80.0383568  67.2249508  61.7552280
  79.9575329  68.2878351  62.8298140  20.3370722  27.6372790  51.4432669
  20.2431163  28.4444857  51.9490576  21.0757025  27.8058076  50.8582354
  68.5126734  40.6217909  53.1753111  67.7675629  41.2225580  53.1641960
  68.1443024  39.7784281  52.9121113  56.5332890  44.2723083  63.5604382
  55.6563330  43.9120722  63.4285021  56.6029167  44.9756384  62.9149055
  68.9029026  82.5511360  62.6610661  69.1201830  82.6690197  63.5857916
  69.7258902  82.7115154  62.1993256  13.0064107  24.4527228  11.2852981
  13.6932947  24.9800665  11.6931369  13.3910991  23.5800345  11.2036731
  77.0535088  54.8677778  54.1953373  76.1458683  55.1631498  54.1233826
  77.5248575  55.6247473  54.5432663  62.6847696  36.9771147  72.4900436
  62.1991301  36.7833018  71.6882849  62.7201891  37.9330754  72.5234509
  76.6107035  17.2223747  63.7596893  76.7077684  17.8787363  63.0697584
  75.7632303  17.4183536  64.1591978  44.8505287  85.5218609   1.9851473
  44.0932827  85.1655825   1.5205362  45.1532345  86.2425002   1.4326265
  79.2867613  27.1849298  56.9960308  79.6579885  27.9810619  57.3762846
  79.2540836  27.3612833  56.0557842  64.7907352  18.8588440  62.0002365
  64.2038488  19.5189750  62.3690510  65.2739954  19.3230641  61.3167238
  70.1339245  38.4947371  58.6770487  69.3511772  38.9685035  58.9582682
  70.8200026  38.7886095  59.2763519   6.6775473  57.2743273  53.3309937
   5.7949408  56.9057274  53.3680487   6.5538081  58.2091331  53.4954977
  90.0495815  62.3566246  36.5149951  89.8637962  62.9414034  35.7803178
  89.9742222  61.4767361  36.1457443  78.6617586  45.1308501   1.3306120
  79.2465087  44.4301911   1.6193607  77.7850362  44.8185914   1.5543916
  13.9922103  31.3432860  40.0707579  13.9562567  32.2294593  40.4308081
  14.9103984  31.0868716  40.1567936   7.2749385  73.7315989  73.3464384
   7.5972518  73.6953831  72.4458647   6.3243540  73.6553431  73.2638693
   3.2691630  52.6893139  35.6262898   2.9929980  53.5714722  35.3777814
   3.7971648  52.3866034  34.8875022  79.6950579  70.1142025  52.4904585
  79.9370193  70.6842375  53.2203579  80.4554081  70.1334047  51.9093084
  14.1843947  28.8827395  34.7497225  14.0824469  28.3759880  35.5553532
  13.6092909  29.6387243  34.8678946  32.3530485  22.5415213  24.5141819
  31.5384246  22.2259552  24.9053791  32.0871116  22.9103692  23.6718872
  80.2903557  44.0985346  71.3601208  81.1190319  43.8346815  70.9602356
  79.8421383  44.5961809  70.6762457  76.1325169  72.7539253  71.1896896
  75.5254841  72.3329735  71.7984104  75.5822039  73.3386087  70.6686020
  66.5689087  50.9579992  67.4884367  65.8685350  51.1849499  68.1001520
  67.2861433  51.5499210  67.7152300  62.4072123  75.2382851  53.2584429
  61.6984463  74.9190855  53.8170052  62.1762657  76.1489916  53.0753803
  24.4338017  77.1873792  19.7370651  24.0546112  77.8161963  19.1230323
  24.2457466  77.5533207  20.6013324  77.2693920  49.5959997  34.4640422
  76.6080570  48.9724874  34.7642159  77.0049572  50.4305315  34.8511648
   7.0319613   1.9676669  56.2538481   6.1514243   2.3353982  56.1786079
   7.0047911   1.4428400  57.0538807  72.8058835  12.3065733  69.6664000
  72.6890775  13.2479643  69.7943497  72.6013490  12.1632456  68.7423563
  45.5481892   1.1993193  33.3159304  45.4754429   1.8375467  34.0255809
  44.8518257   1.4401030  32.7049303  46.5354805  80.2914461  27.1808746
  45.5791550  80.2514847  27.1720150  46.7471390  80.7879408  27.9713943
   6.2013587  50.0279522  53.5289526   6.1408290  50.9764910  53.4156370
   5.7665881  49.6662521  52.7566957   2.7871379  80.3875160  68.0948687
   2.8236064  80.2870369  69.0460825   1.8691691  80.2320290  67.8726244
  20.6285240   6.8451960   5.2970436  20.7320548   6.3025744   6.0787513
  20.1058771   6.3089783   4.7007682  73.9487936  44.1212304  21.4870575
  74.4163133  44.7876866  21.9905498  73.7143709  44.5596440  20.6690910
  31.0887720   5.1672871   3.9318016  31.2058498   4.9306376   3.0117347
  30.8981706   4.3379242   4.3700483  75.2800608  36.9687152  70.1583052
  75.8102369  37.7440643  70.3426313  75.8303547  36.2329340  70.4267025
  75.6271219  80.3651810  58.8568115  74.7272873  80.6456375  59.0237570
  75.7225084  79.5553541  59.3581152  44.3267871  39.3138535  13.6368969
  45.1910259  38.9186318  13.7514618  44.3523885  40.1056416  14.1741684
  76.0430431  51.5850687  59.2537498  75.4826498  52.3600483  59.2136908
  75.8211136  51.0880613  58.4663725  72.7503969  28.0209048   4.8691728
  71.8371393  27.9637606   4.5882061  72.8549482  27.3013051   5.4916504
  68.6290073  36.3215613  51.6232347  68.2118940  35.6040645  52.1001482
  69.5624352  36.2233090  51.8110800  21.9026928  26.7604422  45.5487490
  21.7560082  27.6387953  45.8997440  22.2047596  26.9080137  44.6525288
   6.8944605  77.1431875  24.3344307   6.2403163  76.5582609  23.9520836
   6.3964327  77.9137182  24.6073341  15.4776152  51.2303972  17.2248912
  16.2519320  51.2551594  16.6627014  15.2586325  52.1505928  17.3716044
  87.6777744  53.2812881  48.9729261  87.6155472  52.3957968  48.6147833
  88.1198788  53.1687784  49.8144245  74.5993471  51.4687395  42.6586914
  75.4426241  51.1637449  42.3238802  74.8251152  52.0320654  43.3989096
  33.5102062  13.9383577  61.8886280  33.9857655  13.3288549  61.3242054
  33.3864765  13.4592127  62.7079821  74.6437359  46.1315060  51.2404776
  75.2735519  46.8325901  51.4079475  73.7882662  46.5495205  51.3387775
  90.9968853  38.0584931  63.6543369  90.3650093  37.9878664  64.3698597
  90.7593632  38.8691664  63.2041931  91.3003254  45.6794453  29.4261670
  90.9063625  46.1629772  30.1522660  90.9191895  44.8035049  29.4869423
  62.9730654  45.9588957  65.2044868  63.3465958  45.5792809  64.4091225
  62.4324131  45.2599335  65.5724287  82.4570751  65.4128742  66.9747543
  82.9269695  65.5619097  67.7952528  82.9292583  65.9389448  66.3293648
   6.2888201  66.4228868  32.5707483   6.7043265  67.2486115  32.8192735
   5.3995284  66.4879608  32.9188466   4.4403514  59.2898321  24.3816209
   4.8518141  60.1439476  24.2496300   5.1587924  58.7166548  24.6491075
  42.5641633  24.0854342  54.9825790  41.8703271  24.6643622  55.2982834
  42.1805669  23.6424286  54.2257240   3.0732878  69.1113663  43.3854580
   3.5735472  69.6409559  44.0063524   2.7261122  69.7438622  42.7564526
  12.5017815  73.6951955   7.5455120  11.5963965  74.0041169   7.5784137
  12.4341326  72.7449091   7.6383045  74.9653912  61.4542007  52.1951008
  75.5715084  60.7134867  52.2091150  75.5260468  62.2201586  52.0718098
  19.1525897  79.9000072  59.3447924  18.5212763  79.1817236  59.3029785
  19.5366629  79.8307419  60.2188206   3.3132534   8.3666109  32.1100664
   3.7272959   7.8701281  31.4041615   2.6559095   7.7703451  32.4686599
  41.7480279   9.6459277   8.2452896  41.1329605  10.0246317   8.8733890
  41.2142326   9.0556271   7.7134636  57.9725122  60.7424450  62.7426958
  57.5373793  61.2400532  62.0503998  58.7145329  61.2893677  63.0005932
  27.4928912  42.5641823  39.4792032  27.0197447  42.6713991  40.3043509
  27.4323615  43.4203196  39.0554118  42.7500038  27.0705580  60.6307983
  41.9547253  27.6032137  60.6371164  43.3847408  27.5818800  61.1326742
  44.2610933  14.2522080   6.0336425  44.2711975  13.8144572   5.1824691
  44.2152597  13.5382874   6.6696098  13.0027636  30.2714086  48.2626438
  12.9775771  30.3903103  47.3131895  12.4043425  29.5430326  48.4287643
  47.9311086  42.4664910  13.7934139  48.6188032  41.8791039  14.1069057
  48.3626129  43.0102284  13.1343391  28.0425243  82.7906164  21.6715553
  28.4516602  83.0200299  20.8371666  27.1929531  83.2311114  21.6508510
  83.7551519  15.1807665  66.2324333  83.6467906  16.1177229  66.0693884
  82.9922315  14.9392389  66.7576504  60.4769468  41.6794109  58.7589741
  60.2598858  41.1884880  57.9664373  59.8412943  42.3947906  58.7792158
  61.7233944  38.8684678  61.9103622  60.8928347  39.2535710  62.1898222
  61.7039919  37.9776049  62.2599602   4.8011359  40.6672382  65.7824135
   4.3567141  40.2763748  66.5347099   5.3523787  39.9644756  65.4381847
  56.8183805   1.0436470   6.4898327  57.6543428   1.4708645   6.3030651
  56.2300970   1.7610772   6.7252948  21.2287291  18.5879433  21.0524726
  21.5616759  17.9828405  21.7152143  21.6136988  18.2800007  20.2319837
  73.3980560  66.1485243  46.2966442  72.7673292  65.6334734  46.7997646
  73.7639904  66.7650509  46.9308519  87.8733635  53.7447357  66.5778685
  88.7106609  54.1904354  66.7063475  87.4148083  54.2787838  65.9292173
  82.6358509  47.7931881  44.9719143  81.9786167  47.9898739  45.6394386
  82.1531010  47.3241091  44.2913628   8.7177619  24.8340440  59.7717857
   8.1219157  25.5598474  59.5862818   9.5074805  25.2537060  60.1130438
  70.2163507  21.5653164   4.1827181  70.2708055  22.3044951   4.7884252
  69.4250394  21.7328818   3.6708715  43.9066029  16.9946778  26.1352348
  43.2836962  17.7124345  26.0210443  43.9815235  16.6019201  25.2655458
   5.6042536  24.4128561  26.0346317   6.0612925  23.7050891  25.5803013
   6.2471350  24.7521567  26.6573787  66.1509943  21.8683839  57.9513168
  65.9762955  21.7055202  57.0243931  65.7688093  22.7297425  58.1193399
  23.9993724  73.6564970  32.3436141  24.7989138  73.4754324  32.8377604
  24.2838725  74.2241287  31.6273189  89.8560238  49.5593405  48.9753628
  90.0773239  48.6741734  48.6859941  89.0469837  49.7686625  48.5085964
  21.3265972  85.1244076   0.7982519  20.8519249  85.8261689   1.2437370
  21.6476898  85.5270918  -0.0085804   2.3646315  26.6757464  49.0048647
   1.9803008  26.3540387  49.8203564   2.5471648  25.8847308  48.4977055
  14.4765814  61.7675924  53.9371204  15.2813491  61.7471266  53.4192753
  14.3519648  62.6925516  54.1496229  66.7315722  56.6022730  49.6074009
  67.2491789  56.4193106  48.8232803  66.1195803  55.8686876  49.6669626
  58.5512735  29.5371468   1.9631794  58.3057882  30.0753863   1.2106731
  58.8702775  30.1641686   2.6122644  64.6761514   9.7364266   3.9838770
  64.8769666   9.8578007   4.9118688  65.4681875  10.0214226   3.5281542
  88.7876129  64.9673462  65.9730577  88.0494595  64.8243809  66.5654373
  88.4033489  64.9264240  65.0973320  91.1614323  65.8141613  63.7925911
  90.6598949  66.6074514  63.6045027  91.0117149  65.2505398  63.0335474
  24.8584994  52.5130796  52.3496008  25.0785025  52.7017927  51.4373398
  23.9083537  52.3971319  52.3477888  83.7520218  43.3712339  64.5461178
  84.5944118  43.0525351  64.8702288  83.2132816  42.5841999  64.4650984
  76.3313178  79.8323197  38.3303690  77.2737197  79.8428864  38.4976816
  76.2170104  79.1733707  37.6455688  22.9804183   4.1699440   2.3116520
  23.8754322   4.5040925   2.2522667  22.9328968   3.7650425   3.1776979
  83.8464929  10.9125884   5.3203180  83.4156133  11.6727574   5.7111099
  83.2852174  10.1730616   5.5533340  85.5289745  57.7543736  54.4391441
  84.9616432  58.5208178  54.3559170  86.2360001  57.9106188  53.8130999
  85.4172230  21.3185978  65.9985209  86.0553646  22.0187879  66.1354160
  84.6611595  21.7566419  65.6077337  16.1743792  70.5282688  71.1340332
  15.3332862  70.4211903  71.5782499  16.6671809  71.1268950  71.6953087
  11.1125430  63.3571148  40.9465599  10.5662211  64.1405296  41.0099745
  11.8260535  63.6094809  40.3605223   7.0607241  37.9608464  50.8837509
   6.3642844  37.3148632  51.0016680   6.6113623  38.8055110  50.9127378
  82.3312473  39.0591717  46.3252878  82.9408836  38.4103751  46.6769123
  82.6691628  39.8988438  46.6367197  19.7690066   3.7208134  72.5630665
  18.9946135   3.3596250  72.1316767  20.5003604   3.2214546  72.1997595
  71.1126518  52.7275753  56.1978245  71.0270166  53.5697937  56.6445541
  71.0940123  52.0798063  56.9022942  66.4958574  12.9398949  27.5500229
  66.1687757  12.5525172  26.7381218  67.2791482  12.4311907  27.7595546
  74.3744946  40.6107187  73.7132359  75.3204870  40.5779791  73.8555765
  74.1915703  41.5322924  73.5302639  71.9509077  55.5219364  35.5194497
  71.3011217  56.1751604  35.2600169  71.8552256  54.8200941  34.8756337
  76.9627162  22.8096365  25.1706290  76.3862487  23.5505842  24.9837899
  76.3771984  22.1276831  25.4997730  69.1043901  58.1104612  69.1451073
  68.9441919  58.7856293  68.4857750  68.7737036  57.3047113  68.7480640
  53.6957550  38.1185484  72.8883314  53.0465651  37.5445580  73.2949209
  54.4206476  37.5365353  72.6602459  56.5393400  21.6810369  66.0183191
  57.4431229  21.3717937  65.9568214  56.1349964  21.4041948  65.1960707
  10.7219180  40.6206560  41.9036484   9.8651847  40.9674835  42.1525431
  11.3315161  41.0201502  42.5241566  85.0558853  69.9185228  72.2185850
  85.1350594  69.0473795  71.8299007  85.9595871  70.2109766  72.3370409
  59.5404196  31.1644602  70.0306845  59.4647741  31.3974524  69.1053629
  58.7885189  30.5958652  70.1967430  21.8511562   7.3918604  58.2510281
  21.7008381   8.2849573  57.9411745  22.8008823   7.2802805  58.2085657
  40.7409145  10.8448489  10.5842617  40.4959012  10.3623326  11.3738086
  40.8528377  11.7481024  10.8806446   6.5836268  19.1125654  26.4309835
   6.9563417  18.7398314  27.2299695   7.2612553  18.9829420  25.7674694
  24.9496802  63.0187607  68.6854982  25.2545890  63.9259577  68.6695433
  24.9421462  62.7524090  67.7661324  12.8079756  32.6085091  16.7498589
  12.4907359  33.1373572  16.0178030  13.7426242  32.8082919  16.8023133
  27.5229796  58.6041594  60.1438761  27.5531348  59.0239143  59.2841530
  27.2398432  57.7078629  59.9630022  81.4326859  38.6862421  41.8912601
  81.8333340  38.8894272  41.0460234  80.5834961  39.1272283  41.8659878
  25.3806068  11.6586382  27.8971031  25.3197481  11.0115225  27.1944168
  25.9113265  12.3643191  27.5275257  70.2452661  17.5185235  16.5721538
  69.7178270  17.4954302  17.3705986  70.9144212  16.8476231  16.7076614
  55.7188206  82.4195941  12.2111919  56.1150341  82.7412589  13.0209949
  55.8176689  81.4686378  12.2574546   2.8522166  70.2204466  69.1251421
   3.1510123  69.9384594  69.9896860   2.9554423  69.4462633  68.5717773
  48.2709675  80.9532698   4.3756988  48.9605503  81.3924178   3.8778522
  48.6464386  80.1036771   4.6068742  86.6890430  25.9694552  65.5950928
  87.3086071  25.7676101  64.8939276  86.7306232  26.9215417  65.6847239
  30.2960281  84.3131741   1.6136291  30.9871655  83.6544188   1.5458038
  29.6184998  84.0127285   1.0078886  35.1881962  76.5189227   3.9425495
  35.2985268  75.6426795   3.5734155  35.8307056  77.0565232   3.4795120
  62.1542263  18.6790717  57.8064346  62.6242495  17.9696262  57.3682594
  62.4099016  18.6037970  58.7257814  44.0282585   9.1595395   2.0241001
  43.5252954   8.3582909   1.8782785  43.4104396   9.8670371   1.8397691
  15.8059844  61.9105387  63.9332104  16.1189803  61.1973953  63.3767128
  16.0739478  61.6597652  64.8172569   6.0112342  37.0055699  48.0788088
   6.7141017  36.4378214  48.3948183   6.4374694  37.5861192  47.4483156
   7.9725321  48.8372087  46.5394735   8.4652194  49.1398001  47.3023224
   8.2870349  49.3835020  45.8191347   2.5045546  56.8738365  73.9413261
   2.7505931  57.4449205  73.2136202   1.9364031  57.4153376  74.4892359
  68.2821941  32.9630518  57.0793867  68.2297516  33.9060307  57.2351885
  68.3554173  32.8811073  56.1285162  60.6814004  35.4182036   0.7844951
  59.8210050  35.7714446   1.0106971  60.7563211  35.5562909  -0.1597235
  23.4509238   8.8476217  37.7278280  22.7441176   9.3772048  37.3587751
  23.1100901   8.5468560  38.5702085  65.1926042  20.9707530  24.4863155
  64.5693399  21.5518601  24.9222973  66.0310937  21.4280970  24.5495632
  64.8123789  50.9080935  43.5755682  65.2463150  50.7113314  42.7453756
  65.5222702  51.1752033  44.1594696  26.6849213  -0.0393320  63.1270027
  26.2871056   0.8252024  63.0242252  27.6254063   0.1184439  63.0444288
  82.1337414  57.2911453  73.8107443  81.3191509  56.9019985  74.1289330
  82.4720192  56.6560507  73.1795120  33.8918878  27.2816737  13.4073951
  33.8526107  28.2353146  13.4798649  34.4060613  27.1225960  12.6158455
  82.3605156  62.9932690  61.3038206  82.3726559  62.3088026  61.9728422
  81.5465832  62.8436279  60.8228207  71.3799429  18.0909479  59.6007586
  70.4364967  17.9351354  59.5575809  71.7463303  17.5342190  58.9137030
  69.9596453  60.2944374  58.3121395  70.3867865  61.0932493  58.6214590
  69.4162226  60.0130081  59.0481567  10.8497676  46.8274117  43.8523054
  10.9924563  46.0542965  44.3983459   9.9182852  46.7977810  43.6339092
   7.6673850  19.9275744  68.3430672   7.4983367  20.7347655  68.8289690
   8.4331950  19.5457423  68.7719679  23.0841427  15.4834913  52.0656967
  23.1055336  14.8505663  51.3479328  23.9946632  15.7604956  52.1679783
  70.4557514  53.7845516  43.2273865  70.7133865  54.1164637  42.3673344
  70.7037354  52.8601694  43.2114983  63.0784750  40.6190491  66.0774040
  62.8350115  40.9838486  65.2265930  62.6357985  41.1801624  66.7141294
  46.4144803  20.3516800  18.5724762  45.5664827  20.7632477  18.7390354
  46.9406463  21.0420353  18.1690147  68.4174013  70.8014679  15.8039355
  68.1335402  70.7531881  14.8910689  69.2736197  71.2277365  15.7662892
  64.1978550  32.2667384  52.3113632  63.6970186  31.6020107  51.8385744
  64.3102121  31.9024801  53.1893873  74.0908432  34.6302915  45.9682035
  73.6960649  33.9231157  46.4783859  74.0967607  34.3024158  45.0689316
  86.2013531  34.8297691  53.5140467  85.6405830  34.3206787  52.9287291
  86.4067841  35.6228924  53.0190897   5.4142437  34.9814112  25.3444603
   5.2952252  34.2313082  24.7618702   4.6658383  35.5489809  25.1601150
  81.6923046  82.4064922  72.0669413  81.5306187  82.9502583  71.2959576
  81.4756584  81.5183163  71.7833233  82.3136016  46.8346854   6.1501815
  83.0218383  46.7848014   6.7921665  81.8146392  47.6111656   6.4038589
  82.4417782  10.3535354  59.6336555  82.3271179  10.8317268  58.8124228
  83.3726788  10.1315701  59.6536064  25.7164344  43.8325787  65.5411053
  26.3269385  44.5273113  65.2943945  26.1000975  43.4447527  66.3276386
  65.7672311  22.4109728   1.6070059  66.4223100  22.9111845   1.1202791
  65.5152894  22.9858143   2.3297193  16.6179141  26.1820173  14.7982121
  16.8294963  26.4620900  15.6887305  16.0502204  26.8736124  14.4581401
  85.6172371  67.6446915  70.9751463  86.5295219  67.8247929  70.7481575
  85.4701138  66.7458677  70.6806993  87.6905155  48.2852888  66.2606764
  87.6024532  49.2374992  66.3027382  86.8372345  47.9791784  65.9533501
  53.5562612  29.1763623   7.4525955  52.8773405  28.5021527   7.4252918
  54.2900182  28.7971194   6.9688633  69.0891838  71.2069511  44.5164204
  69.0055323  70.6010866  43.7801027  68.2177114  71.2249899  44.9119473
  11.7731341  29.2008924  45.7062769  12.4439200  29.5157719  45.1003599
  10.9634551  29.6100378  45.4009104  31.0912209  60.4650982  24.2448738
  31.0678272  60.0531145  25.1085594  30.1751499  60.4951056  23.9689281
  85.8422375  42.9737425  33.5894871  85.8015442  42.3232794  32.8884315
  86.3623333  42.5546741  34.2751408  21.6958102  47.5744724  66.0612726
  22.3739585  47.0238733  66.4526510  21.0563334  46.9542837  65.7110214
  71.8898726  45.8352709  25.9577608  72.5041437  45.4515839  25.3319097
  71.2486458  45.1431370  26.1190414  22.2900923  52.2703314  53.2735634
  22.0324572  52.8886366  52.5897789  22.2919520  52.7895927  54.0776777
  75.8411503  53.2340527  44.5632601  76.4371347  52.9232025  45.2447319
  76.3355255  53.9130974  44.1042185  80.4718304  44.4188356  29.6361232
  81.0066223  43.6270666  29.5784116  81.0670948  45.1281261  29.3936467
  78.5809347  46.9496950  13.5264614  77.6329729  46.9402706  13.3941295
  78.7511703  46.1971988  14.0930298  63.1194925  27.4293947  56.4910126
  62.7841473  28.2025099  56.0370684  62.4167299  27.1805239  57.0913649
  76.3292503  76.6581059  48.8598967  76.4858055  77.6016378  48.8215065
  75.3812551  76.5684557  48.7624121  85.7637501  35.8222556  56.5910387
  85.9517765  36.6601682  57.0138693  85.5150414  36.0557604  55.6966972
  70.5874634  67.6530790  49.7856808  70.9182024  66.7564297  49.8391581
  70.1649952  67.7017927  48.9281416  24.4524174  82.5421580   8.7728813
  23.6139851  82.8231748   9.1393497  25.0106125  83.3176716   8.8296821
  16.0874518  41.3814592  57.2552729  16.0747393  42.1828842  57.7785158
  16.7993411  41.5152168  56.6295338  29.5117053  76.2596416  61.8572283
  30.1243170  75.7170630  61.3606930  30.0300368  77.0160007  62.1319628
  26.6139277  77.1423244  42.9353666  26.2500819  76.8748617  42.0913792
  27.4567755  77.5402927  42.7175331  12.1686705  57.3831224  74.5475960
  12.6446112  57.3514271  73.7177086  11.9203242  56.4741945  74.7161388
  86.3416767  47.7302790  38.3078623  86.4402580  48.4808874  38.8936090
  86.1747837  48.1173849  37.4484873   1.1980780  84.2843246  43.2522154
   0.5508383  84.8153591  42.7882051   2.0371398  84.6977615  43.0490685
  14.8133783  77.4174698   7.5721481  15.0169497  77.9826220   8.3173969
  13.9329319  77.6813396   7.3049190  66.7348480  22.8914094  61.9331360
  66.7114496  23.7232661  61.4601660  67.6662064  22.7238393  62.0770645
  61.0685444  55.5037785  51.6765451  60.6055689  56.3327599  51.7976856
  61.0075569  55.0688744  52.5270557  13.3810767  36.0585713  49.2121792
  14.3278559  36.1810184  49.2818546  13.1067141  35.8059955  50.0937462
  77.7071142  17.1034324  46.3175869  77.4268818  17.6578069  45.5893183
  76.9859171  16.4860713  46.4399481  11.1763247  54.6966696  64.5503283
  10.7796630  55.5462790  64.3578196  10.5719718  54.2845583  65.1676989
  89.1383839  36.9554305  50.5342865  88.6594486  36.2247038  50.9253025
  89.8787498  37.0993161  51.1236906  86.0534477  37.5304890  58.9799690
  86.6647530  38.2537413  58.8405180  86.5188026  36.9330645  59.5654345
  70.6212187  80.0077248  72.7953482  71.5103626  79.9052715  73.1346941
  70.1674604  80.5211830  73.4637022  79.1174078  76.8081188  55.8297014
  78.7082577  76.0310555  55.4489136  79.0212202  76.6906786  56.7747879
  65.1450539  61.7776775  31.3265872  65.9003019  61.5052223  31.8477345
  64.4482708  61.9151497  31.9683266  21.5814476   0.2918695  42.4928236
  20.8079891  -0.1482988  42.1403456  21.7337971   1.0237383  41.8949986
  26.5503388   3.3632158  37.7603269  27.1101646   3.0441355  38.4681463
  26.2782745   2.5722002  37.2950196  57.6960184  36.4662392  18.0655220
  56.9494630  37.0652420  18.0743530  58.3268930  36.8784792  17.4753692
  51.8127136  11.3349127  65.0987959  52.3869019  10.6007074  65.3166962
  52.0497398  11.5659689  64.2006493   0.8152827  68.4612703  53.5513401
   0.2811202  68.8897514  52.8825331   0.5086096  68.8340759  54.3778992
  72.6994228  43.8750648  42.9852629  73.5322523  43.9726543  43.4468985
  72.1326160  44.5436764  43.3698702  16.1208686   3.5775280  42.0114613
  16.9212874   3.5571751  41.4869165  15.4176291   3.6860728  41.3712168
  41.3985157  49.1727877  72.8260040  41.9101381  48.5329676  73.3210802
  40.7826996  48.6451721  72.3174524  90.9843826  49.0198946  34.0720129
  91.4442253  49.6347189  33.5003781  90.3246117  49.5529318  34.5156455
  88.3158493  56.4552450  61.2448263  88.0296516  57.3583078  61.3819551
  87.7370930  56.1220932  60.5590582  77.3130608  81.8025017  45.8368015
  77.3176098  82.1119404  46.7425919  76.4738464  81.3520336  45.7417965
  21.2246951  47.8093576  19.8501170  20.5505141  48.4887934  19.8417032
  20.8377513  47.0819378  19.3629217  89.5859814  63.7267685  70.6503916
  89.5179272  63.0685520  69.9587631  89.1950512  64.5139313  70.2712059
  26.1009388   8.9655565  55.4929495  25.7309609   8.2062315  55.9432602
  25.3414135   9.4997477  55.2605724  79.9622011  67.6673985  69.5018053
  80.9139633  67.6055908  69.5828581  79.6420383  66.8086386  69.7779512
  64.3294382  65.4299116  65.1605177  64.4911289  66.3723516  65.2039957
  63.4233427  65.3559208  64.8609447  10.2508887  61.9086361  72.5498772
  10.0926646  62.0231628  73.4869385  10.4765853  60.9831333  72.4564457
  88.0341339  42.0263863  36.2776303  87.4515247  41.2675142  36.3075876
  88.9091587  41.6525984  36.1734557  34.4876270  59.5356759  17.0671585
  34.9667435  60.0204106  17.7392509  34.3820839  60.1610645  16.3502338
  79.9481916  48.8779736  34.7272754  80.5692577  49.6058035  34.7551417
  79.1053104  49.2895317  34.5364690   9.8556452  84.4422348  14.6450546
  10.5950670  83.8351544  14.6757343   9.5048885  84.4376715  15.5356529
  16.2563189  72.2302532  15.7459414  15.6592425  71.5372133  16.0277605
  17.1136817  71.8064451  15.7066774  74.1158010  12.9389985  41.0259082
  74.2617990  12.2458394  41.6696861  73.4973623  13.5336716  41.4503315
  81.4606667  51.2828588  48.0481195  81.8905163  51.8512297  48.6871910
  80.5283642  51.4778662  48.1430244  11.8415793  48.8224649  51.4254475
  11.3640460  49.3820000  52.0379114  12.6535376  49.2979717  51.2497902
  36.1309387  30.8984597  14.6815517  35.9621669  31.1777480  15.5814197
  35.3436471  30.4162724  14.4287803  61.7947008  19.2118914  18.5580852
  61.6288854  18.3376248  18.2053878  61.7024423  19.7954400  17.8049686
   6.3127383  61.4407301  46.1996126   5.5718764  60.9337854  45.8674049
   7.0485362  61.1809492  45.6452274  90.7859489   1.9602655  57.8415585
  89.9383518   1.5657019  58.0468035  90.8224603   2.7463507  58.3865166
  11.2397270   4.3417620  45.7305527  11.9525271   4.5793699  45.1375246
  10.7910614   3.6206984  45.2889585  87.9858875  58.4894180  72.4903202
  88.2540703  57.9495621  71.7467690  87.1103382  58.7988567  72.2581911
  25.3310634  17.4724228  17.5134876  25.5819894  18.0263932  18.2526710
  25.9822704  17.6640875  16.8386390  65.8004236  75.2829409  68.3723497
  66.0485554  74.5177889  68.8912010  64.9176979  75.4997587  68.6723852
  46.3389092   8.3825850  61.3950777  46.3301258   7.8478788  62.1889591
  45.4449349   8.3252501  61.0577917  57.6466562  20.6134016  25.3297832
  57.9582120  19.7340281  25.5439499  57.3657705  20.9788973  26.1686733
   6.8975505  66.6671133  74.3834257   7.5768336  67.3413420  74.3981314
   6.2258109  67.0166206  73.7978935   0.6266556  53.1001885  30.2219513
   0.3509483  53.6662610  29.5009926   1.4131603  52.6628525  29.8957946
  77.8779650  54.9829435  48.1034565  77.9834223  55.5760574  48.8473177
  76.9332886  54.9546432  47.9517460  75.1992607  34.2030740  54.5249987
  74.6150255  33.5881495  54.9685812  75.2696466  34.9435949  55.1274157
  14.6070536  41.6153669  36.6237402  14.7662505  42.3528671  37.2127938
  14.4590243  40.8707857  37.2067642  69.4703722  53.0494499  63.8460064
  69.4670057  53.0866385  64.8024750  69.4697285  53.9661932  63.5706615
  82.5949192  55.4569912  57.9561996  82.8352070  55.9120989  57.1491241
  82.1264744  54.6763515  57.6605940  13.1034239  53.9119577  62.8667736
  13.0249079  54.5533323  62.1605825  12.4502238  54.1842175  63.5113144
  26.0407211  44.4721730   6.4597442  25.7717897  43.5771019   6.2529781
  26.5687324  44.7431500   5.7087448  26.2914427  76.3305807  33.5146403
  26.1888655  77.2078276  33.8836193  25.5341300  76.2227011  32.9392552
  57.8497316  38.6797745   1.6623333  57.5766183  38.7769444   2.5745800
  58.1173231  37.7636845   1.5887144  47.0446397  29.5724852  11.1374881
  47.4484397  29.7325356  10.2845123  46.4675952  28.8226826  10.9923961
  26.6694888  60.1895046  66.8599319  26.9419917  59.5083809  67.4747849
  27.0041236  61.0022211  67.2390652  61.7838097  83.3649349  41.8213797
  61.4108801  84.2371368  41.9495583  61.1351967  82.9027843  41.2903976
  57.9481603  21.7954333   8.1500271  58.2889558  22.6879437   8.0907657
  58.6801530  21.2410958   7.8796032   7.9052982  22.1737940   8.5625484
   7.7076302  23.0307944   8.1847694   7.6805840  22.2627242   9.4887378
  86.1293221  70.1460218  68.8076687  85.1858330  70.0431824  68.6832094
  86.2236881  71.0007381  69.2281294   1.9040545  72.3923731  34.2868376
   1.1910590  72.2688675  34.9134326   1.4828452  72.7747726  33.5170412
  80.9070664   0.5293345  52.4386263  81.2348251   0.9538054  51.6457653
  80.1919251   1.0929178  52.7338839  68.6112596  66.4206345   4.9440315
  69.0081026  66.4322121   5.8150127  68.5085107  67.3444207   4.7153547
  37.0824795  18.0954908  46.3734245  37.5230103  17.2573351  46.5136528
  37.4540215  18.4275698  45.5561686  78.2756376  31.6848207  26.6838765
  77.8774261  32.4629331  26.2937450  77.5395489  31.0948491  26.8461704
  74.9097063  18.6590846   8.6762359  75.3101446  19.4027789   8.2259014
  75.6459810  18.0897696   8.8998535  66.8222619  73.6112244  35.6560257
  66.5215875  74.4051487  35.2138546  67.7352430  73.5169156  35.3843620
  42.5633098   7.2377617   1.0134819  41.9124080   7.3724301   0.3246954
  43.0328132   6.4469798   0.7480409  62.7917863  24.0698178  15.6587818
  61.8603803  24.2839510  15.6054332  62.8124143  23.1222422  15.7925918
  49.0046291  23.6523127  57.2319126  48.4438877  23.6849569  56.4568472
  49.8410873  24.0129255  56.9377375   2.9946669  43.9976692  16.1072600
   2.5523242  44.7995424  16.3857722   3.5092314  44.2606544  15.3441823
  42.9580118   6.2429936  11.8563488  42.0721771   6.2356551  12.2189548
  42.8862668   6.7683918  11.0594490  82.4391557   9.5179589  10.6000068
  83.0585481  10.1156123  11.0188129  81.6982652   9.4784243  11.2047699
  68.0884077   7.8243811   1.3673666  68.9764787   7.8604729   1.0120323
  67.8391458   6.9029648   1.2960127  15.5128821  37.8167748  29.8742652
  15.8292731  36.9584227  30.1559758  14.6740111  37.6355410  29.4503784
  85.2628899  60.5529356  50.3123283  85.7221603  61.3690186  50.5105829
  84.4492722  60.8319283  49.8922920  12.3379477  71.4143419  20.2561355
  12.3849162  71.8305397  21.1168361  12.2551592  70.4798555  20.4461718
  12.0383414  60.3354836  53.5737181  11.4638957  60.4701090  54.3274546
  12.9115637  60.5603647  53.8948917  22.6006414  42.1811039   2.3301914
  23.5179712  42.4504025   2.3773554  22.6066877  41.2622197   2.5982359
   7.7867565  10.0817568   4.0154770   7.8142796  10.3353150   4.9380710
   7.1555672   9.3628724   3.9833810  56.3214283   1.7808889  40.4954147
  55.9380417   1.3772940  39.7167182  56.1307697   2.7140497  40.4000521
  50.9496213  55.8109219   9.7502353  51.4474679  56.0511620  10.5316856
  50.8571054  54.8599656   9.8081424  55.3885249   4.4728891  73.4915813
  55.5202654   4.1208498  72.6112731  55.8228568   5.3257314  73.4759569
  70.6724691  47.6139641  40.9131098  70.2335262  48.4471083  41.0846710
  71.5843058  47.8533316  40.7473135  88.1653786  29.6245241  51.2276983
  88.3441925  28.6879396  51.3117552  88.4825802  30.0034428  52.0474720
  39.8576166  44.2086728  27.7558925  39.1393615  43.5839303  27.8561046
  40.0656415  44.4798882  28.6499908   8.7200670  15.8193850  61.4672518
   7.9517298  15.8797907  62.0349121   9.4529085  15.6893419  62.0691347
  88.1077957  79.2294788  56.7000771  88.5350990  79.7656965  56.0321569
  87.3371506  79.7358561  56.9568300  12.2085723  27.4724317  63.9544010
  12.8633078  26.9290090  64.3928528  11.4420375  26.9049716  63.8728571
  47.0763187  13.9258265  58.4081507  46.8823891  14.5861982  57.7429199
  46.8023377  14.3283533  59.2322445  36.7004110  23.8590414  30.2977112
  36.9262935  24.7662814  30.0924614  35.7659008  23.8855011  30.5031898
  68.6758710  23.4369357   7.8911998  67.9730131  24.0668709   8.0505588
  68.6462213  22.8489621   8.6459377  52.9213811   9.5219262  20.5831936
  53.5637857   8.8496525  20.3560665  53.3549501  10.0510628  21.2527206
  25.4910450  11.0251497  68.8009310  25.4295235  10.6750845  67.9121637
  26.4308624  11.1168837  68.9576960  86.3065434  47.0176363  56.9009590
  85.3974724  46.9656610  56.6058159  86.2565422  47.4434423  57.7567768
  73.5005474  69.6682310  31.0016584  74.1339588  70.3061199  31.3304710
  72.9506111  69.4648933  31.7582655   0.7427939  50.4584503  50.2272511
  -0.1844922  50.5365896  50.0030422   1.1214503  49.9533319  49.5077324
  20.8864833  31.9763739   1.6063049  21.8342020  31.9936545   1.4730337
  20.7690908  32.2229369   2.5237253  20.3361874   5.7245516  21.4373732
  20.8074837   6.5290426  21.6539478  20.8592682   5.3193354  20.7456970
  21.3714388  63.4989596  73.6095572  21.5151623  62.6566792  74.0409946
  20.7811860  63.2983709  72.8831959  35.6456327  22.9396248  38.3100796
  35.8166552  22.0416188  38.5939193  36.4996886  23.2691860  38.0304193
  87.1281357  69.2717327  34.5666862  87.7253241  69.9429096  34.2363548
  86.3834853  69.2969657  33.9657784  24.3521908  77.3181988  35.3708768
  24.8815659  77.9843385  34.9324107  23.5840777  77.2147150  34.8091578
  52.9070139  20.0385189  52.2340345  52.7879238  20.8610511  51.7591763
  52.3566961  20.1292205  53.0119514  46.4882612   6.3172936  57.8610468
  45.9636593   7.1118033  57.7621651  45.8747673   5.6659836  58.2011318
  19.8536643   6.8019813  56.0298586  19.3883189   7.5298744  56.4420033
  20.5839976   6.6192043  56.6209936  38.5193610  28.9152575  54.3023443
  38.5831523  28.1954265  53.6746454  39.2562890  28.7796569  54.8979807
  42.1301726  83.7290213  68.5195923  41.5803746  84.5125101  68.5095072
  42.4090842  83.6438620  69.4312859  80.0763416  15.1931930  65.2059793
  79.5731306  15.4960191  64.4501352  80.3457737  14.3045080  64.9738693
   2.1993116  78.3759637  44.6248913   2.2054700  79.2173536  45.0812435
   1.5181354  77.8688950  45.0666094  75.7367516  12.9206133   5.8425200
  75.4929590  13.6900866   5.3280240  76.0706425  12.2971678   5.1974905
  29.0422801  69.0389861  37.5188065  28.5054806  69.8266579  37.6062727
  28.9062098  68.5641445  38.3387089  88.6411614  52.6098300  45.5676174
  88.2087393  52.4401952  44.7306776  89.4190140  52.0521975  45.5526733
  25.8678654  56.2285567  56.2968397  26.6383771  56.6197754  56.7085361
  25.6184653  55.5153275  56.8844938  15.0254468  69.9122334  16.5405965
  15.5406931  69.1190876  16.3933837  14.2918423  69.8380054  15.9302306
  44.2666006  10.6844795  68.4150362  45.0941372  10.3837919  68.0395365
  44.3873072  11.6260958  68.5375881  77.1840675  67.1280755  38.9402795
  77.2521503  66.5678991  39.7134542  77.5896759  66.6184796  38.2388330
  44.2369059  66.7609812  36.6970491  43.4567383  66.6884638  37.2468758
  44.9681309  66.6262830  37.2998762  23.9422253  66.5171123  69.4921732
  23.9131096  67.4304415  69.2071915  23.2645634  66.4545263  70.1652908
  82.4113936  65.9561587  50.0197029  82.4443431  66.2896646  49.1230869
  81.4775271  65.8531404  50.2027607  68.1022164  56.2859031  21.2449005
  68.8772866  56.8137964  21.0530021  67.5431701  56.3926371  20.4752853
  14.7382001  75.2128185  23.8051605  15.4564599  75.8271457  23.9566207
  14.9531106  74.7938252  22.9717994  73.6846563  69.1300662   9.9473121
  74.3266174  69.2311700   9.2445400  74.2086193  69.0998300  10.7478073
  85.8848095  11.1604738  57.1623564  86.4687824  11.9043803  57.3100185
  86.3995075  10.5539060  56.6300154  39.2791486  32.0094848  32.4661660
  38.9629054  31.4306879  31.7724705  38.7068343  31.8255353  33.2110500
  48.6718893  16.2856543  24.8937941  48.0783367  16.7294562  25.4995751
  49.1290665  16.9956660  24.4431210  48.0926514  12.3928881  40.3594065
  47.5512934  11.7105865  39.9623775  48.4934092  11.9692409  41.1184502
  66.2310478  58.4320053  10.0797870  65.6086203  58.8679989   9.4977787
  66.2449142  57.5236078   9.7783687  57.2528914  76.0365380  62.9382658
  57.2549227  76.7618651  63.5628700  57.9255274  76.2696202  62.2983646
  90.5411339  44.7135925  37.8108263  90.3292465  44.0571642  38.4744763
  90.5572605  45.5420732  38.2899857  35.1063946  58.4762407  62.2949886
  35.4912356  58.6496497  61.4358902  35.8341340  58.5780264  62.9083967
  12.7227001  72.5257858   2.5612381  12.7091818  73.2956489   1.9925907
  12.0838671  72.7227839   3.2463005  61.8875933  24.8214269  31.0873675
  62.1284628  25.4822755  30.4381466  62.1129894  23.9874339  30.6751990
  17.2696519  13.2157171  40.2587795  16.8578076  13.0436516  41.1055422
  17.9599071  13.8499141  40.4526234  52.6247454  22.7332735  51.8107224
  52.6817846  22.9261374  50.8748913  51.6939783  22.5725031  51.9658375
   0.6879168  77.4623736   2.0064714  -0.0992079  77.2166213   2.4925497
   1.0605602  76.6295036   1.7171743  73.5147619   8.0146551  70.7283688
  72.9905939   7.2595763  70.9954500  74.4195032   7.7048945  70.7698679
  32.9772782  10.6510365  37.3635173  32.8292131  10.0380659  38.0836391
  32.1010423  10.9472227  37.1171045  35.4005936  75.6998242  48.8242292
  35.1926163  75.5540229  47.9013395  34.5716933  75.5588795  49.2817116
  51.6297054  27.2449994  54.6454382  50.9732914  27.8570795  54.3126965
  52.4201012  27.4455857  54.1441679  84.0194893  33.9432764  66.8625975
  84.4329071  33.6874008  67.6871252  84.5023823  34.7213197  66.5838671
  30.7930350  38.9401007  18.0057299  30.5091047  39.8066950  18.2966471
  31.7448545  39.0115404  17.9338276  19.7323588  64.1718675  32.0219207
  19.2307070  64.3740011  32.8116798  19.7866419  65.0045658  31.5529871
  55.1312920  20.4235490   7.4730041  55.7394906  21.1137184   7.7375629
  55.2488061  20.3508838   6.5258339  15.3264809  11.5513659  51.0559750
  15.6875634  11.7330754  50.1883173  16.0053945  11.8439412  51.6640091
  81.5559598  46.7456492  19.7550323  82.2535869  46.0910114  19.7866371
  81.1602231  46.7161783  20.6260994  36.4818839  65.1952220  54.6303701
  35.6528452  64.8424459  54.3071365  37.1046284  64.4755650  54.5278454
   0.6163081  19.9240160  34.4500828   0.4931697  20.8086538  34.7942972
   1.4978846  19.9326301  34.0772772  86.8466854   8.0254501  38.0525160
  86.2874413   8.8000667  37.9938293  87.3836517   8.1760895  38.8304710
  82.5697490   8.9339932  13.5963466  82.4267789   9.7762855  14.0280082
  83.3869621   9.0490373  13.1114223  73.5166311  33.3117867  43.7416601
  73.0639696  33.7506390  43.0214310  72.8800440  32.6792526  44.0746546
  19.4551146   8.9754182  37.8020000  19.9330235   9.6634859  38.2650304
  19.9575734   8.8330561  36.9998169  85.7099915  30.9152102  48.6560488
  86.5233326  31.3309360  48.9421988  85.1269341  30.9840894  49.4120455
  68.2481643  58.1648823  29.0761211  67.7524396  58.0778035  28.2619312
  67.8388163  57.5392672  29.6738460  82.7516365  15.2543306  51.3019419
  82.3151779  14.6930707  51.9428205  82.4434662  16.1369836  51.5073442
  83.8154888   1.2664460  36.7932630  84.4926739   1.5316691  37.4155951
  82.9910755   1.4612797  37.2389245  42.9051208  15.3360081  64.5378447
  43.1716824  15.1956105  63.6292934  43.4192610  16.0908544  64.8243761
  52.7319956  10.0805759  53.7476444  52.1102810  10.0786245  54.4754505
  53.4976864   9.6160120  54.0854740  77.4342823   6.7289299  37.5483799
  77.5444317   7.1817386  36.7122817  76.8526363   7.2969800  38.0535960
  64.1109896  24.3971848  44.9058294  64.7127151  24.8503900  45.4963875
  64.5982885  24.3121600  44.0863514  34.0992669  67.9306520  39.0415239
  34.4722966  68.8108862  38.9939141  34.8325041  67.3735953  39.3028283
  23.7031296  44.3874575  21.3200164  24.0852145  44.5450998  22.1833777
  22.7753857  44.2285992  21.4940572  88.1237602  32.9447579  37.9655862
  88.3859634  32.8774142  37.0474672  88.4725952  32.1519756  38.3730674
  84.4478607  11.6207683  31.2216663  84.7915649  11.2072408  32.0135570
  84.8671532  11.1475086  30.5030251  50.2469969  16.0857630  66.2384367
  50.4506969  15.8330297  67.1389151  50.7619095  15.4857206  65.6989479
  71.4383241  52.2973069  13.7342289  70.6815978  52.4347039  14.3040683
  71.2496683  52.8205450  12.9552105  41.2417534  75.2217473  61.5177059
  42.1436814  75.0906409  61.2251806  41.1219433  76.1713530  61.5064287
  51.0839558   6.3269466  48.4899664  50.2276897   6.2859005  48.9158297
  51.7124319   6.2588960  49.2087269  18.0623416  64.4361998  66.1772728
  18.2520608  65.3743411  66.1660576  17.3808793  64.3217183  65.5148983
  47.6303339   8.3147597  41.9176388  47.7886677   7.3835379  42.0725203
  46.8275261   8.3378386  41.3968754  49.6266174  26.1648083  59.3723631
  49.8998070  25.3142524  59.7160959  50.1117992  26.8020296  59.8965597
  64.6383810   3.5356468  55.8317566  64.0611649   4.2366204  55.5289555
  64.5615482   3.5573623  56.7856216  60.7536125  25.3363514  39.8919344
  60.0498199  24.9970508  40.4449129  60.3449678  26.0414791  39.3899059
  13.4912804  85.1123479  11.1450541  14.1393355  85.3401928  11.8116426
  13.5562352  84.1608695  11.0631931  75.3162289  18.5488558  57.2867298
  74.7763634  18.9438927  57.9713631  76.2122250  18.7954295  57.5161219
  85.4032130  67.9296900  55.8284521  86.2543888  67.8650642  56.2615299
  85.5398984  67.5279118  54.9704742  87.4977965  64.3382646   5.7307422
  88.3780427  64.3632174   6.1059439  87.4526448  63.4940959   5.2817774
  71.8033484  78.0174709  52.3207331  71.1165789  78.4353132  51.8011379
  72.4247817  77.6848496  51.6731071   3.2680377  21.1589622  40.6476736
   3.0259093  20.9881258  39.7374964   3.0288466  20.3577399  41.1135721
  74.5773268  23.9797974  52.3120975  75.0430918  24.1193914  53.1366062
  74.4103050  24.8615313  51.9791079  83.2094860  32.7511382  23.0941892
  82.7376652  32.9889512  23.8923502  84.1242027  32.9577899  23.2860970
  82.2206375  25.6519385  24.4204357  81.8214008  26.5204986  24.4698837
  82.5441858  25.5878647  23.5218551  75.5638838   8.8510424  44.3353558
  75.4813719   7.9112339  44.1735411  76.4582682   9.0625280  44.0678120
  68.4855270  32.8661799  44.5630360  67.7502489  32.2712994  44.4156981
  68.1892824  33.4434295  45.2667809  76.7075586  12.6140010  56.8739033
  77.4882793  12.3405886  57.3555136  76.7875195  12.1824431  56.0232592
  73.7935543   6.0640037  36.0673976  73.7275314   5.8879745  37.0059514
  73.2530451   6.8421388  35.9310484  39.7136572  85.6027423  51.0961962
  39.6785668  86.0790139  50.2666378  40.4488925  84.9983322  50.9944534
  53.1508235  72.1275784  42.5096226  52.2804335  71.8905021  42.8296757
  53.7323168  71.4662732  42.8848267  71.9135141  23.1111813  26.1234331
  71.5051365  22.5014234  26.7379713  71.3504124  23.0846429  25.3498435
  31.8468741  59.8639155  34.6415615  32.6824072  59.5355583  34.3094540
  32.0888976  60.5589844  35.2535582  60.8548689  17.8112257  43.7315035
  61.5776014  17.1908975  43.8267899  60.2076912  17.3454463  43.2019377
  64.7606373  20.6873059  44.8509932  65.3626204  20.7128763  44.1072226
  64.5662022  21.6066146  45.0334692  79.0709686  28.2352805  41.9451618
  78.9115286  27.5202227  42.5612020  79.0871382  29.0219283  42.4902821
  71.0004807  31.9253898  70.0197506  70.2483273  31.3361359  69.9624968
  71.5226746  31.7233396  69.2434025  73.6347151  16.0875285  51.0329008
  73.1133127  15.3652036  50.6827307  72.9903984  16.7529118  51.2744617
  20.4796179  13.3668292  28.3611679  19.7463282  13.2158995  27.7647233
  21.2412127  13.4521103  27.7876401  66.0251856  25.7850099  22.1235466
  65.4142904  26.0502815  21.4360332  66.7502737  26.4058113  22.0522571
  66.6551685  16.8817651  52.3579407  67.2782135  16.8180776  53.0818081
  67.0717144  16.4040184  51.6406631  76.7765856  26.5178585  50.3982639
  77.2008038  27.2551465  49.9593115  77.1686125  26.5011406  51.2713432
  61.3935947  32.6567984  32.0392871  61.0826588  33.4743667  31.6505313
  61.6673946  32.9009128  32.9234123   1.1372527  14.6424055  38.7627006
   1.9421157  14.2384100  39.0870738   0.8720454  15.2416933  39.4603729
  58.0341005   3.5504785  32.5525618  58.2967186   2.8180522  31.9950533
  58.8377571   4.0545651  32.6801085  57.5096301  73.8048840  38.3545017
  57.1512869  73.0791331  37.8435111  56.8595866  73.9591015  39.0399861
  75.0904008  50.1940020  15.2926662  74.9906274  49.6124979  16.0464027
  74.2751857  50.0915816  14.8015716  59.8974752  21.5311003  28.2774639
  59.4551420  22.3602104  28.0953836  59.2192745  20.8663869  28.1573582
  82.0944595  63.2264376  50.8499146  82.3533154  63.8502741  50.1716423
  82.0726967  63.7434816  51.6551638  29.5112877  53.4358688  15.5034855
  29.1997509  53.5430582  16.4021995  28.7882023  53.0033120  15.0493171
   0.6601008  15.6427968  67.8993225   0.1899298  14.8183239  68.0234861
   0.4450282  16.1603725  68.6752653  85.1701641  20.2728581  72.1608353
  85.7584286  19.5283496  72.0348215  84.7459507  20.1032424  73.0019665
  80.7858944  37.2892308  27.0703149  80.2937698  37.2594380  26.2498569
  80.5114079  38.1072688  27.4846840  64.9654675  20.7901716  17.8003168
  65.6658316  20.6837845  17.1565735  65.2289248  20.2356744  18.5347235
   3.5595739  57.7299787  10.4452443   3.0558240  57.6108957   9.6400821
   3.8168370  56.8439151  10.7000744  22.9385594  68.1011463  65.8535671
  22.2864131  67.6380921  66.3794184  22.6411084  67.9897452  64.9505997
  78.7821266  29.7074004   1.3902071  78.2693120  29.3312510   2.1055868
  79.6811887  29.4320949   1.5694597  33.0203084  81.4491559  41.2767935
  33.3640269  80.5595339  41.3584232  33.5014561  81.8251235  40.5396509
   3.7538298  24.3795466  47.7919006   4.0476569  24.4112325  46.8814659
   4.5609816  24.4125748  48.3053684   2.4253424  23.2281470   9.9781060
   1.8240794  23.8089895  10.4443097   2.0585974  22.3529625  10.1037610
  62.5810432  13.0437088  22.2953892  62.2531033  13.9377284  22.3924279
  63.4622526  13.1494248  21.9368911  54.4696045  13.9912748  23.4850645
  54.8904419  14.8042631  23.2054663  53.8157320  13.8150942  22.8085661
  63.0202103  23.1003165  66.0282421  62.5287437  22.2900844  66.1632299
  62.4575281  23.7848759  66.3901854  54.0296078  15.2970874  35.6101823
  53.6253643  16.1584949  35.7140994  53.4529400  14.7024548  36.0898662
   9.2698603  40.2197250  30.6433227   9.9222975  39.8689105  31.2495353
   9.5976572  41.0898068  30.4158619  77.4515963  23.7877727  37.9738283
  77.5985193  23.9402676  37.0403433  78.2601833  24.0801620  38.3944559
  69.2540455  38.6229396  47.2644758  68.9988136  38.0224466  46.5641260
  68.6427164  38.4342098  47.9764366   0.8153514  68.3645273  35.8419657
   0.4258064  67.5462008  35.5340219   0.0727967  68.8791705  36.1581731
  52.4525404   3.9923936  53.1211615  52.1857214   3.2618994  52.5631142
  51.8735838   4.7112978  52.8677464  50.0970440  67.1975454   6.9418838
  49.6083431  67.9182418   6.5443828  49.5185547  66.8659481   7.6286342
   9.4499835  30.3380847  58.7128258   9.1823634  30.3096604  57.7942371
   9.6629294  29.4301271  58.9284611  72.6811409  43.2956934  40.3147078
  71.7895508  43.4038115  39.9836397  72.6382303  43.5986280  41.2216949
  52.9570178  78.1170244  60.5127621  53.0280856  77.4575115  59.8226738
  52.2644118  78.7051077  60.2116251  41.5830278  33.9718151  62.4766588
  41.8381977  34.5964432  63.1555986  41.1859417  34.5107055  61.7924404
  82.3083590  49.7711288  60.6364188  82.7145718  49.4624691  61.4463279
  82.3836134  49.0313535  60.0336740  76.0324144  23.5630226  46.8610811
  75.6097031  24.3876433  47.1009731  76.1088848  23.0841279  47.6863337
  71.6048697  70.3764559  50.3227139  71.5995101  69.4283164  50.4539967
  72.5328806  70.6070186  50.2794266  54.7929430  41.2255716  72.7200460
  55.5556393  40.6527185  72.7998209  54.0423059  40.6344414  72.7778721
  71.7847633  15.4986393  28.8712239  71.3387871  15.2535522  28.0605054
  72.5596476  14.9372995  28.8974452  38.7880782  75.9083189  33.7773776
  38.9346388  75.9304572  34.7230315  38.4677151  76.7847330  33.5640764
  27.7211150  31.4223194  63.2388306  27.7579650  30.4897976  63.0260468
  28.6240634  31.6543245  63.4558630  42.2434406  34.7503664   8.1849029
  43.0261688  35.2884241   8.3035305  41.7299252  35.2167215   7.5253227
  27.9442954  21.3428354  35.1711226  27.8645372  22.2584820  35.4384446
  28.5034370  20.9461379  35.8391237  16.9298991  23.6133623  69.9607182
  16.1333998  23.1258798  70.1709032  16.6323241  24.3260646  69.3952656
  48.0157995   5.9973145  66.8174744  48.8543797   5.6756395  66.4865112
  48.1539154   6.1014467  67.7589178  86.2131861  73.7210680  36.3516569
  85.8373145  73.6019481  37.2238779  85.4596308  73.8963128  35.7880187
  69.7075176  11.1592555  42.9207706  69.0461922  10.5327845  43.2147360
  69.3753910  11.4828908  42.0834017  29.7806605   1.2952098  52.9389334
  28.8960131   1.0336810  53.1943226  30.2365740   1.4394189  53.7681389
  86.8269348  13.6665654  60.3510571  86.8204594  13.0188000  59.6463680
  87.7337837  13.6783981  60.6571817  79.2723179   4.9856004  65.8793640
  78.9790392   4.1193685  65.5967665  78.6900330   5.5952847  65.4260874
  71.0029364  26.1601949  42.1466637  71.6086912  26.2753344  41.4145184
  70.1839542  26.5523982  41.8438768  32.7027757  68.1864851  67.0220438
  32.6970632  69.0860217  67.3492036  33.4837396  67.7944796  67.4127487
  49.8053340  65.7363010  38.3235645  49.9245051  66.3614644  37.6085806
  49.0249613  65.2387954  38.0791402  36.5697459  80.2601332  50.6764936
  36.1307410  79.6737457  50.0603342  36.0640887  80.1798517  51.4852524
  12.6276903  57.0415874   9.0028598  12.6583843  56.4217254   8.2741192
  11.8482285  56.7903050   9.4983699  38.8612012  68.0390907  41.6309071
  38.8235501  67.1022941  41.8238449  37.9788903  68.3582903  41.8203068
  90.3138447   1.7599247  18.5599005  90.8942127   1.2947115  19.1623807
  90.9024239   2.1503308  17.9138482  31.1307410  84.2712788  42.9655886
  30.9854439  83.8654397  42.1109438  31.2835673  83.5347934  43.5575914
  33.3061246  70.2350701  52.3709869  32.5128106  70.7698954  52.4001074
  34.0216044  70.8618618  52.4780083  14.6054249  35.2571752  12.5274685
  14.1197281  35.4909386  13.3184745  15.3758745  34.7889789  12.8490760
  17.9600772  60.8378077  48.7324810  18.2050189  60.1613235  48.1011295
  17.1095713  60.5551052  49.0685511  78.8948727  16.2319994  63.0970287
  79.3872213  16.9450784  62.6904058  78.0638266  16.6311193  63.3545113
  76.1411142   1.1152762  41.9010925  75.4055071   0.5620579  41.6382980
  76.0290861   1.9194557  41.3941622   8.9628943  10.7698905  26.3081741
   8.4771880  11.1309516  25.5665874   9.1729792  11.5304720  26.8500352
  38.0008864  22.5511050  72.7336788  37.7555323  23.4718847  72.8242159
  37.7861857  22.3341155  71.8264580  46.1932925  81.8901775  73.6430740
  45.4817895  82.1691794  74.2194033  46.0212020  80.9624658  73.4819317
  37.9341202  69.9976691   3.8848808  37.7686577  69.9409827   4.8259666
  38.8214092  70.3505786   3.8185289   5.2108725  43.9618921  72.1086264
   4.8397025  44.2683172  71.2812376   4.4765242  43.9812279  72.7223015
  40.8056355   6.6915935  62.0469475  41.1332417   6.0663128  62.6934242
  41.3117027   6.5056598  61.2560272   4.5418361  80.0045122  59.4766617
   4.5339612  79.2243964  58.9220524   4.6159795  79.6638782  60.3681231
  72.7330283  70.8995772  54.8522234  73.1834391  71.1425889  54.0433311
  73.1816176  70.1071824  55.1473761  66.1317348  20.3206253  60.2704954
  66.2640905  21.1575413  60.7157850  66.0320044  20.5535817  59.3474483
  76.0474300  24.2344022  30.8663464  76.2739134  23.3490872  31.1512160
  75.2569675  24.4503379  31.3610911  64.6225309  26.3312578  40.5915785
  63.9335299  26.9649911  40.7913113  64.7196579  26.3749027  39.6403217
  47.6065617  65.1601060   4.1018369  48.3060436  64.8124202   3.5486009
  46.8342571  64.6482571   3.8614443  48.9668083  26.0811257  68.1370354
  48.2346153  25.5210996  68.3949041  49.6451569  25.4706478  67.8482723
  69.3512201  19.6866119  47.7577496  68.6457729  19.8294652  48.3887577
  69.9590206  20.4102111  47.9101086  73.6275768  26.4313674  51.5262842
  73.9143324  27.3444605  51.5425539  73.2474279  26.2842393  52.3923540
  70.3693628  29.0771484  43.2988501  70.5470467  29.9948668  43.0928087
  69.4992828  28.9140439  42.9347277   1.8085938  63.7340077   2.1868112
   1.0627585  64.3336161   2.1660402   2.1982746  63.8061913   1.3155105
  87.8835392  32.2390008  43.2437134  87.1480465  32.4916387  43.8017941
  87.5429058  32.3097539  42.3519754  17.9840687  80.8695270  23.8649154
  17.0590285  80.6370164  23.7844729  18.0639294  81.7001010  23.3958721
  63.8423826  18.2696421  10.2662113  63.7328245  17.5958283   9.5952346
  63.4070970  19.0413554   9.9039772  22.2941189  72.0110568   1.2482288
  22.0065670  71.3200363   1.8449142  21.4823132  72.3821743   0.9025743
  17.6725444  11.7042255  67.6689959  18.1690844  11.5569890  68.4739828
  18.1423434  11.2026906  67.0026731  79.7161531   1.5994708  40.5626965
  79.6652460   2.3454624  39.9650884  79.0124798   1.0162432  40.2782297
  78.3212805  20.6491709  62.5583744  77.7388620  21.3969541  62.6919413
  79.0486383  20.8013225  63.1617260  90.0409031  23.3068228  12.5707877
  90.2011776  24.1982603  12.8804326  89.8003006  23.4126115  11.6503787
  67.8512478  28.4633994  55.7956696  67.1388865  28.7248993  56.3791037
  68.2195997  29.2894197  55.4822350  34.1387204  79.4787366  61.6716099
  34.6905306  80.1974321  61.9801760  33.3135155  79.5907033  62.1435499
  39.7356391  25.7852840  17.4258208  39.8541522  25.4525185  18.3154571
  39.1177201  25.1756430  17.0224011   8.4067877  17.3300350  56.8824434
   8.1434783  17.0038223  57.7429581   7.9283103  18.1529033  56.7815495
  53.6267546  79.0908588   4.1600636  53.7505320  78.4077228   3.5010982
  54.5114592  79.4021977   4.3513942  38.2491379  64.0009292   2.8877714
  37.8744583  64.8810347   2.8522136  37.4969654  63.4259089   3.0285623
  60.0432110  22.2583747  50.9137201  60.8552885  21.7554259  50.8520174
  60.0633669  22.6390433  51.7917395  56.7449331  14.5603633  11.6732478
  56.6946983  13.8431656  11.0413182  57.4865341  15.0884843  11.3777077
  68.4831381  51.2761736  49.2828846  67.7082777  51.3072014  48.7217569
  68.9305782  50.4689884  49.0289450  63.0306244  38.7482762  49.7661781
  63.9322519  38.9938736  49.5588732  62.7850294  38.1331277  49.0751600
  65.1691989  60.9773899  66.9824743  65.9096602  60.4264594  66.7286539
  64.3967799  60.4553343  66.7655230  41.8948126  11.3372278  69.6906900
  42.6817274  11.0041118  69.2593765  41.1727667  10.8858991  69.2534447
  81.7862701   3.9209759  43.2186842  82.0666027   3.6102301  44.0795469
  80.9165955   3.5397577  43.0979586  73.7153074  70.4053791   3.2363155
  73.1084129  69.7710832   3.6178615  74.1297647  70.8240732   3.9907386
  71.6636753  39.7271705  64.9258614  71.2462997  39.2702436  64.1956234
  72.5590324  39.3889666  64.9396849  86.9099924  49.8720404  17.9233959
  86.7525932  50.3890743  18.7134197  87.1642562  50.5160006  17.2624138
  61.2871361   6.8367350  53.3169889  60.6484652   6.1871684  53.0230618
  61.6113329   7.2361749  52.5097847  62.2042036  32.3903275  58.2869577
  62.4427176  31.9980597  57.4470377  61.2540817  32.2862983  58.3386898
  78.5182400  77.9503180  12.2643280  78.9144893  77.4085576  12.9467607
  77.5922425  77.9960669  12.5023735  57.3770142  37.2042894  72.4352264
  56.7089272  36.8243098  73.0057526  58.1799507  36.7345548  72.6607800
  90.7580185  26.5382814  62.3407125  91.2910748  27.3226142  62.2107029
  90.3084469  26.6893363  63.1721592  20.4279594  64.8364552  13.7432983
  20.2856522  65.4697379  13.0397823  21.2721520  64.4351252  13.5371521
  83.3064815  58.8112613  10.7642391  82.4726888  58.7832316  10.2949455
  83.1012603  58.4769269  11.6373565  28.8118056  85.5548412  43.9754677
  29.6255091  85.2475299  43.5758686  28.1342915  84.9897317  43.6041737
   6.7481764  30.3840590  30.4005384   7.1099528  29.5641851  30.7369184
   7.1403655  30.4807019  29.5327353   1.3882979   6.3269705  46.6073990
   1.1752471   6.7714882  45.7868862   2.3252638   6.4816833  46.7273426
  25.8397254  33.5779834  37.3001599  25.6753596  34.3162894  37.8867722
  24.9680194  33.2788801  37.0415282  69.1993567  43.7342588   2.1507194
  68.4651777  44.3441369   2.0781877  69.9775835  44.2895483   2.1033075
  56.7774561  70.3118432  31.3127804  57.4436072  69.6274270  31.3764381
  57.2131041  71.0278333  30.8503985  64.0278292  19.2242920  27.2952247
  64.6166086  19.8321879  26.8479729  63.1541443  19.4689131  26.9901514
  42.6570443  62.2681929  70.1892853  41.8382481  62.7633286  70.1639462
  42.4496773  61.4400865  69.7563124  56.5794257  80.6324441  56.5205526
  55.9873656  80.8088637  55.7894087  56.0175685  80.6573809  57.2951031
  68.4875679   9.3795502  69.0105247  68.1170511   8.7953448  68.3489752
  68.9189625   8.7938482  69.6326876  73.5653162  31.9363141  54.0623808
  74.3887997  32.0926738  53.6001396  73.1155062  31.2769914  53.5339928
  76.9830629  43.8140519  13.8980987  76.6877338  42.9895534  14.2843750
  77.6933547  44.1055072  14.4697406  79.3833780   8.0281043  56.0652542
  79.3080807   7.0907187  55.8867311  78.9574003   8.1451786  56.9144106
  75.8220434  25.1404858  21.5720654  75.9577370  26.0576558  21.8100095
  75.4456806  25.1743627  20.6926131  76.0249281   7.0369726  67.1614122
  76.8084955   6.8727243  66.6367435  75.7653856   7.9291564  66.9314575
  49.1051435  39.5501208  66.2030315  49.5355415  40.1900721  66.7700005
  49.5163059  38.7156367  66.4284515  28.6853865  80.7006020  42.6816845
  28.8625792  79.8198158  42.3514557  28.6037949  80.5893488  43.6288881
  51.9616413  29.9579072   1.1394152  51.8666935  30.0663328   2.0857030
  51.7483282  30.8178687   0.7772036  17.4521548  35.9782003  71.5761203
  17.0668990  35.6769680  72.3989612  17.8895385  36.7989157  71.8027375
  39.3065071  14.7728336  43.6180210  39.4083261  15.3955650  42.8982496
  38.8251162  14.0398645  43.2342911  39.2637515  23.0858970  60.0382423
  39.4695640  23.3354592  59.1373587  38.6729908  22.3378706  59.9505424
  37.1691346  11.3461483  57.8116941  36.9702172  12.2798932  57.7425241
  37.9655242  11.2318611  57.2931004  66.6689062  19.1179740  64.6636629
  66.1193085  19.8752606  64.8653936  67.1065950  19.3509912  63.8449049
   6.3884600  30.5041957  71.4183521   6.4671668  30.7411623  70.4942942
   6.8738516  31.1861277  71.8826771  62.5507545   6.1464155  36.5614462
  62.5069666   5.2168310  36.7854738  62.8240347   6.1591113  35.6441760
  64.0861082  19.6741641  51.0632992  63.7995911  19.7667861  50.1546955
  63.7656641  20.4648709  51.4972734  38.2636476  20.9763145  53.5816717
  38.6583805  20.1067042  53.6464214  37.6902175  20.9227347  52.8171206
  83.9473030  58.1104060   6.0744980  84.5804855  57.4471780   5.7998302
  83.1551000  57.6143309   6.2807968  50.5927523  24.0932369  73.2559824
  49.6995410  23.7648940  73.3589411  50.4839953  24.9779034  72.9070282
  28.8043739   2.8382094   1.5403440  29.7022201   2.6881726   1.8363025
  28.6360837   3.7584956   1.7427805  78.4451962  47.4205256  32.1031046
  78.1896305  47.9997015  31.3851404  78.1359911  47.8660250  32.8918719
  70.7832430  31.1909621  64.6105114  71.3274668  30.4488831  64.8738876
  71.3847827  31.7789392  64.1537139  71.9580364  24.7308946  60.0399065
  71.4747810  24.9572778  59.2452717  72.7593088  25.2521062  59.9896097
  28.1192951  59.9884971   1.4215782  27.3883038  59.5990642   0.9417703
  28.1180935  60.9078403   1.1550501  65.3519869  31.2574458  25.8438540
  65.6340408  32.1023846  25.4934883  65.7440329  31.2169480  26.7161441
  77.3767090  15.1934135  43.4068251  77.4508047  14.2694354  43.1680632
  77.0511866  15.1828444  44.3069124  63.9322996  25.6425476  49.9905682
  64.8296452  25.3207088  50.0766754  63.5387278  25.0792646  49.3241978
  76.3419580  32.8757739  44.1791964  75.4780912  33.2870722  44.1509771
  76.2993431  32.2801852  44.9273205  66.2642097  20.8766818  12.0312488
  65.4268026  20.6874537  12.4545372  66.0455370  21.4936090  11.3328099
  81.3110447   9.5163202  44.0223074  80.8450985  10.0781143  43.4030294
  81.3959599   8.6780190  43.5681391  48.8313464  71.7224515  32.4368238
  48.0043868  71.2510134  32.5374079  48.8819197  72.2849298  33.2096696
   2.1295890   4.2265937  61.5719366   3.0186900   4.0401900  61.2703037
   2.0278796   3.6944503  62.3610544  18.7129954  85.9345718  53.5160208
  19.1893080  85.1608362  53.2148743  18.4536437  85.7222518  54.4126177
   9.9461250  84.8649605   3.6323431  10.5617361  84.4732817   3.0127933
   9.8497801  84.2081126   4.3219116  17.9239016  62.7820631   8.8209942
  18.0974321  63.7168845   8.9315632  18.5621100  62.4956234   8.1676414
  39.5655469  80.3283579  31.6808176  39.8919228  79.4740618  31.3981748
  40.3416518  80.7865621  32.0032144  48.9018210  64.3468507  19.4954517
  49.1036507  65.2690180  19.6539047  49.3683680  64.1350540  18.6869266
  72.4228573   8.2055193  36.9091702  71.6129637   7.8656191  37.2896552
  72.3923397   9.1464508  37.0822263  54.6832255  69.8670484  42.9656363
  54.1150645  69.6822382  42.2177935  55.5058745  69.4245912  42.7565479
  52.0064735   2.3063964  61.3681841  51.8735600   2.9442713  62.0693827
  51.6026545   2.7083513  60.5990314  28.6542061  63.1334830  15.1194537
  29.6021107  63.0601645  15.0083852  28.4268263  62.4191094  15.7145989
  45.7720804  22.0844412  62.4410152  46.2447596  22.6234007  63.0753088
  45.9357691  22.5074935  61.5981245  61.5730953   8.5004026  55.5612326
  61.5470743   8.0108649  54.7390938  62.4146223   8.2664222  55.9527826
  25.2672032  68.2285500  46.8799067  24.3344048  68.4316135  46.9498205
  25.4080752  68.0678965  45.9468603  17.0074633  80.0282056  12.5023782
  17.4780921  80.6287367  13.0803919  16.7685870  79.2918147  13.0653179
  70.5438137  40.9539604  32.8421712  70.2009296  40.3092241  33.4610200
  70.9237051  41.6374254  33.3942485  14.4062403  70.9184898  33.9041948
  14.5502547  71.7016376  34.4353914  14.2511443  70.2217151  34.5419121
  18.5029772  78.3260662  51.8467283  18.7927464  77.4377991  52.0546865
  17.6499203  78.2080568  51.4288759  91.0987854  53.9212751  46.2019634
  91.1337471  54.5450115  45.4767323  90.1912689  53.9561605  46.5043306
  67.0716190  13.9706111  42.9412222  67.7079391  14.4964969  43.4257507
  66.7712355  14.5461786  42.2378540  83.6221409   8.2534337  31.4082766
  83.6078453   8.8768148  32.1345162  83.5366631   7.3966235  31.8263721
  36.1629065  15.1885557  19.3676686  36.4313658  14.3154848  19.0814745
  36.9483145  15.5613697  19.7681522  85.0435257  21.1573195  37.6604199
  84.5510197  21.9497180  37.4464750  84.3918133  20.5635786  38.0332136
   9.6846446   8.1238681  53.5274506  10.4542216   8.0934215  52.9590702
   9.9762400   7.7244747  54.3470192   9.0760403  79.0855654   5.4304435
   8.9896565  78.3589395   6.0475185   9.4443731  78.6874755   4.6417215
  72.6818991   2.1009696  53.7482691  72.8517675   2.3928581  54.6439123
  72.7893686   1.1504089  53.7817001  59.3679762  53.3417511   6.5866125
  59.7089243  53.9700747   7.2231668  59.2285776  53.8572931   5.7922447
  24.0040186  74.6434165  47.7921343  23.4900311  73.8426293  47.8959894
  24.4165877  74.7756017  48.6456823  49.2130831  69.3484510  37.8275609
  48.5811928  69.9223591  37.3944592  49.9969653  69.8883797  37.9286909
  17.6442986  28.3114954   0.9514549  18.2184916  28.6998638   1.6115310
  17.6948052  27.3696145   1.1143663  38.1124047  73.0365540  43.0580091
  38.1350163  73.9766897  43.2365131  38.9809874  72.8382529  42.7080441
  89.1796207  19.0517151  68.1025648  89.8102951  18.3353364  68.0298853
  89.7127533  19.8205864  68.3046627  75.6609440   9.3008512  58.6022043
  76.4708614   9.2144608  59.1050005  74.9816322   9.4338059  59.2633343
  20.1220091  54.9325991  24.8206806  21.0756167  55.0121737  24.7973800
  19.8840769  54.6447802  23.9393282  73.6049652  29.9910545  44.6019077
  73.3056068  29.5047688  45.3701162  73.4852600  29.3833303  43.8721275
  57.3583031   5.5270308  36.2466192  56.6686392   6.1313993  36.5210891
  58.1409693   6.0734004  36.1748672  33.9549732   2.6374367  24.6469474
  33.4090161   2.1753205  25.2830362  33.5798979   3.5170227  24.6036100
  72.1055079  20.7343435  30.4171419  71.7504120  20.7891464  29.5299339
  72.7559566  20.0335503  30.3719282  52.8676702  24.1816218   3.6939838
  52.4619676  25.0478489   3.7298420  52.4463750  23.7504227   2.9504659
   4.2483863  51.8591547  20.6486511   3.5229262  52.1344757  20.0881696
   4.1967925  52.4383450  21.4089870  49.8107290  75.9698057  68.0932379
  49.9207687  76.8039942  68.5495901  49.4666195  75.3755569  68.7600899
  81.3835239  35.4696774  39.9907637  82.0268726  36.1620903  39.8394537
  80.6187057  35.7379127  39.4815087  23.1851177  77.3706039   0.5091217
  22.9321079  76.7843874   1.2222650  24.1325932  77.2586735   0.4317787
  89.2069912   6.6122371  71.3144922  88.7018299   6.0891956  71.9369698
  90.0751305   6.2090534  71.3119316  86.7457104  46.9748545  73.2005978
  87.6634121  47.2189569  73.0803299  86.2526703  47.7023935  72.8213549
  41.7094021  80.1994475   1.1711862  40.8390980  79.8013242   1.1537864
  41.9286995  80.2552660   2.1012523  66.2866449  30.5485010  14.7146428
  66.1312151  29.6234775  14.9054492  65.8813763  30.6878924  13.8587487
  13.7108096  18.8355970  34.7017193  13.8533362  19.0523553  33.7803435
  13.8209304  19.6669674  35.1631618  65.8154345  30.4495788  32.6678276
  65.1941442  30.3403473  31.9478989  66.5154314  29.8252487  32.4769115
  90.6575489  50.2431059  37.4733472  90.4046535  49.3237209  37.5570512
  90.1701546  50.5572033  36.7117596  80.8105850  51.6242456  39.1965842
  81.6238308  51.7916918  39.6728468  80.9331131  52.0595407  38.3529401
  44.7793921   7.5459504  67.7028370  44.5821246   6.8271261  68.3033466
  45.4519137   8.0567545  68.1534195  47.7347089  -0.3269022  16.4865520
  46.9355632  -0.0123613  16.0638740  48.1781961   0.4682000  16.7821338
  11.3610419  58.1247139  41.8944931  10.5928191  58.2108021  42.4589920
  11.1550769  58.6579800  41.1267424  75.1115894  45.9639263  23.5509014
  74.3762732  46.5704203  23.6386442  75.4574013  45.8766699  24.4391775
  44.8943758   8.5216427  40.7385445  44.6687031   7.6473618  41.0562563
  44.5863199   9.1129601  41.4253330   8.9039000  58.8082981  33.7771392
   8.5381278  58.9271498  32.9006028   8.6039313  59.5735836  34.2676353
  44.5202141  69.3797143   6.3402870  43.9349442  69.8787745   6.9100597
  44.7862892  70.0035437   5.6648090  82.5258064  29.5471311  26.8945122
  81.9597721  30.3190112  26.8888092  82.4998188  29.2377496  27.7999616
  86.9812012  17.2614133  50.5898666  86.3055515  17.6609874  51.1376572
  87.7880955  17.7130985  50.8371115  87.2788620  66.3088608  45.9544373
  86.6783714  66.7373085  46.5644121  87.8651905  65.7992983  46.5137148
  88.5856915  47.5844860  42.6526022  88.0044174  48.0436754  42.0463800
  88.0559158  46.8633652  42.9925299  90.0434875  58.9646530  41.7224216
  89.4431400  59.1076660  42.4541044  90.1068497  59.8183775  41.2942028
  83.6381912  26.2793922  38.0087876  83.3221245  25.3978968  37.8105617
  82.9431152  26.6695237  38.5387778   2.9861315  29.0830946  63.6876535
   2.6198920  28.2152534  63.8578129   2.3453101  29.5055604  63.1157207
  67.6707365  15.5921061   1.2113550  67.9692460  15.0740702   0.4638555
  66.8199731  15.2167876   1.4384201   5.2950724  49.9408770  68.5001230
   4.3899592  49.9608517  68.8109541   5.2600821  50.3479528  67.6345015
  22.7521857  22.5889587  41.2677526  23.6204013  22.4072337  41.6274929
  22.5236186  23.4502816  41.6171932  59.8520041  36.8023062  63.3416891
  59.6553326  36.1494875  62.6698446  59.1593838  37.4565911  63.2499266
  74.4453410  82.6417513  71.6626263  73.6965731  82.3384718  71.1492062
  74.4662360  83.5879962  71.5197420   1.4489802  32.5457072  57.1896458
   0.9852942  33.3826804  57.2161436   1.1702403  32.0921826  57.9851675
  90.9123898  28.8384247  42.8719187  90.0576782  28.4177828  42.7782869
  91.2813187  28.8304067  41.9887114  89.1052915  18.5563881   4.4760635
  88.3284952  19.0009243   4.1366413  89.3294717  17.9165060   3.8003996
  27.7865008  79.6447612  70.8189058  28.2880524  79.2703814  71.5431404
  28.2787970  79.4005276  70.0351763  71.5558529  40.0590277  39.1529536
  70.8848047  40.7386541  39.2164946  72.2254038  40.4361534  38.5822439
  77.6101303  16.6031396  59.3886137  77.9693174  15.7548344  59.6486092
  76.7315769  16.4025068  59.0659380  75.1840305   6.0970414  32.4285030
  75.0828886   5.8763826  33.3544135  74.9913120   7.0335364  32.3830271
  88.5793400  41.4192963  23.7259889  89.1643143  41.3595724  24.4812846
  89.0869141  41.8926096  23.0667639   1.7510375  31.8559289  37.5356889
   1.8680724  31.6179752  38.4554219   1.0666236  31.2654829  37.2207522
   8.7603148  31.9183660  52.4192333   8.1263503  32.5981688  52.1907663
   9.2503031  32.2853661  53.1550694  38.4055595  46.0116257   6.0826233
  39.0490608  46.3796114   6.6881874  37.6261692  46.5542292   6.2025192
  83.1413174  43.0466795  46.8776083  82.7515984  42.8238153  46.0322189
  83.1519794  44.0037155  46.8915892   9.5648917  28.5773301  68.1305790
   8.9012488  29.1034412  67.6844740  10.1609477  28.3026314  67.4338055
  90.5091763  56.7750311  40.2562523  90.2196312  57.5431585  40.7485676
  91.3274670  56.5141678  40.6788397   0.3201541  30.1389265  67.4126434
   0.5099543  30.2936602  68.3379889   0.2035388  29.1911054  67.3472929
  76.7707396  38.0883455  54.6887779  77.3610401  38.0414796  55.4408264
  76.1167574  37.4094319  54.8549509  17.6462774  73.1318029   7.9591491
  17.4804001  72.9337653   7.0374611  17.3464851  74.0343102   8.0679252
   8.2412176  54.4170578   0.6806734   7.8795891  54.5399579   1.5583732
   8.9923554  55.0093552   0.6460121  82.2419834  64.7766256  14.5726848
  81.5942669  64.0881872  14.7234833  81.7428303  65.5914736  14.6283519
  61.9773245  38.2868075   7.0380962  61.3017511  37.8988028   7.5942284
  62.3592806  37.5435495   6.5712851  63.0398512  30.6049490  63.1126308
  62.2567225  30.5114388  62.5702333  62.8830242  30.0291300  63.8610125
  50.9591818  21.1278152  24.1457295  51.5241146  20.8412170  23.4281325
  51.5012550  21.7349768  24.6494651  48.8484430  17.8545392  56.8544006
  49.2548847  17.2674036  56.2169743  48.6192369  18.6346686  56.3493299
   9.5570906  47.7440929  62.2349024  10.1303538  48.1200695  61.5668821
   8.6726149  47.8772736  61.8940401  13.8379030  64.3490728  22.0426586
  13.2167606  63.6921843  21.7281654  13.3060579  64.9526223  22.5614097
   7.8491934   5.3777415  59.2071581   7.9807433   6.1826456  58.7061024
   6.9201811   5.3881365  59.4375038  49.8684883  37.1723008  62.6528120
  49.2079973  37.4472594  63.2887173  50.6751347  37.0971298  63.1626177
   6.8027743  19.5643747  56.9017029   6.0560092  19.3379927  57.4560738
   6.4610060  20.2225733  56.2965584  63.6349678  32.7101898  30.2378058
  64.0563869  33.5592985  30.3706646  62.8841972  32.7199054  30.8315063
  34.8895054  71.7665370   1.4414289  34.6308117  71.7955097   0.5203035
  34.7725372  70.8507999   1.6943672   2.3413809  37.9037428  39.9983168
   2.1472129  38.2318783  39.1203332   2.7934798  37.0733404  39.8491025
  60.0683641  70.3810692   4.5801646  59.2065382  69.9661112   4.6161777
  60.4808378  70.0092268   3.8005301  13.1118163  18.9051068  56.0931683
  13.4157427  18.6132014  56.9526148  12.3585471  19.4644582  56.2827730
  32.9449900   9.6732306  61.0386705  33.0399855  10.5605769  60.6925154
  33.5688075   9.1512412  60.5340862  84.1250896  63.7330008  41.2410355
  83.4976768  63.0795670  40.9318304  83.5973358  64.3515968  41.7460680
  59.8641396  32.3873043  18.8488531  60.7262135  32.0504904  19.0930223
  60.0172234  33.3090043  18.6408472  70.7371473  31.3103938  41.6372204
  70.0011539  31.9112372  41.7535305  70.4799891  30.7565117  40.9001207
  38.1707622  11.1845810   0.7252195  38.7027980  11.3501246   1.5035274
  38.7421276  10.6783040   0.1477649  15.2117785  29.4356704  64.4955778
  15.0808772  30.3001952  64.1061020  14.4122656  29.2752647  64.9968624
  61.9423151  23.2374907  38.4828687  62.5901651  23.5323501  37.8428888
  61.6788292  24.0350771  38.9418507  18.0061396  23.6485338  48.6531353
  17.4950656  23.1623840  48.0060673  18.8387736  23.8267779  48.2158899
   9.3124446  36.7551827  49.6797514   8.6088618  37.2569036  50.0914383
   8.8761004  36.2481213  48.9951134   3.1095847  12.8424954  45.7839870
   2.5292548  13.5433817  45.4869843   2.6963671  12.5111091  46.5812778
  35.5660915  12.7384388  50.7656765  36.1985707  13.4180391  50.9987974
  34.7501945  13.2139909  50.6094980  82.3428345  38.8745809  24.2409110
  81.4587879  39.2306137  24.3298984  82.7700138  39.0837455  25.0715733
  26.5464743  15.1290667  74.3060589  25.8242472  15.7102180  74.0675688
  26.6694029  14.5719385  73.5374689   9.8717745  51.5153074  70.9667540
   9.4097956  52.2250175  71.4129829   9.2293032  51.1603642  70.3523636
  64.8453905   6.2714560   6.9779136  65.0059892   5.5927355   6.3223293
  64.2085077   5.8806879   7.5761631  13.1858405  17.4372756  61.3116121
  12.6761206  17.1617615  62.0735216  13.1002291  18.3905447  61.2981510
  20.0804480  58.8754129  68.2939625  19.9812850  58.9210033  67.3430061
  19.7956713  57.9905510  68.5223246   0.6648120  45.1931906  62.9773664
  -0.0851575  44.6743345  62.6865721   0.3118380  46.0737419  63.1049442
  40.4683830   0.0266154  21.2596634  41.0512115  -0.6535308  21.5972259
  40.5763771   0.7579882  21.8676593  67.2335529  39.0318704  64.1735363
  67.1345234  38.2634330  64.7356129  68.1675816  39.2377162  64.2116308
  39.6313151  31.0823846  70.5868340  40.2296694  30.6617713  71.2043238
  39.3233451  31.8636608  71.0461712  41.7014675  48.6064412  16.1932018
  40.9118347  48.2434126  16.5943554  42.1157150  49.1107210  16.8934467
  16.9512519  53.3829308  68.2863760  17.5242194  53.6541176  69.0035915
  17.1503028  52.4554396  68.1584024  70.8627415  33.0263162  67.3291445
  70.0509930  33.5311174  67.2794390  71.3592577  33.2944393  66.5559626
  29.2034300  49.5115328  14.6383917  28.6551245  49.2897892  13.8857818
  29.2784270  48.6933231  15.1294494   5.6031092  55.0965595  46.9829607
   5.7408293  54.4659710  46.2761211   5.9633788  54.6683359  47.7595282
   5.1365908  39.4669151  73.3280230   6.0497721  39.4021273  73.0485058
   5.1552924  40.0726700  74.0689325   5.0636538  38.3794928  15.9309292
   4.7835692  39.2917442  15.8562458   4.2575701  37.8726697  15.8330464
  76.1555815  32.5877213  71.8377829  76.7932034  31.9542384  72.1669817
  75.3213692  32.3044729  72.2120714  43.9717826   7.8389817  62.8441477
  44.4904479   8.5238767  63.2662153  43.4712180   7.4435347  63.5577917
  28.3803825  85.2458533   5.5745914  27.8353386  85.0561675   4.8109367
  27.7557449  85.4619225   6.2669590  60.3633738   0.8957993  24.8109531
  59.6011734   0.3596976  24.5921373  59.9984741   1.7537509  25.0277472
   6.3543662  10.6615388  33.9440513   6.8914851   9.8852295  33.7857032
   5.4731330  10.4019821  33.6751866  36.1994418  10.6517649  19.1100645
  36.5570887  10.4819930  18.2385755  36.7914160  11.3012052  19.4895625
  31.7811608  15.3031051  12.2186041  31.6408467  14.4379139  11.8339121
  31.0473180  15.4187202  12.8222072  86.3648891  60.1368475  45.3199482
  86.6559410  60.2368689  44.4135761  85.4697704  59.8052645  45.2488613
  77.9517937  41.8518448  30.2220178  78.6214352  41.6625452  30.8792615
  78.0117846  41.1245584  29.6025944   3.5007723  45.1434612  40.2698088
   2.8028639  45.2960634  40.9068871   3.5376223  45.9508181  39.7569251
  12.7745875  55.7162380  41.4474916  12.1397265  56.4162397  41.2952232
  12.6684340  55.4936409  42.3723793  58.4801389   9.9027569   5.2601555
  57.7341463   9.3031819   5.2446582  58.0918504  10.7643015   5.4124906
  82.4712372  58.6435509  15.9660256  81.8914318  59.4049740  15.9486854
  82.5070190  58.3907127  16.8885350  85.4757690  27.4961686   5.2057904
  84.6022320  27.1091127   5.2636653  86.0507298  26.7597413   4.9976453
  -0.1198903  37.2564864  46.8708611   0.7553538  37.2739673  46.4837313
  -0.2702943  36.3349247  47.0814276  25.5440386  44.2651224  54.4817495
  25.4238185  44.1180038  53.5435963  26.3928565  43.8693190  54.6794224
  81.9692516  31.5396142  45.5622959  81.7451382  32.4531150  45.3847551
  82.6214027  31.3193703  44.8971462  69.2309550  85.5381815  24.0363836
  69.4760302  86.4259973  24.2970681  68.5139159  85.6605675  23.4142017
  86.2269402  68.9713478  44.2554426  86.3969231  69.6182394  43.5706997
  86.5268326  68.1426716  43.8818312   3.1549128  40.3061199  48.3092737
   3.3109530  41.0919046  47.7854204   2.3946532  40.5246401  48.8482380
  87.4626350  34.0038466  33.7482190  88.0769539  34.3453360  33.0984282
  87.0489597  34.7831202  34.1194749  71.1766052  34.9260688  52.6164293
  71.1542130  34.8021674  53.5653114  72.1073580  35.0037479  52.4069214
  76.7562962  18.3977032  61.3154316  77.0634174  19.3040800  61.2957382
  77.0476484  18.0279303  60.4819965  62.3072958  21.8144822  24.4150853
  61.7042732  21.3240337  24.9737048  62.0243454  21.6137171  23.5229731
  78.3714628   9.3766648  43.7434673  78.0879354  10.2899992  43.7026978
  78.6500025   9.2526209  44.6508026  70.0632334  61.7603731  40.4369116
  69.6970940  60.9165955  40.7018900  70.0375128  62.2928953  41.2318945
   2.8327659  69.9141062  52.7950096   2.1118930  69.2901815  52.8804016
   3.6218361  69.3871308  52.9210806  51.5353107  22.7642345  32.7685022
  51.1748934  22.0401597  32.2565961  52.2895956  23.0640721  32.2611761
   9.1622218  61.9271946  61.7813301   9.1274413  62.5413704  62.5146866
  10.0410613  62.0371437  61.4183044  33.3664752   5.3739006  11.9627025
  33.3868028   4.5521529  11.4722469  34.2879297   5.5973179  12.0940044
  88.1585503  35.6578684  23.0292845  88.2749748  36.5536618  23.3458805
  87.3925495  35.7037020  22.4571276  79.3930721   1.7460787  70.9741545
  79.4147396   2.6204693  70.5853033  80.2544975   1.3764012  70.7804680
  61.5514612  25.1476789  43.2981920  60.7200432  25.0688195  43.7659073
  62.0493603  24.3741274  43.5626698  32.2888259  71.2172771  56.0014582
  32.7270440  70.7306922  56.6996193  32.1670226  70.5752243  55.3020573
  67.9843378  56.4705324  56.6609001  67.5743294  56.8706846  57.4277115
  67.9066849  57.1332264  55.9745789  66.0446501  26.6634750  33.2255936
  65.1564264  26.9910502  33.0842161  66.6017246  27.2565031  32.7213955
  83.0194855  23.6955428  31.0887289  82.0955658  23.9030504  30.9489393
  83.4896374  24.2905927  30.5046844  90.4700470  49.3712807  69.1694403
  89.6437454  48.9207506  69.3440104  90.6425095  49.2047834  68.2427454
  26.2636050  10.3520846  65.9613466  26.8993815  10.9069884  65.5095816
  26.7964991   9.7646344  66.4972162  15.0650148  73.5668643  21.4984539
  15.2761488  72.7495511  21.0471752  15.6628494  74.2111405  21.1193302
  32.8513936  83.8513749  37.6951885  31.9687632  83.6571444  37.3798060
  32.7178506  84.4634559  38.4188962  79.4951630  23.5970020  25.9449315
  80.1135063  23.2635689  25.2947760  78.6736345  23.1475019  25.7467532
  78.9646626  28.2276988  60.4519129  79.4976854  28.8385868  60.9607697
  79.5960903  27.6136231  60.0771570  88.9036942  19.2298043  48.8346910
  88.6694908  19.8842645  48.1766176  88.8346386  19.6937788  49.6690702
  75.4003716  45.7544374  38.9957476  76.1597204  45.2325821  38.7363601
  74.8327351  45.7508802  38.2250261  84.0717220  40.5216789  36.4036417
  84.8570728  40.5410290  36.9505310  83.6543655  39.6861672  36.6133332
  70.6758690  42.9976892  67.0287037  69.7273064  42.9055643  67.1180344
  71.0358906  42.4718618  67.7429295   9.2917498  18.8354540  40.4848337
   9.8971614  19.2239451  41.1163282   9.3468817  19.4057786  39.7180724
  60.2992133  78.1466014  62.7383137  60.0898532  77.9759378  63.6566162
  59.8369673  78.9596034  62.5343704   4.2839965  22.3829579  43.6287737
   3.3648642  22.1173906  43.5987663   4.2705210  23.2461786  44.0421724
  54.3932629   4.7039306  37.6062536  54.4766951   5.6346470  37.8137088
  53.9246273   4.3329611  38.3539152  69.9252272  32.8298688  35.9993029
  70.0430298  33.6638331  36.4541173  69.1247082  32.4632621  36.3748002
  67.3626328  15.3561056  50.0536442  67.1966982  15.4179466  49.1129684
  67.3424482  14.4172812  50.2392054  81.4418221  28.3968401  20.2701283
  80.6622696  28.9448762  20.3605866  81.8892288  28.4758568  21.1126351
  15.9966334  26.5861177  53.5144806  15.3530272  26.5052271  54.2183733
  16.2602481  25.6853819  53.3263016  70.3501368  41.5467167  55.0951815
  70.3106070  42.5001240  55.0198078  70.0693178  41.2268305  54.2378330
  62.6167774  21.1271024  41.5430212  63.2820368  21.7626834  41.2790251
  62.7312994  20.3948975  40.9372234  64.3666220  35.1707935  43.1529617
  63.7336397  35.8473039  42.9123354  65.0714445  35.2633810  42.5119591
   7.0838698  39.0620399  65.3241920   7.7221163  38.3693504  65.4946518
   7.5682982  39.7150683  64.8191023  86.1872387  49.2317581  62.9062939
  86.4306450  49.8101425  62.1834850  85.7876110  49.8126173  63.5537004
  59.3494987  31.8712878  67.1486044  59.6770620  32.3986220  66.4200068
  59.4684696  30.9659457  66.8614960  48.2905436  50.7149458  73.1444597
  47.9604578  51.5427923  72.7952576  49.1052580  50.5610847  72.6661253
  90.0921440  47.8165245  56.5679169  90.0540161  48.5548401  57.1759224
  90.6963158  48.1016970  55.8824396   8.7832888  14.2685974  46.1260748
   8.2337245  14.7851932  45.5367184   9.4432410  14.8862326  46.4410639
  68.4119225  12.3466003  40.7256413  67.7569246  12.8652215  41.1928034
  68.6773109  12.9008174  39.9917150  82.1489048   8.5943484  52.3643064
  82.5901222   7.8274232  52.7295208  81.4248753   8.7637746  52.9670572
  67.9392672  28.0506468  31.7329144  68.7581253  28.2068062  32.2033596
  68.1525326  28.2255650  30.8163166  81.1677933  32.9552603  24.9787831
  81.1594009  32.5442219  25.8431935  80.7032871  33.7829781  25.1026368
  85.0779915  36.8305182  21.1456180  85.4503250  36.0648847  20.7081223
  84.1417217  36.6405725  21.2052393  67.8843784  44.1868734  49.6886873
  67.8578043  44.6418858  48.8469696  68.2267332  43.3176088  49.4803476
   2.8709944  56.1849213  47.0732737   3.7107333  55.7647228  46.8875170
   2.7429064  56.7954731  46.3472891  57.4151402   5.8274721  46.5923166
  57.1617394   5.0831961  46.0463619  56.7553597   5.8517622  47.2853708
  60.8159876  24.9555635  25.6951666  60.2015305  24.2602229  25.4602742
  60.3266716  25.7658100  25.5526805  84.5657253  41.2761354  11.4673436
  84.4089127  40.6736231  12.1944046  83.8366127  41.8950081  11.5076256
  62.2589159  18.2095766  22.4062443  62.7217007  18.8901031  21.9174266
  61.7949867  18.6838067  23.0962515  59.1951323  37.1501303  60.2271175
  59.6197796  37.5026655  59.4450521  59.7898865  36.4661932  60.5349016
  57.5599813  26.2345409  15.3819978  57.3310423  25.4191160  15.8279836
  56.7771292  26.7794394  15.4623568  61.4356470  13.1702411  26.1411762
  60.8876991  13.4180236  25.3964686  61.9869614  12.4623120  25.8078337
  12.0143946  29.7180796  56.2767363  11.8453749  29.4771123  55.3659105
  11.1772021  29.5809722  56.7200708  59.0653515   1.1219629  31.6596913
  58.4194422   0.4917650  31.9788861  59.8999262   0.8055148  32.0054841
  83.1702021  78.7641777  41.2323046  83.1851843  79.5333917  41.8017912
  84.0249899  78.3534063  41.3620806  24.4789867   4.0339636  41.0010529
  24.6547585   4.4889998  40.1774740  23.5799198   3.7175631  40.9127188
  17.0177706  11.0373616  57.2874975  17.1778067  11.8782592  56.8591118
  17.1087226  11.2234926  58.2220125  60.7050943  10.9265077  48.5989857
  60.7048416   9.9857599  48.7756968  61.5833569  11.1070275  48.2638741
   6.2347563  12.0844507  60.6986427   6.3073596  12.3071110  61.6267538
   7.1287306  11.8681467  60.4335833  67.2987223  60.8736944  50.6122160
  68.0831766  60.5740547  50.1527834  66.5778875  60.4176474  50.1778793
  61.5433100  78.7362386  27.6458168  60.8266619  79.3219192  27.4016404
  62.3177508  79.2986024  27.6606560  83.1673717  42.0367098  42.4224663
  83.4565353  41.8914413  41.5216255  82.2232533  42.1774292  42.3512173
  66.6217041  12.8409362  34.7220159  67.1321011  12.1828556  35.1938796
  66.8676472  13.6717534  35.1288176  17.5060710  41.2956190  43.4646034
  17.5943717  41.4272690  42.5206184  16.5969046  41.5269327  43.6546850
  85.6741810  37.1370721  71.9123411  85.6621170  36.2031174  71.7030144
  86.1795139  37.5349116  71.2034035  80.0313568  26.1167550  35.6344652
  80.7814789  26.6380167  35.3483891  79.6420813  26.6269088  36.3447046
  79.5773840  32.8314710  53.2435894  79.7491550  33.4393072  52.5243759
  79.0893316  33.3495259  53.8836288  77.4749088  51.8776655  12.2143006
  77.8778172  52.7380991  12.3306930  77.5779057  51.4481163  13.0634832
  80.2785110  57.9400444  52.1907520  81.1715794  58.1949568  51.9590759
  80.2711868  56.9868755  52.1033144  18.5813864  55.7696342  63.4744835
  19.0424975  55.0889444  62.9843140  18.4467658  55.3899670  64.3427944
  15.0583991  19.1693604  64.0197706  15.7908209  18.5841727  63.8265228
  15.4225596  19.8179770  64.6221972  10.8073481  84.9133968  28.2280421
  11.0235938  85.4787540  28.9695501  10.6367930  84.0574837  28.6211872
  77.5629807  47.0636797  49.8322582  76.7520189  46.8298721  49.3806982
  77.3969269  47.9376078  50.1856804  90.5130386  49.4197226  40.0586128
  91.3073063  48.9840221  40.3677177  90.7748699  49.8432446  39.2411137
  58.1920576  50.1209402  70.2107000  59.0539265  49.7399521  70.0425768
  58.3686876  50.8726597  70.7763386  48.9997101  10.1747692  45.1645231
  49.1681004   9.2985731  44.8178864  49.7068691  10.3240418  45.7921219
  81.5192223  22.3386025   3.7544331  81.7881107  22.7440333   4.5787871
  81.7644405  22.9753876   3.0831605  81.9898605  31.0286355  35.2689934
  82.9455280  30.9998918  35.3149343  81.7007923  30.8096266  36.1548305
  18.9692886  60.2681606  71.8884188  18.5144193  60.4786639  72.7039049
  19.3439729  59.4005256  72.0402456  61.1762047  14.3989110  59.5421505
  61.2227058  13.4451616  59.6087122  60.8060551  14.6796489  60.3790522
  14.3952521  16.1493099  35.2870226  15.2781256  16.1352873  34.9174595
  14.0304621  16.9878209  35.0040817  51.9980432  10.2706273   1.0964706
  52.5285913  10.8612950   0.5618169  51.6654016  10.8221943   1.8045356
  90.4854488  22.3864579  45.7114935  90.2564812  23.2999134  45.5400229
  89.9261761  22.1331406  46.4458513  22.8223380  72.4302769  49.4446087
  22.8273734  71.4834309  49.3042707  21.9004782  72.6780176  49.3736362
  19.7468337  59.8230171  53.2893848  19.9971636  58.9102888  53.4325504
  20.0917014  60.2883196  54.0514851  70.6624126   8.4577537  51.2875795
  71.0105228   8.5205734  50.3981400  71.4380932   8.4498376  51.8483686
  81.2057209  61.1769533  15.7503629  80.4507351  61.7385721  15.5748057
  81.3846588  61.3006735  16.6825140  59.2866802  11.6573679  35.0900292
  58.6640549  11.2423265  35.6869483  58.8347864  11.6743135  34.2463851
  72.2576094  35.5914855  13.9689922  72.3976421  36.1581874  13.2103944
  72.8318071  34.8409605  13.8165283  72.6723623  53.0559301  29.5997858
  72.1233797  53.5794210  29.0159965  72.9814243  53.6772871  30.2590442
  75.1857948  31.7737341  50.1501560  76.0238266  31.5282273  49.7581625
  75.4139996  32.4206662  50.8177137  34.8549844  22.2354395   0.5838087
  35.7734777  22.3140557   0.3260925  34.8765518  22.2023852   1.5401914
   7.6747283  46.7996788  25.2212834   7.0270690  47.3572302  24.7901034
   7.6852568  45.9972382  24.6995473  78.8189507  49.8352242  73.7112617
  79.4651127  49.5719242  74.3665361  79.2324209  49.6323442  72.8721476
  63.6046124  48.4760904  43.1133842  64.3311453  47.9434443  43.4369135
  63.7871456  49.3558931  43.4433317  83.1142330  15.2768362  56.1944866
  82.3306561  15.2254677  55.6471300  82.7842426  15.2192175  57.0911551
  88.3706284  33.5008168  47.2401381  88.0024719  33.3955646  48.1174183
  88.6029053  32.6124787  46.9696999  75.9436607  20.7649422  34.7902083
  75.1151943  20.3434157  35.0186682  76.3993979  20.1199722  34.2493296
  51.0234594  75.8764458  57.7286577  50.2465200  75.9976816  57.1828556
  51.6319561  76.5535784  57.4329233  77.0095968  81.7118359  53.6412573
  76.7764378  81.7608738  54.5683289  77.8016520  82.2438812  53.5650253
  67.7248096  41.5022612  57.5205088  66.9277382  41.9481897  57.8069544
  68.1660080  42.1383810  56.9575405  78.8127851  44.0836954  22.3944974
  79.0320730  43.9475822  23.3162451  79.2168331  43.3442211  21.9404531
  31.3990171  84.7444074  72.3310861  32.2201307  84.4026678  72.6849492
  31.4701516  84.6079176  71.3863412  74.5951986  29.8345494  69.4587803
  74.0812826  29.3075824  68.8468790  74.8117590  30.6276512  68.9685535
  62.7126360  36.1291814  28.1049752  62.1336412  35.3677511  28.0700350
  62.2756243  36.7351198  28.7033820  63.9266947  84.8192972  48.2476664
  63.0481509  84.6217679  47.9230547  64.2139414  84.0094105  48.6693382
   3.4226473  47.0876455  38.1663108   2.6882514  46.8149185  37.6162934
   4.1727313  47.1070290  37.5719857  77.8105899   0.4036402  46.7722750
  78.1958124   1.0648989  46.1973190  78.4634801   0.2748179  47.4602985
  59.1356421  73.6583233   2.6633140  59.5010090  73.7375307   3.5444877
  58.3630562  73.1040239   2.7733013  70.1421928  28.5130548  33.3745527
  70.4064846  27.9120278  34.0710783  70.2380085  29.3837881  33.7603951
   3.4537181  68.9790821  36.7754769   2.5975951  68.8692045  36.3616872
   3.2795581  68.8928556  37.7127433  13.9670237  47.3043394  73.1050968
  14.2884787  46.4110327  72.9830074  14.7120532  47.8602695  72.8768158
  76.0265303  58.3777380  73.0265474  75.2868319  57.7877855  73.1715870
  75.6455135  59.2547607  73.0699968   9.7134551  57.0964289  21.5214467
  10.4020461  57.0981026  20.8565617  10.1848563  57.1030664  22.3544908
  50.7695349  20.2556777  61.0233259  51.3024481  19.6846521  61.5766478
  50.2070101  20.7273793  61.6375685  22.1702155  29.8683476  55.8835506
  23.0364474  29.6168685  56.2039042  21.8829020  30.5558062  56.4844513
  69.2015600  48.1981754  61.3922215  69.9043751  48.5125875  60.8235121
  68.8713217  48.9865446  61.8230867  82.6454449  59.7764540  56.4032936
  83.0247784  60.5806732  56.7576456  82.1619415  60.0611448  55.6277847
   2.2005709  69.4239283  39.5969200   1.5801486  70.1528358  39.5980263
   2.9387911  69.7369576  40.1196718  84.1594430  49.6671267   8.6674621
  83.9610406  48.8463559   9.1182449  84.8005649  49.4245466   7.9993656
  55.0314714   8.8727124   8.0699470  54.3327333   9.5140345   8.1992080
  55.0667192   8.7447054   7.1219948   8.8036307  24.6204972  27.2081518
   8.4536513  24.5307088  28.0945420   9.3394240  23.8374400  27.0817327
  67.0859194  48.7051868  72.3966932  67.6227188  48.7380362  71.6048622
  66.2355423  48.3843565  72.0964241  22.3697528  34.1778898  24.9949145
  21.6085776  33.6519098  24.7495961  22.3753127  34.8991919  24.3656921
  36.5252857  81.2732728   3.3201864  35.7667141  81.8388685   3.1756141
  37.2723084  81.8717178   3.3275631   1.1304053  57.2613144  56.8870640
   0.7626399  58.0385637  56.4665079   1.8971213  57.5849962  57.3599291
  17.3283728  41.7673874  38.7819481  17.1611556  42.4430180  39.4390607
  16.6976699  41.0760927  38.9833426  77.9428816  37.1387005  60.8630991
  77.6808071  38.0461979  61.0180044  77.9661369  36.7439866  61.7348194
  68.2606363  27.7417326  46.9484615  68.6291695  27.7867532  47.8307247
  68.9473772  27.3316550  46.4226723  82.5382423  12.7794766  47.3737001
  82.7263069  11.8488574  47.2519779  81.6699886  12.7977276  47.7762222
  67.0936060  19.1772211  49.6865606  67.0444202  18.4963763  49.0155458
  66.8583202  18.7298357  50.4994106   3.6554202  74.4377851  30.2373981
   4.2340048  73.7018347  30.4370379   4.1682585  75.2137756  30.4633760
  80.4299355  49.2903948  41.1022949  80.0524044  48.4253263  41.2615204
  81.2419415  49.1136074  40.6272936  35.7073430  79.8035468  45.2322531
  35.2435950  80.4189492  44.6644068  35.2987889  79.9151988  46.0906506
  21.7424163  38.2341814  35.4859662  22.1259745  39.0882802  35.6850457
  21.4583262  38.3057427  34.5747042  25.1218300  73.2277831  12.2561767
  25.8263855  72.9832776  11.6561344  25.3659229  72.8244193  13.0892208
  71.7259504  15.1226027  16.9624260  71.6996004  15.0576718  16.0077980
  72.3129083  14.4170744  17.2343662  62.3798943  83.4141636  32.9822564
  62.3696136  83.8186359  33.8497448  62.7592707  84.0820408  32.4110770
   5.6191596  72.0157242  18.5130358   6.5756091  72.0188999  18.5508382
   5.3705844  71.1407709  18.8111794   9.7010192  77.3605442  55.6249475
  10.6348284  77.3248291  55.4176903   9.6603640  77.8061199  56.4711380
  29.3883017  71.3835574  46.4441586  29.4927052  70.4342414  46.3798952
  29.4327715  71.6912330  45.5388451   6.9403800  56.1204672  50.0360680
   6.0382899  56.4207029  49.9250269   7.0622595  56.0737658  50.9843254
  11.7700823  81.1147022  74.1767359  11.5617236  80.4423523  74.8254013
  10.9181842  81.4492226  73.8963890  83.9335823  45.2687693  41.3709497
  83.6848736  45.7047081  40.5558825  84.7156620  44.7655201  41.1444187
  65.5272390  12.2157080  21.8431118  65.5806161  13.1637461  21.7222717
  66.3770200  11.8884451  21.5481498  59.3600464  27.3811340  51.8632698
  60.0947332  26.7699146  51.8096685  59.0422344  27.4531412  50.9632444
  90.6031609  57.7379131  50.5770159  90.5521870  57.2598171  51.4047003
  91.3524151  58.3238125  50.6846046  80.1749420  56.0702133  65.6656313
  80.0058270  56.7297316  66.3384342  81.1005974  56.1812544  65.4486895
   1.4110813  25.9076149   2.0648315   0.8080158  25.5715926   2.7278688
   0.9439049  26.6418440   1.6662290  29.7213610  23.3359122  49.9610806
  29.8822364  23.9666677  49.2593002  30.4130992  23.5070705  50.6001711
   8.0723723  58.8926744   1.7253526   8.8837393  58.8783693   2.2329970
   7.4100455  58.5449266   2.3225355   4.2486056  32.8860426  30.2281713
   3.5845526  33.4611106  29.8479700   4.8564585  32.7138638  29.5090723
  17.0964202  71.6427803  64.1478539  17.5838431  71.2251520  64.8579502
  16.9729766  70.9480047  63.5011101  22.2476252  80.4550648  71.6366720
  22.6952037  80.5556679  72.4767876  22.9209193  80.6425190  70.9826326
  76.6170740  74.3609190  38.0446410  76.0249472  74.2277193  38.7848282
  76.0572481  74.7061110  37.3491812   7.5793294  81.5988929  47.6650620
   7.6809362  81.0507447  48.4431648   8.4700135  81.7104475  47.3326969
  87.2732258  16.0145795  31.1186981  86.7452621  15.2269459  31.2495255
  87.1988297  16.2000370  30.1825881  86.5892315  27.7646852  53.1638813
  87.3567009  27.7630973  53.7359190  86.9009972  27.3819780  52.3437738
  67.3875809   9.8103398  54.0513992  66.9073248   9.5412081  53.2683563
  66.9255686  10.5899513  54.3595886  37.5773239   3.3405501  26.8049526
  38.3937788   2.9097092  26.5519476  36.9684124   2.6210076  26.9714332
  49.8020438  73.7905098  71.1814928  49.6412161  73.9142347  72.1169376
  49.9124220  72.8450812  71.0804367  82.8319815  77.3437173  12.8626585
  82.2303752  77.3334009  13.6070991  83.6875609  77.5313050  13.2487130
   1.5771063  27.1901274  23.4242272   1.6912898  27.8478885  24.1101909
   2.2975310  26.5747237  23.5601926  75.4165173  37.4066687  14.3954241
  74.9696445  37.4889970  15.2378964  74.7109509  37.4112153  13.7485969
  76.7183113  31.6481924  10.8639455  77.4159813  31.0186028  10.6819999
  76.0487318  31.4604354  10.2061927  90.8594704  42.7628946  22.2383213
  91.7455578  43.0761147  22.4199247  90.5226707  43.3672619  21.5768576
  23.9693907  63.3929778  35.2819681  24.5556334  64.1429211  35.3826427
  23.0903653  63.7643624  35.3569293  18.5520056  57.3537613  56.4016962
  19.3730954  57.7410317  56.7051268  18.7304810  56.4141704  56.3623810
  82.4386501  29.0566421  60.5936813  82.0694065  29.8550892  60.9710026
  81.8042564  28.3735347  60.8107758  89.3266869  29.9172711  53.8375664
  89.1772079  29.1923738  54.4445372  89.6379566  30.6331682  54.3914938
  84.3693447  23.2244897  43.0231380  83.7802219  23.5473967  42.3412943
  84.8652267  23.9962673  43.2964277   7.3565158  28.0151320   6.3361740
   7.4286898  27.2663212   6.9280380   7.0969924  27.6334667   5.4975957
  29.3965462  73.2458759  34.4132757  29.3200139  73.4924341  35.3350043
  29.5011262  72.2945155  34.4277143  68.9730930  15.7470798  31.9486618
  69.4562674  15.7740235  32.7745247  68.5307789  14.8982501  31.9575286
  84.3601990  16.2154555  30.0582767  84.0420628  17.1132100  30.1534557
  85.1703358  16.1931705  30.5676055  58.9252567   0.9750520  67.5331020
  59.3622160   1.5019679  66.8640327  58.6479616   0.1837121  67.0714569
  53.5274220  11.2067187  35.8912396  53.0459356  10.4024625  35.6973982
  53.2940292  11.8029892  35.1797485  66.5810061  10.2839458  58.2375908
  66.1508322  10.4051208  57.3911285  67.3492670   9.7477937  58.0412483
   8.8982252  77.1346606   7.4864775   8.7868098  77.0133311   8.4293967
   8.0063442  77.2143883   7.1482110  63.6491850  80.7792837  27.6794672
  63.6161307  81.3699428  28.4319711  64.2396334  81.2108986  27.0619559
   3.1730994  18.3850300   7.8378534   3.6945590  19.1303360   8.1359035
   3.7637194  17.6352525   7.9102349  42.0349196  78.6589266  38.3231282
  41.4804438  78.7669761  39.0958595  41.4239863  78.4450747  37.6179624
  69.8070002  25.8378339  61.7513752  69.3845510  25.3984785  61.0133076
  70.7059336  25.5090833  61.7431736  37.8098638  63.0800502  71.4673374
  37.1005685  63.1249087  72.1085191  37.9469640  63.9882557  71.1978949
  85.7418060  39.7698832  40.8873892  86.4466763  39.7512817  41.5347195
  84.9804783  39.4227314  41.3522530  20.8180483  44.3878174  59.8081398
  20.7377967  43.5703611  59.3166542  20.1287707  44.9492741  59.4533253
  17.1361121  12.0594108  16.8702972  17.6962050  11.7674959  16.1510563
  17.5580176  12.8550172  17.1946979   4.3018683  10.4258275  57.8687191
   4.3153723   9.4689125  57.8496408   3.6500033  10.6429255  58.5351849
   1.6580445  48.0676650  60.4569897   0.8905036  47.5785970  60.1604578
   2.3716790  47.7528833  59.9021325  47.3945168  83.6373545  25.1980138
  47.0120410  83.8590089  24.3490052  47.0115260  84.2699792  25.8057427
  14.9767741  39.6784711  21.8236470  15.0551947  40.1665735  21.0039902
  15.4094657  40.2315617  22.4741125  65.6175470  19.4824255   0.4818498
  65.9438419  18.7748373   1.0378024  65.4510307  20.2051163   1.0870114
  28.3566168  79.9964322  10.6621933  29.2360285  80.3708310  10.6102920
  27.9221943  80.4999299  11.3506675  29.1737919  36.9156631   8.2761219
  29.8627834  36.3327183   7.9572132  29.5614319  37.3520925   9.0347316
  88.6241722  27.4930835  24.7698283  89.1686058  26.8375230  25.2057886
  89.2433834  28.1605101  24.4742823  86.3061598  75.9808166  19.1191936
  85.7278708  75.4788567  19.6935201  87.1834448  75.6527663  19.3166375
  12.8573378  47.6548338  42.1912861  12.5728568  48.4071541  41.6723299
  12.0828208  47.4047470  42.6950884   4.9901732  15.2051091  11.8422854
   4.6531256  14.4435859  12.3142099   5.8730181  14.9496448  11.5747809
  76.8270826  51.2133646  17.3466897  76.3492012  51.7338181  17.9924345
  76.3060522  51.2865734  16.5470648  87.3875427  42.0116615  19.4293272
  86.9846058  42.2769785  18.6025989  87.1856403  42.7255630  20.0341511
  67.0537996   7.6271349  39.1777205  66.4349079   7.3285633  38.5113430
  66.5351629   8.1924325  39.7501588  23.2147367  43.9798156  73.1089628
  23.8715131  44.6725495  73.0383428  23.7182481  43.1926378  73.3164688
  20.3961142   6.0685700  11.3470888  19.9659976   6.8229520  11.7497516
  21.3261851   6.2948596  11.3472605  73.0884266  20.7018471  23.7196612
  73.3588552  21.5302563  23.3236361  73.5956287  20.0369143  23.2539988
  52.8573493  70.3284086  55.7184982  53.1078509  70.7371582  56.5469933
  51.9300822  70.1168896  55.8265018  80.1579380  13.6840081  23.9363241
  80.6731987  12.9983163  23.5113859  80.7870770  14.1496515  24.4873190
  10.9656676  57.4745512  19.2116380  10.7434615  57.5400877  18.2828951
  11.7129954  56.8770027  19.2375243  87.1687412   4.5758215  58.4400558
  87.8339672   5.2270406  58.2172823  86.6539764   4.4756725  57.6392937
  27.8323420  26.8582964  22.9880023  27.0741137  27.3053908  22.6119351
  27.6733931  26.8698525  23.9318419  30.4904631   3.8679830  74.0267520
  30.4375247   3.2793848  73.2737674  30.8167819   3.3174936  74.7385866
  85.4065514  54.6049356  37.4028826  84.7385120  54.5515585  36.7194343
  84.9344063  54.4185019  38.2143950  88.9886951  33.7838149  29.7164416
  88.1138134  33.5627222  29.3971753  89.3841171  32.9400253  29.9352837
  54.8306254  75.5981613  61.8790245  55.7442931  75.7526864  62.1189737
  54.8615531  75.3770305  60.9482288   8.0261573  44.6673393  31.3631749
   7.3762664  44.6514225  30.6605935   8.8691767  44.6555328  30.9099579
  71.1122465   8.4394944  45.5881882  70.2551413   8.0367070  45.4490185
  71.7391968   7.7492064  45.3721666  71.2205507  11.3935978  16.9536235
  70.6838991  10.7006867  17.3384884  71.7857267  11.6842968  17.6693752
   8.4619578  57.2678661  57.1144199   7.5373992  57.0530224  57.2379827
   8.4741648  58.2185078  57.0032454  68.1976891  28.4991431  51.9407034
  68.1145811  29.3596649  51.5298176  67.3161364  28.2973456  52.2543478
  16.6441020  34.5498276  15.8985555  17.5748690  34.3269753  15.9144998
  16.3035830  34.1009855  15.1247239  87.7161884  43.5503531  31.3877201
  86.8410492  43.2242107  31.1779785  87.5609493  44.3022633  31.9593525
   7.8130778  16.6822600  70.3228951   8.6185225  17.1257269  70.0567627
   7.4694976  17.2182655  71.0376501  48.2535151  59.4576884  12.4434137
  48.8648108  59.0762592  13.0735409  47.4457720  58.9576055  12.5604773
  90.5910492  50.7121468  44.9424076  90.2736568  49.8986483  45.3344727
  91.5324593  50.7101059  45.1155472  21.9044360  18.4795654  43.9880037
  22.7972277  18.6962843  44.2566776  21.6302928  19.2207110  43.4478378
  85.4694080  15.8125019  15.4751837  85.7001686  15.8364534  14.5465243
  84.5124340  15.8306634  15.4847276  82.8525448  36.2994552  17.8912604
  82.4544144  36.1842561  17.0284450  82.9556465  35.4094768  18.2282233
  46.1624220  79.6314777  43.6200905  46.9895199  79.4015021  44.0434742
  45.4990080  79.4829811  44.2939377  56.4202956  84.2279237  74.5980501
  56.6161326  84.6082545  73.7417603  57.2130469  83.7455786  74.8328447
  11.2412746  75.8268707  58.4427175  10.8423907  76.5810077  58.8767645
  11.3007743  75.1603882  59.1271851   2.2158965  18.8995409  43.8486242
   2.7420100  18.3156931  44.3950272   1.8381175  19.5277989  44.4640970
  80.3953266  23.7393999  20.8569145  80.5583286  24.6135831  20.5027056
  79.5775127  23.8279581  21.3463759  68.4231281  31.0422397  10.5322373
  69.1210985  31.4596415  10.0274158  68.8211584  30.8558178  11.3825607
  77.5207090  63.3290577  35.7404447  77.0552921  62.6993227  36.2909532
  76.8304062  63.7715578  35.2465749  18.9328154  41.7919970  36.7235804
  19.4734915  42.5690460  36.8653250  18.4835681  41.6573334  37.5580120
  26.2245043  21.3781214   6.5559238  25.7373866  20.6382561   6.9186217
  26.2679537  22.0108438   7.2728664  79.4831228  33.8849401  45.2648687
  78.7773848  33.4901953  45.7770586  79.5693064  34.7702932  45.6183529
  24.9574622   4.8707923  46.0532856  25.3481730   5.7220310  46.2507010
  24.8569354   4.4496280  46.9069529  49.7991732  61.9827748  26.8704128
  50.1541308  62.8243853  26.5841722  50.5577258  61.5041209  27.2046518
  34.6400984  45.3475189  27.9610705  33.7143191  45.5180025  28.1345582
  35.0852450  45.5953884  28.7714052  88.7655067  14.5339394  14.0385306
  88.4100533  14.5660961  13.1503582  88.1542683  15.0541031  14.5601130
   4.4095572  13.4521782  21.4129829   4.4822272  14.3056619  20.9857631
   3.6810454  13.5523140  22.0257425  40.2806119  73.0894018  47.0914173
  39.5878247  72.7713836  47.6703262  40.7412509  73.7495817  47.6093006
  73.9778614  13.5879385  60.8195734  74.1150427  14.5079863  61.0452366
  74.7672892  13.3389449  60.3389072   1.3566741  18.7515652  30.7980490
   1.0322055  18.4105158  29.9645996   1.5759619  17.9711699  31.3070965
  34.5932465  62.4793502   0.2473428  33.7890415  62.9696377   0.4179838
  34.2933350  61.6001173   0.0166156  22.3285159  35.8966947  32.7870941
  22.8553351  36.6850066  32.9184794  21.4276942  36.1825943  32.9387760
  67.2923422  22.4418831  28.0626726  67.7714491  22.5652170  28.8821101
  66.4757729  22.9254627  28.1875420  17.6282176  13.1594670  55.3948069
  17.5261267  14.1029382  55.5199957  17.1040496  12.9627728  54.6184111
  17.8098447  36.2314950  56.2002036  18.0091912  36.8739741  55.5192396
  17.3233134  36.7252522  56.8602977  66.5042114  30.3632402  35.5971575
  66.8085670  31.1779666  35.9969330  66.1020756  30.6366324  34.7726727
  72.1671867  20.1912665  16.7726231  72.3136806  19.7179127  17.5915897
  72.2238684  19.5187545  16.0938394   3.4007510  31.0817289  18.4189677
   2.8976210  31.7899680  18.8208282   3.9446028  30.7413244  19.1293049
  76.0931281  75.6797338  62.0960093  76.6464690  75.6093896  62.8738928
  75.4311827  76.3300086  62.3309565  17.7725943  12.5664890  52.4325895
  18.0070075  12.9501772  51.5875673  18.6081751  12.4594939  52.8871059
  83.4716511  12.5365746  55.0294399  82.9315662  11.7556894  55.1509285
  83.3596706  13.0336809  55.8397341  83.9486694  40.3791380  33.7459540
  83.5752106  41.2369490  33.9482355  84.3334198  40.0847101  34.5714903
   9.1209849  46.2300301  47.8259611   9.9151667  46.5388870  48.2619810
   8.6858138  47.0285225  47.5271797  52.4543551  83.1971983  45.5648136
  51.8115214  83.8269758  45.8909702  51.9750384  82.6785398  44.9186802
  23.9810523  46.9215822  19.5972383  23.0543288  47.1587133  19.6316612
  24.0100726  46.0212278  19.9208975  70.3392581  77.0741350  42.3399210
  70.7067565  77.4299962  41.5308809  69.6248797  76.5071339  42.0493984
  60.2296352  45.3700495   8.8395089  60.9158182  46.0283566   8.9490962
  60.5835056  44.5837498   9.2551309  72.0935515  85.5753809  52.1669054
  71.4407233  86.0574432  51.6593027  71.6984919  85.4769856  53.0332041
  78.6410999  26.0113406  20.8361268  78.1241894  26.4356184  21.5209794
  78.4108925  26.4828086  20.0355315  82.9804325  29.7885394  22.4153328
  82.9594135  30.7406688  22.5114751  82.5419903  29.4588661  23.1997561
  20.0368270  37.0175838  63.6024237  20.8343943  36.5168428  63.4310436
  20.3301200  37.7634692  64.1257477   8.8567504  24.7612095  49.1243982
   9.3698271  25.3679371  48.5906696   8.5515174  24.0974355  48.5059595
  11.7572173  50.0891972  47.2649145  12.7111109  50.1316357  47.1976900
  11.4741954  49.7220039  46.4274788  17.8145083  18.9634323  31.3430834
  17.0755728  19.2187428  30.7907891  17.4105128  18.6220860  32.1408987
  80.2691936  10.6559825  46.2066031  80.8098602  10.3072345  45.4978800
  80.1507473  11.5796626  45.9852076  76.8237019  25.9129810   9.3932974
  77.5576162  25.8047032   9.9981761  76.1225939  26.2813234   9.9308872
  28.8021810  78.9644139  65.7967803  28.0901868  78.9532845  66.4364419
  28.9318044  78.0443780  65.5666468  76.0410070  50.0042439  71.1511660
  76.5635729  50.3902674  71.8541193  76.6520262  49.4349194  70.6834412
  84.6357727  25.7356238  32.3767447  85.1766300  25.8861351  33.1520224
  84.9401855  24.8963094  32.0316100  23.4036311  21.3333130  66.6350174
  23.1057318  20.6786489  67.2666073  24.0472182  20.8718967  66.0973120
   5.1035365  28.0357218  36.4011931   5.5246791  27.4847531  35.7414126
   4.1685256  27.8569365  36.3011527  67.9365540  15.7385242  26.9398284
  67.4403620  14.9419880  27.1284056  67.9431248  16.2183332  27.7680635
   9.7358760  64.4583941  49.2466879   9.0130671  64.7748661  48.7048149
   9.7954520  63.5245943  49.0449286  88.2171154   1.5407136  14.0575171
  87.3116398   1.3235676  13.8357377  88.6996841   0.7257482  13.9189756
  88.8460636  38.4167719  61.8997765  89.4317150  37.6623058  61.8364096
  88.7882137  38.7509251  61.0046625   4.7666224  28.2219195  40.0048733
   4.0062293  27.9072881  40.4938030   4.5630034  28.0226302  39.0910602
   2.7948100  72.5720780  68.0412355   2.4999721  71.6952388  68.2871119
   3.1475599  72.9418795  68.8505838  25.4171542  85.6419235  19.8374641
  25.4558686  84.7155933  19.5994616  24.7457436  85.6864432  20.5182409
  70.8594370  26.8441629  47.9792833  71.4531755  27.5766802  47.8145885
  70.6676483  26.4912891  47.1104193  72.6609898  57.6552105   7.9874682
  72.8267622  58.5946846   7.9091036  73.5216236  57.2737837   8.1608355
  73.7437296  16.3804555  47.9285097  73.6840010  16.3236225  48.8821554
  72.8347445  16.4414215  47.6348066  40.9165077  75.8929714   2.1464756
  40.7344227  76.2969812   2.9949167  41.6795330  76.3661822   1.8146827
  22.8661879  15.3064013  19.6104431  23.6940344  15.3889966  20.0838184
  22.9013785  14.4346452  19.2166984  81.0353565  16.4717996  39.9838853
  80.9560680  17.4162698  40.1177454  80.2151585  16.2203789  39.5592761
  19.2428684  17.9286242   4.4788143  19.5455527  18.0878639   5.3728259
  18.3303833  17.6576090   4.5795855   3.9250430  29.9598026  33.8266611
   3.5231455  29.1635990  34.1741872   3.9423712  29.8254061  32.8791022
  82.9424667  27.0511150  55.2975464  83.7886429  26.6101050  55.2217865
  82.4162579  26.4674473  55.8440447  84.3356228  10.5948150  41.3353825
  84.9295044  11.2569392  40.9816504  84.8910904  10.0462437  41.8892431
   1.0961798  82.8869526  47.5638866   1.5418366  83.5693038  47.0618725
   1.7951325  82.2885121  47.8276396  73.7000540  56.0190440  59.7476339
  72.9456404  55.6018020  60.1635647  73.3203772  56.6930915  59.1839504
  19.4499452  75.5176132  64.6387843  19.9657113  75.0910871  63.9544675
  20.0513990  75.5940335  65.3794900  15.4932746  55.2478933  27.5398326
  14.7444686  55.6253052  28.0014253  16.2574633  55.6407356  27.9616475
  74.2729568  13.8708746  17.0133317  74.7548723  13.5269368  17.7654576
  74.0010595  13.0926430  16.5268540  79.1786098  31.3182640  32.5251055
  79.4256163  30.5818319  33.0844712  78.8691473  30.9111714  31.7159462
   6.9168433  57.8870296  37.4940538   7.0289096  58.8316441  37.3873806
   6.6575583  57.5770950  36.6263270  68.7417841   3.4614745  59.9767876
  68.8830853   3.3922219  59.0326118  68.2122803   2.6949570  60.1965857
  74.5423746  21.7862511  32.2296476  74.4940901  20.8926892  31.8898749
  74.6893215  21.6776061  33.1692410  80.7769012  38.5060978  19.1658914
  80.0364971  37.9773211  18.8685036  81.5396404  37.9411149  19.0424097
  89.8676777  81.0675907  48.4540892  89.2082787  81.6072941  48.0180311
  90.5662632  80.9731388  47.8065586  75.9857290  20.4868681   0.5199983
  75.6853359  21.3265688   0.1722887  75.8547061  20.5584795   1.4654806
  50.8953020  83.9876803  26.8189171  50.9037610  84.8361262  26.3758495
  51.4137288  83.4163912  26.2522628  90.2501113  69.5745039  72.8011084
  90.5391588  68.6638784  72.7423811  91.0264380  70.0872040  72.5759697
  21.8713953   4.1461165  13.8344314  22.4510099   4.1103537  13.0735042
  21.5786458   5.0567563  13.8699272  67.8280239  27.1296341   7.3042514
  67.7468609  26.5741856   6.5289333  68.3276187  27.8888066   7.0037677
  26.2258693  79.5671972   1.9462755  26.5706554  79.8717531   2.7856805
  25.4222938  80.0717672   1.8201521  26.5165177  70.7094224  56.2491825
  25.9369751  71.3073786  56.7212131  27.3903948  70.9069904  56.5861347
  59.2541889   8.5960991   2.7749231  59.1986268   7.6972659   3.0993440
  58.9979245   9.1366990   3.5221222  40.6586361  19.0556765  71.2659693
  40.5706358  18.1181514  71.4378214  41.1863804  19.3841100  71.9938755
   0.0326945  71.2406666  43.8676384   0.2113391  71.7948754  43.1079223
   0.4092099  71.7185910  44.6065929  42.4886700  69.1869553  22.0580414
  42.3904201  70.0160130  22.5262764  43.2509967  69.3190678  21.4944484
   2.7288789  47.9711628  69.2795610   2.1000272  47.3434591  68.9235163
   2.9797444  47.6042271  70.1272964  62.7861902  70.3766902  24.2227771
  62.4788186  70.0346383  25.0622776  63.6556384  69.9921449  24.1113403
  53.9411994  75.3730114  30.3592422  53.4285661  75.1185568  29.5919731
  54.4820711  76.1017903  30.0549820  13.5484430  40.9010785   4.0921524
  13.9506575  40.7022998   3.2466104  13.4368452  41.8517352   4.0867212
   6.7111123  73.8922167  50.5496502   7.2583598  73.1092310  50.6103516
   5.9927762  73.7303734  51.1612272  58.0232283  80.6744035  10.2326038
  58.7373992  80.9761866  10.7939651  58.4537622  80.4051956   9.4211891
  43.3724873   9.1868050  15.1244285  43.8499706   8.3929760  14.8834255
  43.6466520   9.8369009  14.4775608  29.8411489  33.1131840  65.7990837
  28.9507198  32.8347301  66.0131693  30.4040146  32.5022554  66.2746620
   1.4083377  54.6268415  48.7481403   0.6483243  54.4776154  48.1856966
   1.9819176  55.1920986  48.2307196  60.5844661  77.0063408  29.3454673
  59.6527454  77.1751030  29.2053058  61.0247752  77.7715405  28.9755657
  64.4320079  71.3596734   1.2590101  63.7752625  71.6121109   1.9079998
  64.8143765  70.5537518   1.6061666  64.8438946  57.8552341  62.1265507
  64.3088118  57.0616007  62.1346092  64.8572985  58.1257486  61.2084675
   7.5871420  50.3934097  57.1064806   7.9250395  51.2889194  57.0956850
   7.1822369  50.3005791  57.9688454  19.6910716  55.1017792   3.5407379
  19.9686529  55.4795582   2.7061918  20.3552963  54.4411881   3.7373474
  64.1937753  73.9410122  17.6181724  63.3025834  73.7244757  17.3440960
  64.7543045  73.5063561  16.9754341  31.5265799  60.8935758  31.9309261
  31.4383116  60.4729017  32.7861908  31.1711895  61.7731079  32.0588043
   0.5186637  37.3433828  67.0204306   1.4050604  37.7045774  67.0288992
  -0.0218042  38.0435777  66.6545725  80.4453175   5.4599936  23.8464859
  80.4464488   4.7411854  24.4785812  79.7329955   6.0309346  24.1343334
  87.5738399   9.3994362  33.5447052  88.3215015   9.9011452  33.2198646
  87.7033012   9.3631585  34.4924190  53.9841240  21.5793927   1.2056997
  53.6899900  21.2100680   0.3730419  53.2956844  21.3451560   1.8281248
  79.5115476  32.5493700   1.0483101  78.6127227  32.7024586   1.3397052
  79.4479590  31.7961056   0.4611280  37.6041794  50.3707075  66.1960840
  37.6516914  50.8207226  67.0395660  37.9810381  50.9910536  65.5720854
  29.2264414  33.0685425  74.4341516  29.6274137  32.3263884  74.8865414
  29.4895601  32.9623628  73.5199690   6.2611917  75.9233881  71.8787479
   5.4478291  75.5718494  72.2408152   6.2750248  75.6115581  70.9738684
  79.1267654  67.2886451  57.1134880  80.0529596  67.3079999  56.8726089
  79.0982124  67.6793440  57.9868534  63.0683874   7.9297049  12.2624805
  63.8419279   7.3670180  12.2271278  63.1723293   8.5265954  11.5214374
  16.2155449  33.0389547  73.0311394  15.9858775  33.8468027  73.4903479
  15.7290995  33.0847478  72.2080326  63.3885237  61.7673250  38.8769558
  64.1150233  61.4998706  38.3140209  63.7360593  62.5009187  39.3841961
  18.7330438  37.4879677  16.9093921  18.9978553  38.2666714  17.3990085
  19.1076662  36.7570622  17.4009922  82.4548504  33.2844567  41.2058926
  82.1302954  33.9173508  40.5653143  81.7844550  33.2697916  41.8889618
   2.5979123  38.3014321  73.2248402   3.4760693  38.6815119  73.2495880
   2.7418092  37.3597050  73.3179760  82.7001422   9.9297316   2.1076753
  82.6448219   9.8073370   1.1599424  83.5756271  10.2887518   2.2521093
   6.7686409  39.1583753  41.5206003   5.8784056  39.3277764  41.8288422
   7.2816551  39.8945665  41.8538761  11.3147785   4.3328412  28.2646969
  10.3654529   4.4545777  28.2507637  11.6519977   5.0125010  27.6811149
  19.5841444  58.7267780  38.0245900  20.2274561  59.3058062  37.6158047
  19.1525149  58.2914114  37.2894812  13.0088648  67.0950969   2.5660827
  13.1335625  66.3022765   3.0877283  12.0906087  67.3289617   2.7015283
  35.6372174  74.8670395   0.1474073  35.5499538  73.9290937  -0.0225231
  36.3248351  74.9273475   0.8105638  66.5155574  57.5361761  26.7621162
  65.7532331  58.0904051  26.9292095  67.0769783  58.0655130  26.1956813
   4.9149014  39.5918972  23.9087799   5.2002646  39.5043213  24.8182419
   5.3976370  38.9113362  23.4396961  83.1782947  43.5237503  32.7674103
  84.0883902  43.2359934  32.8392172  83.1360582  44.3192959  33.2980204
  35.7292917  69.4820674   2.3078945  36.3221600  69.6520289   3.0399158
  36.3069447  69.3695267   1.5529897  29.8704626   2.6810391  38.5467842
  30.7265712   2.5995810  38.1264618  29.7261287   3.6248047  38.6153438
  86.2103212  84.4346674  60.7025936  86.4487827  85.0907477  61.3575199
  85.2533591  84.4188364  60.7168319  59.1772791  66.0262068   2.1719434
  59.9280855  65.9431084   2.7598360  59.0325996  66.9696792   2.1001032
  45.9284064  71.5315040  32.9151752  45.0170227  71.2442215  32.9706505
  46.3698312  71.0663827  33.6258342  42.8808996  77.4605711   4.4524076
  43.3861455  77.9018792   5.1352003  43.4997579  76.8483194   4.0544155
  89.5706563  15.8880091  69.7819948  88.9304037  15.8740342  70.4934120
  89.5399810  15.0045824  69.4147730  39.6756101  37.3957348  62.4392557
  39.1124558  36.7057490  62.0885277  39.6032619  37.3041344  63.3893108
  37.7363535  59.2178913  26.5118530  38.6420753  59.3349203  26.7985656
  37.2820386  59.9985274  26.8287685  18.2716133  39.7404702  31.4109447
  17.5704195  39.3152268  31.9046238  17.8178503  40.2382596  30.7308414
  16.4473403  17.0074940  63.0458212  16.7407751  17.3268068  62.1924973
  16.3313341  16.0654414  62.9220867  42.8806397  71.2151321   8.2658317
  42.8354963  72.0293053   7.7645233  42.1001383  71.2313159   8.8197162
  24.7068644  42.0823956  69.7833920  23.9728642  42.6752949  69.6223164
  24.8117137  42.0839977  70.7348347  38.0069437  42.0259449  15.6265285
  38.8520208  41.5935700  15.5035331  38.1022599  42.5089653  16.4474037
  17.9813720   7.2385771  35.1818206  18.8922121   7.0124371  34.9934986
  17.7884771   6.7898686  36.0050419  38.0058312  27.0477581  43.3413219
  37.2890425  26.4137006  43.3616781  37.6930666  27.7443814  42.7641535
  41.3114103  79.1978916  26.1492279  41.1286959  79.9953993  25.6524112
  42.2464641  79.2482527  26.3476494  27.0408034   1.4485174  69.2136335
  27.7283120   2.0855686  69.4078732  26.2289524   1.8872941  69.4678020
   3.8832214  70.5436563  55.8322048   3.5816154  69.6435213  55.7096386
   3.1124493  71.0813570  55.6504869  10.2941486  79.6568259   2.0415332
   9.5655462  80.1308855   1.6407325  11.0774871  80.0738128   1.6827324
  33.7617876  12.3478634   6.2908485  33.5435201  13.2192309   5.9602287
  34.0099622  12.4933178   7.2038009  22.2022319  33.3088660  69.3117332
  21.8311548  33.6292934  68.4896278  21.5108609  33.4513545  69.9582100
  24.3261441  67.6647170  36.3550594  24.8285803  68.4782775  36.3987568
  23.5091587  67.8628810  36.8127659  36.6512626  38.9720471  13.6049202
  37.5861185  38.8021023  13.7206581  36.2329905  38.1249077  13.7586143
  58.5216853  75.3048476  18.3122184  58.0324980  75.6769331  17.5784042
  59.3517538  75.7815226  18.3129814  64.4174140  12.5627739  46.8805149
  64.4157540  13.1435378  47.6413944  64.5723849  13.1439812  46.1359146
   6.0348035  11.4677174   6.0177162   5.3104903  11.9517977   5.6211403
   5.9161688  11.5884097   6.9598320  58.6452254   2.7800734  56.4273479
  58.4822274   3.3193428  55.6534889  58.0468609   2.0389111  56.3331535
  88.4229081   9.7906191   0.0863483  88.2995050  10.0632412   0.9955719
  89.3212741  10.0478680  -0.1210043  24.0531351  12.8753741  13.0508735
  23.6040021  12.6203425  13.8567665  23.8083793  13.7914355  12.9198768
  66.0676571  84.3610676   9.9780204  66.8944641  84.7828921   9.7441700
  65.5833050  84.3100985   9.1539886  24.1533567  25.7207186  20.8489254
  23.8144494  25.6737788  21.7428901  23.4159852  26.0416682  20.3297832
  57.4520012  61.8051811  26.4014652  57.3701688  60.8772274  26.6215446
  57.6444003  62.2331472  27.2357681   1.5675528  26.4345574  73.0942631
   1.6785917  27.3530316  73.3398342   0.8920562  26.1077285  73.6885023
   1.4090420  25.9186060  13.6140564   1.4270712  25.0193436  13.2865837
   0.4845740  26.0894806  13.7940242  35.4912210  73.4523726  70.2418184
  35.3469467  74.3463945  70.5518818  36.0737228  73.0636263  70.8943558
  34.8597511  66.6576346  28.8371494  35.2331522  67.3250063  29.4128444
  34.2929399  66.1388524  29.4079616  44.0259790  28.0273128  69.3299055
  44.5906973  27.4545717  69.8488379  43.2164383  28.0887985  69.8369455
  82.9533904  22.5618966   1.0330513  82.4905889  21.9570477   0.4532221
  83.7528675  22.0954306   1.2769201  88.3333894  75.7972821  12.1920517
  87.8897497  75.9197410  11.3527515  88.8568374  76.5907772  12.3042896
  48.1630179  83.8866576   1.6433981  48.8217672  83.7522419   0.9620693
  48.5420963  84.5546778   2.2146108  42.0570167  81.7502864  34.7678402
  42.0000323  82.1080764  33.8818576  42.4684628  80.8935364  34.6541622
   5.4483248  55.9624417  42.5121906   6.0756065  55.5065377  43.0733516
   5.3762247  55.4089577  41.7345741  73.0150291  62.6459046   9.3114975
  73.1069299  61.7966779   8.8795307  73.6800214  63.1974467   8.8994053
  29.2428876   3.1211359  25.8207538  29.3335201   4.0640814  25.6833961
  28.3486845   3.0110438  26.1440399  64.2688697   6.5554936  44.4845512
  65.0719302   6.9036419  44.0971019  63.6545928   6.4993317  43.7526062
  57.3996401  14.7366738  68.1465387  56.6718531  14.9625921  68.7257767
  57.9508209  14.1550481  68.6701250  12.0721138  42.1048880  43.7428427
  11.7767894  42.3353624  44.6236944  12.0441151  42.9294109  43.2574463
  17.3961069  14.6702225   1.2621906  17.6466991  15.0874932   0.4379823
  17.5882389  13.7420304   1.1288526  11.6893824  70.3240522  37.0723274
  11.5213581  71.0807475  37.6339462  11.2276718  69.6020826  37.4987247
  31.8261177  66.9449123  11.6706016  31.9389601  67.1602543  12.5964191
  31.0374593  67.4198993  11.4086178  35.0626832  83.1845387  20.2102497
  35.8662447  82.8686388  19.7970512  34.6379479  82.3940810  20.5434253
  68.9606189   8.7899716  35.3261497  68.5464542   8.3617766  34.5769146
  69.0390532   9.7073681  35.0644901  35.3862762  31.2159634  24.1793299
  36.1982465  31.5290999  23.7807298  35.2694106  30.3347969  23.8241959
  19.5672429  62.8462934  71.8433857  19.2499948  63.2900381  71.0568237
  19.2211771  61.9566584  71.7725468  20.2599120  61.3425064  55.3706551
  19.3760419  61.6647720  55.5471516  20.8326244  62.0717382  55.6082582
  59.5388123  82.5503262   0.5162218  60.4855653  82.6365813   0.6278160
  59.1657802  83.1452282   1.1667326  36.0143876  81.9684124  66.6942835
  36.9372821  81.7369556  66.7988253  36.0031533  82.9252338  66.7188549
  48.8571545  72.6675065  11.7390945  49.3676158  73.3968481  12.0908382
  49.5072159  71.9929083  11.5427044  37.2589895  60.9137114   8.7013176
  38.0468216  60.6655427   8.2176140  36.6425231  61.1967727   8.0259826
  66.6597363  68.9553698  13.7508800  66.6397306  68.6656841  14.6629741
  65.8058735  69.3646654  13.6107853  21.7403318  10.4849465  11.8728664
  21.6625883  11.4388211  11.8551471  22.6833917  10.3212912  11.8637779
  19.6229470  79.5097637  72.0624542  20.5297875  79.8003483  71.9653177
  19.1395628  80.0093651  71.4044428  13.7508821  57.6028395  72.1327114
  14.6590269  57.6692152  72.4278355  13.8080966  57.6140928  71.1772919
  77.7789085  14.5820410  19.5519378  76.8916910  14.8762019  19.3456581
  78.3483510  15.2365334  19.1474464  54.4083210  70.9889563  23.1021621
  54.0979835  70.1684650  22.7191284  55.3372237  71.0236605  22.8737571
  47.3790853   6.6491396  10.5420520  47.8081196   7.2694714   9.9526813
  47.0838433   7.1839125  11.2789848  76.0841751  59.6438742  68.4452343
  76.5255308  60.4931593  68.4326696  76.4190912  59.2115068  69.2308044
  38.2233241  80.2915653  46.9654014  39.0545752  80.7608517  47.0362690
  38.4744688  79.3734463  46.8643310  25.0764181  12.0527632  19.2467144
  24.3273879  11.9977171  19.8401382  24.7029497  11.9150145  18.3762100
  72.9144880  57.5323745  18.0919864  72.4023506  56.9966980  18.6977890
  73.5918209  56.9411977  17.7634170  31.5236235  59.7896099  70.6977415
  31.0120392  59.4009686  71.4072990  32.4287486  59.7525978  71.0069561
  22.2021963  12.0673544  15.0345733  22.5211193  11.3321764  15.5580547
  22.0577003  12.7687581  15.6697014  86.2141112  76.5857029  64.9032402
  86.9025878  76.5921211  65.5682135  85.5843256  77.2407055  65.2041960
  69.2520254  21.8160422  10.2300861  69.2940860  21.1370118  10.9034279
  69.9456387  22.4316437  10.4670742  62.3123642  77.3163255  59.1582420
  62.0486494  77.9869636  58.5282161  61.5081688  77.1027478  59.6314075
  16.0253812  32.7797921  13.8571384  15.5814649  32.3513968  13.1252601
  16.9291212  32.8859122  13.5601165  32.9386640  36.6647625  29.3206501
  32.3799467  36.0703087  28.8199615  32.3273849  37.2630286  29.7503567
  73.0605166   7.2259028   2.5100925  72.2939830   6.6601641   2.6028183
  73.5706108   6.8246872   1.8064859   6.9756186  59.9995327  71.5179873
   6.3418746  60.7080698  71.6301060   7.7014506  60.4007959  71.0400915
   5.9846641  39.3866856  18.5030201   5.4922201  38.9937146  17.7823856
   6.8341495  39.6067173  18.1206730  45.1099619  59.8975619  15.0536087
  44.4783899  59.6458538  14.3798187  44.7473821  60.6971117  15.4350307
  26.8518209  38.9151716  70.4305649  27.3715377  38.8971066  69.6269464
  27.2123575  39.6460748  70.9325886  28.2514358  25.2255321  71.4245415
  28.2904315  24.6475577  70.6625319  27.4692321  24.9439216  71.8989706
  87.9032605  38.7792141  12.1074989  87.1993678  38.6850483  12.7492931
  87.6031630  39.4755681  11.5233162  26.5462923  28.3857775  55.3223658
  27.1045446  27.8506875  54.7582197  26.6411853  29.2744923  54.9797106
  21.2537956  42.9554796  68.2125282  21.2242365  43.2338047  69.1278934
  22.0013762  43.4255934  67.8432703  90.1093524  13.5807879  16.0839966
  89.7650330  13.8469870  15.2314594  89.6642249  12.7551682  16.2749031
  79.5711427  32.8492339  19.1174724  80.1777928  33.2303984  18.4827068
  80.1079111  32.6844199  19.8926761  33.8382673  62.5701761  56.6560411
  34.2023683  63.2837629  56.1321592  33.7657857  61.8371296  56.0447931
  79.5572477  10.5239661   8.9651516  79.5470505   9.5940955   8.7383011
  79.0603667  10.9468300   8.2647731   0.5020270  49.8469973  62.2986698
  -0.2879616  49.3447399  62.4983835   0.6752054  49.6638918  61.3752460
  31.5291645  20.4572899   3.7030389  32.1168710  19.7043688   3.6402300
  31.5432979  20.8457835   2.8283384  81.2036201  84.9204977  16.4102676
  80.3718873  85.3541382  16.2194374  81.8695661  85.5705746  16.1863353
   5.8835389  27.6985867  15.4045131   5.3918792  27.5661881  14.5939758
   6.7895843  27.4969895  15.1707008  79.2892628   2.8784354  19.4136074
  79.9605434   3.5592778  19.4590976  79.4077616   2.4825509  18.5502079
   5.1613618   2.0437748  11.5720585   5.0744368   2.0513232  12.5252750
   5.6684591   1.2540038  11.3840416  75.2947300   6.6682703  21.5748336
  75.0354104   6.0063822  22.2158458  75.7397991   6.1737759  20.8866337
   3.6024429  20.5063040  19.5353153   4.5060731  20.7541401  19.7309139
   3.5561062  20.5047734  18.5792377  25.2286121  77.4254688   7.8299358
  26.0449972  77.9227551   7.8794601  24.5561912  78.0388173   8.1263855
  24.7634878  85.2477654  16.5654972  25.1182737  85.2048357  15.6775119
  25.4932192  85.5606802  17.1001079  67.1322160   9.0889533  20.3111103
  66.2073969   9.3003828  20.4385402  67.1373903   8.4644682  19.5856884
  57.8827878  81.0857900   3.6975267  58.1394597  81.5300616   4.5055988
  57.1794053  80.4933198   3.9629724  72.7150445  35.6645997  33.8875129
  73.2768076  36.3680108  33.5621383  73.2346707  34.8693497  33.7700584
  56.3982912  80.7594951  40.7578781  56.9949838  80.3873738  40.1084831
  55.5395409  80.7352503  40.3357532  16.8826258  53.4834862  55.7596350
  16.2117088  52.8010654  55.7797050  17.1110618  53.6218882  56.6788149
  37.5076675  24.5218897  61.6581869  38.4056616  24.2194581  61.5226364
  37.5873613  25.4701138  61.7618656  75.9137636  23.3605940  28.0628135
  75.3244334  22.6485140  27.8140953  75.8949416  23.3638651  29.0198162
  22.6179227  82.4327715  33.4227588  23.5086259  82.1071394  33.2929733
  22.2671684  82.5302299  32.5374916  63.8448831  76.6302832   2.4590042
  64.7897741  76.6253122   2.6119354  63.6947485  77.4017223   1.9125869
  78.0413333  33.4811044  57.5041866  78.4417740  32.6201940  57.3828840
  77.6110844  33.4270430  58.3575296  78.6896781  58.7469339  45.6264925
  79.1777507  59.0671492  46.3850927  78.5928909  57.8075981  45.7830524
  90.9626358  14.2136700  22.7532127  90.9378593  14.7418387  23.5511234
  90.6497901  14.8024638  22.0664241  75.5979756  18.7859082  72.8107452
  74.8717395  18.7176239  72.1909475  75.5723695  17.9642856  73.3011627
   0.2861620   2.1754630  37.8653267  -0.6122635   1.9939072  37.5894573
   0.6284167   1.3252194  38.1413200  78.7465184  12.5831587  21.5513065
  78.1427782  13.0910237  21.0092666  79.2395180  13.2410557  22.0415714
  23.7021089  43.5191965  63.5039425  24.4392347  43.4276915  64.1076851
  22.9558301  43.1552076  63.9801979  54.1280433  69.8061427  30.8560589
  55.0424692  70.0281843  30.6806972  53.7537881  70.6062182  31.2249019
  42.8197023  75.1377662  31.1786487  42.3414155  74.4313415  30.7445553
  43.1474468  75.6808861  30.4618290   9.3904377   5.5937703  25.0920513
  10.2746726   5.7554800  25.4210022   9.5240213   5.1899512  24.2345455
  11.2799789  18.1516058   8.8619545  10.5327941  18.7411911   8.7602737
  10.9413005  17.2909958   8.6152198   3.4014630  57.7134037  65.3688860
   3.9047852  57.0146418  64.9510002   2.6874709  57.2594833  65.8165503
  71.0974818  20.3881724   7.2919109  70.8861642  19.5155508   7.6237323
  70.7990163  20.3773625   6.3824966  75.6540530  26.3391097  27.8220871
  76.0436683  26.8857510  28.5044410  75.9449022  25.4514534  28.0311420
  16.7818119  38.9813645  12.0071533  17.7168657  39.1429741  12.1327808
  16.7337228  38.0732377  11.7084339  50.9029528  80.1369937  25.1404789
  50.4535719  80.5710944  25.8656337  50.8361050  80.7552465  24.4127968
  39.6656610  33.0968935  28.6335304  38.8791133  33.1027539  29.1790035
  40.3162433  33.5766442  29.1461876  27.4611807  57.8470325  72.2139740
  27.8957629  57.3160744  71.5465498  26.5928721  58.0233812  71.8518019
  38.8326408  78.4996445   4.1401651  38.3267690  78.2904561   3.3549478
  38.1830980  78.8230832   4.7644355  23.1462622  39.5404553  67.0909023
  23.4506512  39.0811801  67.8736210  23.9391732  39.6852636  66.5746164
  25.6669259  12.3768282  72.8898764  26.0143065  11.5048695  72.7021360
  26.2870145  12.9762065  72.4745846  63.8491814  18.3817036  14.7024467
  63.2341768  18.1150610  14.0191391  64.2077177  17.5593312  15.0361850
  83.0064361   6.0979397  33.1158092  83.0873697   5.3540118  32.5189426
  82.6636212   5.7193119  33.9253452  63.0234379  21.8347897   4.3433719
  62.4191994  22.3117890   3.7745147  62.9414124  20.9217610   4.0679317
   8.5797578  64.5541763  73.8399935   8.6396873  64.1834116  72.9595518
   7.9885519  65.3010368  73.7456322  14.8730279  59.3586094   0.4503038
  15.1891519  60.1064904   0.9572342  14.3410016  58.8578064   1.0686710
  22.8868290  57.8575798  37.3911979  22.3072704  57.2180398  37.8051212
  23.2012507  58.3994969  38.1148746  66.0097262  83.2298239  21.0406616
  65.0661322  83.2883080  20.8908584  66.3346883  82.6958736  20.3157261
  20.2029046  64.8034461   9.0080764  20.9199389  65.4375490   9.0104988
  19.4673106  65.2751811   8.6174419  72.5509649  37.0637925  46.6893318
  72.1174627  36.9420083  45.8446529  73.4848731  37.0754082  46.4797714
  67.0221101   1.9530423  15.6500747  66.2977468   1.7283804  15.0660827
  66.6050129   2.3933728  16.3906028   6.7249495  36.9564557  70.6040764
   6.2596238  36.9763350  71.4403248   7.5218159  37.4629307  70.7612944
  69.2675229  67.6501664  47.3291614  69.8171827  68.0478247  46.6539028
  69.3787118  66.7076977  47.2041729  22.1236103   1.4683325  35.1175811
  21.1952942   1.4860184  34.8848846  22.3560779   0.5398781  35.1048496
  21.5056476  67.1512659   2.5862672  21.6248574  67.0739754   1.6396692
  20.5632469  67.0478257   2.7182272  16.2452865  73.4396696  60.8607626
  16.5739048  74.2560387  61.2373018  16.9167209  73.1794310  60.2301407
  86.1469623  77.2002204  22.8139236  86.7036745  76.9214018  23.5409477
  86.1679717  76.4655217  22.2007301   8.5235692   4.9968846  31.4615276
   8.1777050   5.7405598  31.9550445   9.4740988   5.0801976  31.5375831
  87.3955386  15.8207781   3.8234546  87.8505962  16.5201790   3.3544185
  87.3339074  16.1374457   4.7246530  31.5641769  64.7255000  14.7722461
  31.6241836  65.6508025  14.5346668  31.4552515  64.7289689  15.7232216
  33.8848972  67.8246927  50.6343222  33.9947963  68.6059475  51.1763573
  33.7317705  67.1177959  51.2612820  76.2544017  33.8150628  51.8602112
  76.4571493  33.0052502  52.3285320  75.9066837  34.4002802  52.5331428
  41.1845561  76.9614228  36.1831119  40.4948303  76.3746532  36.4932945
  40.7989797  77.4064287  35.4284408  23.3811571  35.9478457  29.9964645
  23.5045768  35.1155360  29.5401123  22.7471401  35.7511742  30.6860759
  11.2002851  42.4659665  35.0858238  10.7503606  41.6243012  35.1592662
  11.9975234  42.2692616  34.5939472  12.3750663  35.9193969  63.0902529
  11.4688754  35.6988001  63.3056259  12.8947401  35.4829931  63.7653255
  10.5198623  15.6434376  14.7925213  11.0543777  16.1529667  15.4015377
   9.7583677  16.1974318  14.6209266  30.8352663  76.7351540  16.0521724
  31.5874616  76.1431821  16.0538700  30.1494948  76.2523755  16.5135505
  47.2212689   6.4799387  13.4665516  48.0389433   6.2734778  13.0137661
  47.0629721   5.7238467  14.0317848  30.8315278  11.9562275   5.8318927
  31.7778541  12.0900423   5.8847931  30.5285551  12.6273234   5.2202823
   9.0095068  24.9297173   1.1600521   8.9080216  24.8203022   2.1055486
   8.7226011  24.0947945   0.7901647  34.7839834   3.0564482  21.0530021
  35.3344490   3.7204535  20.6378963  35.3622009   2.6251872  21.6822174
  12.4923992  51.9844913  57.5041676  12.2523546  51.4997005  58.2938385
  13.4472823  51.9277954  57.4693012  74.2544719  76.7144569  12.2443702
  74.9014446  77.4035128  12.3955562  74.0576383  76.7717012  11.3093784
  25.1100036  35.8413663  26.7131927  25.6108415  35.5560531  27.4773815
  24.3941786  35.2094146  26.6463878  50.0480756  83.9992531   7.7217128
  50.6993648  83.6846503   7.0947483  49.2091748  83.8770207   7.2772625
  63.0674415  29.3843539  25.3681305  63.5259279  28.7534888  24.8131206
  63.7661239  29.8857958  25.7884052  17.3190977  34.4363625   1.9385078
  17.0355894  33.7126095   1.3799026  18.0195047  34.8610384   1.4432218
  21.7953826   1.5448697   0.4615572  21.5161373   2.4602349   0.4426077
  22.4743701   1.4876301  -0.2107022  59.8705155  29.8677618  14.6965816
  60.8231092  29.7981389  14.6337345  59.6394088  29.3208344  15.4473808
  37.3245859  49.6256113  70.0448847  36.6448498  50.1775599  69.6581793
  37.6697302  50.1443815  70.7715082  17.5224972  72.4418163  73.3084059
  17.5804794  72.4464846  74.2638350  18.3825195  72.7424526  73.0147886
  32.5508360  65.9470662  22.4954536  32.9782491  66.7619260  22.7591827
  32.1757046  66.1405357  21.6363361  14.3902017  13.0732996  46.0813167
  14.9786998  12.4655182  46.5290954  14.9389841  13.8299687  45.8751133
  66.5894054   7.3419459  43.5220459  67.4813437   7.0003779  43.4587314
  66.7024921   8.2797368  43.6769416  67.0106911  22.5037272  16.0079506
  66.5501045  21.7203410  15.7072761  67.7483325  22.1673663  16.5168502
  22.6369525  17.5639374  18.4862068  23.5239603  17.6851017  18.1474331
  22.6152183  16.6533120  18.7803486  19.4642174  22.7846313  61.8687248
  19.5362902  23.1320071  62.7577496  19.1610897  23.5266376  61.3454914
  73.4975045  23.8504012   1.5302923  73.8090031  23.7515862   2.4299791
  72.6058822  23.5025580   1.5459707  35.2575743  85.2469834   3.2185247
  34.6484029  85.9454401   3.4579017  34.7761675  84.4385727   3.3944681
  43.5404873  58.9966774  62.9718113  43.4405184  59.9470329  63.0271721
  43.4581995  58.8011551  62.0384169  13.2506658   1.9769986  26.0285881
  12.4235393   2.1687968  25.5866554  13.5700942   2.8309376  26.3201168
  18.5792458  13.7463093  50.0134230  17.9457724  13.2614052  49.4844484
  19.4302917  13.5092270  49.6449852  17.1413832  74.2778166   1.9872072
  16.2005692  74.4051465   1.8651941  17.3602943  74.8205837   2.7446439
  32.0518161   3.0602868  21.9106414  32.9252864   3.0558283  21.5191391
  32.1892263   3.3889992  22.7990654  41.2982607  47.8172064  63.9875603
  41.2481546  48.3208084  64.8000288  41.5466022  48.4594154  63.3226347
  85.0934356   7.3580487  26.2377002  84.2316263   7.4920876  25.8432987
  85.0579279   6.4707549  26.5950134  23.3658676  77.3031243  13.7927749
  23.3267479  76.4615973  13.3383205  24.2330723  77.3165377  14.1977623
  20.1873827  57.3121548  60.2241468  19.7136748  57.9106808  59.6465635
  21.0952783  57.3584795  59.9244690  40.1092339  60.7673788  71.9196224
  39.9353433  61.1196852  71.0467720  40.0209665  61.5204620  72.5038338
  10.6149961  43.9001591   2.5552585  10.7103111  43.3691342   1.7645910
  11.4946414  43.9295037   2.9315546   2.4243833   2.4290259  30.2994087
   1.6521503   2.9622490  30.1108387   2.7942492   2.2304995  29.4391658
  25.4444003  74.0675879  54.3934584  25.9839916  73.7590933  53.6655140
  24.5541406  73.8046551  54.1599226  19.1758108  63.4899855  42.8239727
  20.1238966  63.5161352  42.9531336  18.8172019  63.3767891  43.7042093
  77.6251107   9.7033293   4.6360281  77.8665250   9.0502722   5.2928903
  76.6685694   9.6768982   4.6122816   9.8149233  83.6728247  74.1896465
   9.5189934  83.6142596  75.0980594   9.4813042  82.8760608  73.7772205
  14.9099304  23.7576420  40.4441192  15.0182153  23.7883790  39.4935634
  14.0503837  24.1489203  40.6000354   6.0259296  28.2391579  18.0052784
   6.0206057  28.0245144  17.0724704   5.1007463  28.3137162  18.2391765
  81.0925790  83.2212408   0.6565454  80.8409807  84.1342457   0.7956627
  81.6847822  83.0228003   1.3819101  35.4657794  39.5119507  26.2562778
  34.7450448  39.9170907  25.7739570  35.0379659  39.0160115  26.9543102
  80.8655923  35.5155165   7.9027774  80.3082686  35.8395035   8.6103466
  81.6851013  35.2744276   8.3346489  76.4953571   5.2761157  19.4555404
  77.2909777   4.7612984  19.3207004  75.8225434   4.8121531  18.9572456
   0.8528806  83.1551201  -0.1604626   0.5884482  82.3582871   0.2992704
   0.1427318  83.7748368   0.0065115  43.9614630  69.1708755  47.6478863
  43.6129570  69.0386057  48.5295200  43.3749533  69.8159552  47.2527790
  57.7366015   3.8794397  64.6721935  57.2868272   3.0945181  64.3594170
  57.3448726   4.0550779  65.5277205   7.6379682  26.9551260  21.9114521
   7.7817513  27.1261866  20.9807041   7.9043437  27.7644474  22.3476627
  35.9269714  72.1868134  57.0813656  35.9196949  71.2302208  57.1147966
  35.9788680  72.4581146  57.9978466   9.8766519  10.2300818   2.1302965
   9.2490603  10.1730854   2.8507927  10.6493665  10.6412537   2.5177028
  69.8346781  65.6629593  11.7229679  69.3300741  65.0791771  12.2893741
  70.4608857  65.0878174  11.2833049  49.4941092  66.8529081  73.4300232
  50.2960873  66.4861774  73.8022757  49.6564627  67.7955151  73.3930016
  82.9210159  11.8630861  43.0326605  82.0065090  11.6611551  42.8348446
  83.4153053  11.4579081  42.3201036  17.8728820  15.9058840  13.4752395
  17.1607925  16.4669545  13.1680420  17.7479841  15.0814230  13.0052402
   0.5366023  58.3940887  68.9258099   1.3295762  58.4231377  69.4611406
   0.2889424  59.3119860  68.8146019  80.2895420  31.2372668  23.0747249
  80.6936031  31.8152506  23.7219455  80.0227468  30.4663641  23.5754898
  19.0658332  25.6613142  16.8240478  18.7590744  26.2405331  17.5216415
  19.9126436  25.3404505  17.1342018  57.6917349  14.3590386  26.3311794
  58.5253382  14.3422587  25.8610180  57.8691342  13.8958724  27.1498611
  86.7341416  71.7296345  32.3680713  85.9366648  72.2535069  32.4443557
  87.4347012  72.3735745  32.2642067  28.4599590  37.3185706  72.7071190
  27.6778078  37.7167702  73.0890989  28.1798697  36.4404821  72.4487782
  58.6061880  84.6056994  27.2394970  57.8222510  84.2114743  27.6219490
  58.6926624  85.4481276  27.6856640  64.2486525  74.4951010  62.1831656
  63.7683344  73.9481640  62.8047657  64.5188046  75.2579689  62.6943207
  28.1593370  62.5210047  68.0191612  27.6078320  63.2141972  67.6564503
  28.6538315  62.1911287  67.2689009  66.3251149  56.9877655  19.4188144
  65.4862314  56.7277367  19.7994640  66.3213812  56.6002591  18.5435703
  28.3959867  16.0936720   2.1578911  27.5252677  16.3728411   1.8747928
  28.8839389  16.9093211   2.2712591   8.0444099  33.9418538  19.1700580
   8.3675505  34.2631752  18.3282974   8.7609841  34.1104920  19.7818687
  59.8026715  13.7247784  38.7189605  58.9645996  14.0121872  38.3566597
  60.4585114  14.2168410  38.2250240  60.1950884  82.4026394  39.7267628
  60.2943087  82.3176956  38.7785172  59.3671036  82.8693581  39.8400927
  15.2369310  41.2125237   1.5293958  15.3169252  41.4760621   0.6126716
  16.1397506  41.0912449   1.8233946   2.4030329   2.8976138   7.0942810
   1.6316034   2.6714213   7.6138618   2.2425200   2.4965317   6.2401226
  34.4712831  31.5592797  39.0182426  34.9681951  31.9888432  38.3219745
  34.9033548  30.7129939  39.1337516   5.2200605  39.8625214   5.3486612
   5.3267886  39.0171463   5.7847431   5.9791924  40.3739674   5.6286171
  39.3142271  74.2504883  51.7178440  40.1069784  74.6405077  52.0861721
  39.5102739  73.3151388  51.6638899  81.9575546  80.2716351  69.3242741
  82.4491421  80.7902813  68.6874247  81.1375133  80.7511711  69.4418001
  38.4241868  48.3954365  12.7656677  38.8528778  47.6665242  13.2141521
  38.2818462  49.0480740  13.4512546   3.1309582  11.3258536   5.2572086
   2.9298641  11.8188126   4.4617298   2.4224736  10.6861241   5.3280761
   8.4835030  30.7171519   7.8607776   8.4842564  30.3374131   6.9821289
   8.0319048  31.5549929   7.7592113  89.9121230  15.8670123  28.1656292
  90.8458178  15.8942778  28.3746746  89.6346848  16.7828305  28.1886413
  11.3017465  45.9942753  16.2594631  10.7416202  46.6208203  16.7176559
  11.6996528  45.4737599  16.9572952  71.1045831  57.5286992  22.3290279
  71.4879840  56.9496090  22.9877308  70.6713729  58.2150204  22.8364875
  46.5021373  64.2302926  17.0158603  46.2621690  64.1588051  17.9397323
  46.7683698  63.3448060  16.7683342  76.5247374   5.3399832  11.0314682
  76.6751092   4.5353110  10.5353573  76.0699778   5.0519354  11.8229511
  71.5508848  39.8479302  11.6537311  71.7371922  40.7815201  11.7533519
  71.2915545  39.7519047  10.7373455  77.7565246  61.0896046  11.0319927
  78.5870974  61.5653641  11.0255077  77.9837816  60.2152855  11.3484409
  27.2353507  13.2075579  33.7758091  26.3012220  13.0092986  33.7099865
  27.5604679  13.1298907  32.8788688  51.3138437  53.3536434  71.6887712
  50.9006357  52.5431347  71.9863796  50.6065226  53.9985561  71.6927338
  75.3628903  12.8291495  19.3909290  75.5184071  11.9337876  19.0903022
  75.6483906  12.8280385  20.3045585  59.1261503  71.0087141  16.4089134
  59.7545024  70.3591093  16.0936001  59.6200963  71.5337428  17.0386722
  70.7329226  53.1850767  73.8825703  71.3349819  52.7019024  73.3166170
  71.0851097  54.0749025  73.9026403  33.4185314  76.4505196  67.3787451
  34.2085552  76.3098860  66.8569040  33.6408758  77.1791267  67.9583359
  17.4489261   2.7244647  25.2652195  16.8914606   3.4828694  25.0911930
  18.1192352   2.7582772  24.5827415  35.7735445   7.6890881  23.6866405
  36.6371108   7.4679930  24.0353611  35.3368808   6.8446238  23.5751465
  83.3941289  85.3166493   6.0053756  84.0294858  85.5164917   5.3179004
  83.4895202  84.3758067   6.1535194  37.5247575  16.3502390  29.8520305
  38.1745483  16.9722350  29.5247200  36.7323925  16.8733389  29.9734905
  31.0142042  38.2325394   4.8463133  31.2659599  37.3090394   4.8427322
  31.6231252  38.6444123   5.4593446  91.2707370  38.6588318  15.9103801
  90.9649008  39.0346844  15.0848987  90.7245748  39.0725167  16.5788200
   9.1761853  10.7536967  45.7395389   9.3731357  11.6377385  46.0492447
   8.2711674  10.8037789  45.4318550  82.8240531   0.2940638   6.3085773
  82.0919149   0.9051163   6.2259700  83.1398361   0.4182370   7.2036197
  88.4162157  24.6685822  16.2627914  88.7432974  24.0359814  16.9023731
  87.6283877  24.2604859  15.9035900  18.0871059  18.7623341  16.8341663
  17.6529552  19.0983851  16.0500648  18.7100555  19.4478638  17.0754364
  23.8545610  59.2092259  14.3279388  23.1819917  59.8652680  14.5109489
  23.4656717  58.3819039  14.6117332  17.2867013  13.4111960  12.8482654
  17.8669406  12.9118283  13.4228828  16.5106536  12.8590090  12.7530506
  91.4786332  23.8764889  21.0838058  90.7080548  24.3329508  20.7460525
  91.2968748  23.7571652  22.0159843  52.0962143  62.4435616  65.9794617
  51.4532042  62.8618002  65.4068804  52.3909521  63.1445026  66.5608740
  38.5268474  75.4621029  20.2008939  38.5401797  74.5892763  19.8081768
  39.4307327  75.6145573  20.4765368   5.6539702  57.5502157  71.2393999
   5.9874642  57.7193022  70.3582525   6.1071175  58.1860638  71.7931032
  35.9812356  46.2315876  15.9420612  35.2724029  45.8311398  16.4454773
  36.0145952  45.7249577  15.1306179  39.4500899  62.0628166  69.7687483
  39.0227556  62.5545597  70.4700422  38.7370515  61.8182516  69.1788340
  44.4595843  54.4513352   9.0202644  43.9375406  55.2532608   8.9953449
  44.1969960  53.9701207   8.2355907  55.0697457  22.9059441   4.0374448
  54.2696314  23.4224303   3.9410474  55.5924778  23.1280405   3.2669571
   2.8869344  12.1103747   2.6242759   2.9439713  12.6087649   1.8090561
   3.7896134  11.8523629   2.8109243  85.5563804   3.4222292  65.4574966
  85.7740041   3.1018137  64.5821619  85.0788471   4.2371630  65.3023767
  86.0715387  65.5181789  58.0983782  85.5743150  66.3143301  57.9109192
  85.4550455  64.9555349  58.5669899  72.3726007   4.2520498  66.0628796
  72.1105882   5.1658415  65.9508133  73.1183883   4.1426538  65.4729080
  11.7305566  54.8236783   3.2782343  12.3436262  55.5363781   3.4583404
  12.2670461  54.1433175   2.8714063  29.3668222  52.7534103  59.7812557
  29.8750758  53.0434084  60.5387592  28.4572148  52.9302359  60.0212193
  60.3507137  67.2863817  71.9215298  60.2931738  68.0583858  72.4844980
  60.7609367  67.6060057  71.1179161  41.8946505  52.5816679  71.2379789
  41.9060612  52.9069805  72.1381330  41.3822174  53.2303095  70.7553673
  65.3662329  26.8535979  17.9940918  65.0159585  27.6701052  17.6379326
  65.4180025  26.2661440  17.2401359  82.0641177  37.9485352  30.5243900
  82.4494450  37.5149376  31.2858036  82.7883356  38.4397538  30.1365116
  34.6396184  57.2696877  70.7616568  34.8506594  56.3521957  70.9345722
  33.7758589  57.2433043  70.3500080   3.0281545   5.7239134  14.1571357
   3.3355786   6.3845475  13.5364177   2.9635073   6.1900980  14.9906376
  90.9779971   7.3181374  14.3032577  91.2674730   7.6543791  15.1514175
  90.1629179   6.8543370  14.4950035   3.0726220  14.4083912   5.8983448
   3.8659550  14.2457659   5.3880432   3.2683159  14.0527089   6.7651966
  12.8599407  38.6401684   7.5418689  12.7853681  37.7089627   7.3332336
  13.5711481  38.6862595   8.1808403   9.8527147  12.2367890  36.8350437
   9.9509145  11.5830548  37.5272968   9.4479395  12.9872639  37.2699955
  17.2683097  72.6624997  37.5060585  17.2998382  72.5876553  38.4598091
  16.4476778  72.2359688  37.2593429  41.3211919  57.7579720  19.0833404
  41.0220386  58.5262139  18.5969856  41.2195732  58.0023415  20.0032261
  77.1169012   2.6656659   9.7782161  78.0352621   2.9303772   9.8308685
  77.1235197   1.8875058   9.2208507  38.7776661  50.9767389  72.2086048
  38.5366225  51.8436146  72.5351858  39.6757126  50.8471298  72.5134706
  31.9492531  75.9679317  72.0938683  32.8616166  75.7609034  72.2962666
  31.9970179  76.7543125  71.5502167  64.6720808  33.5287268  13.4803608
  63.8017561  33.4252675  13.0955722  65.0725495  34.2392476  12.9793480
  24.2373086  36.8064625  18.0411747  23.9596464  37.7222760  18.0615738
  25.1930334  36.8466599  18.0065086  77.3686438  69.9744160  13.8720730
  78.2093733  70.3974564  13.6975887  77.5746696  69.2820675  14.5001152
  19.3843080  10.1755316   2.8041008  19.5662500   9.5683606   2.0868375
  18.7283327   9.7265894   3.3373716  40.0150728  84.7599983  34.1951299
  39.3993688  85.2856064  33.6843753  39.4671440  84.1112995  34.6369410
  62.9102091  16.7015727   8.0884960  62.9082782  15.7512743   7.9737594
  62.3440728  17.0283921   7.3892811  63.2797050  79.0809107  62.6340771
  62.5078917  78.5603523  62.4114609  63.0476952  79.9740696  62.3797798
  54.6065426  33.3845901  53.3141899  54.3895102  33.6336184  54.2125845
  54.2747068  32.4910402  53.2265234   7.2360183  31.4243205  18.1627205
   7.3648097  32.1846945  18.7296989   8.0609824  30.9419997  18.2178047
  62.6859331  81.3005924  61.3258600  61.9280767  81.2632656  60.7423449
  63.2424164  81.9839764  60.9522915  42.1818924  59.9065161  68.4700823
  43.0668020  59.8459768  68.1102180  41.6120720  59.6296167  67.7525425
  44.5090485  65.4585743  69.5365858  45.2844000  64.9453068  69.7637749
  44.2022991  65.0776625  68.7137604  61.0152239  51.6753705  19.1233852
  61.6382145  51.4576561  19.8167160  60.8055630  50.8344395  18.7170437
  53.9973879  77.4781799  54.3505144  53.4846210  76.8935061  53.7924290
  53.3626032  77.8328228  54.9730110  77.2044413  25.8083994   1.5256860
  77.0535677  24.8638470   1.4897802  78.0846756  25.9241230   1.1678722
  44.3313648  31.3907034  17.8942707  44.6008779  32.2399552  18.2440880
  44.8096372  31.3088400  17.0691707  31.7591262  31.4826226  66.3262081
  31.8938017  30.5387306  66.4108229  32.4374795  31.8717766  66.8781376
  88.2655304  11.7507489   2.3540285  88.5314243  11.1075861   3.0112055
  89.0475648  12.2836621   2.2103098   1.9568206   1.2131388  14.0868595
   1.8127347   0.2790196  14.2381694   2.7538301   1.4150269  14.5770099
   8.4880067  29.9774106   0.5928114   7.7015902  29.6984227   1.0617950
   8.6900999  30.8397372   0.9558275  24.8230171  61.5994358  59.3142128
  25.2797866  62.0342112  60.0343227  24.6841407  60.7045460  59.6242332
  26.3201809  68.6473894  61.5793514  26.6410160  68.3840275  60.7168341
  27.0995402  68.9578724  62.0402527  38.0494428  56.9622612  61.9312620
  38.5916567  57.5659132  61.4234877  37.4339914  56.5994310  61.2942362
   1.2646414  29.0978765  73.5382318   1.4226682  29.4065332  74.4304132
   1.3844413  29.8743320  72.9914284  61.8699884  74.1997290  56.3584518
  60.9984159  74.4111919  56.6929293  62.3492289  75.0273418  56.3985777
  46.4011368   6.0060572  71.2254477  46.3255855   6.0835623  72.1765089
  45.5064341   5.8435701  70.9265566  86.2775224  36.8595774  39.4272163
  86.7967313  36.4468129  40.1173523  86.7107003  36.6002161  38.6139991
   1.7698361  21.5883238  21.4720943   1.7987515  21.1085350  20.6443336
   1.2832166  22.3871930  21.2690189  73.8784747  26.6650279  59.5589092
  74.8147409  26.6517765  59.7575596  73.5522991  27.4524147  59.9946430
  13.5778126  77.8087958  11.3350990  13.3930942  77.9566034  12.2626045
  12.8676113  77.2404560  11.0370472  38.4423018  78.3031607  51.4421654
  39.2246461  78.7766314  51.1593390  37.7483320  78.6204195  50.8642483
  79.6038294  80.5450726  64.1081953  79.8443508  80.8843994  63.2460785
  80.3365993  80.7879353  64.6741486  22.3725082  16.9437630  23.2733467
  22.4971105  16.0182221  23.4833076  21.9870616  17.3191674  24.0650108
  28.3678585  17.2419428  71.4172697  27.5638192  16.8080496  71.7027330
  28.6456455  17.7548670  72.1761990   9.1217138  36.7959530  18.7813022
   8.7058045  37.6576741  18.8074901   9.5922853  36.7823536  17.9478672
  83.7264388  42.7884228   2.8308370  83.3635180  43.5009606   3.3569696
  83.2942741  42.8740342   1.9810512  85.7995817   4.3039297  55.7994986
  86.4595863   4.1811918  55.1171827  85.4301664   5.1690554  55.6225443
  48.7747622  77.5934649  42.3469687  49.3455601  78.1845999  42.8378677
  48.6772490  78.0106258  41.4909887   6.2465192  63.7491162   0.6542423
   7.0704390  63.2715542   0.5576685   5.6022145  63.2104619   0.1949384
  89.9481616  53.3420086  55.9061050  90.4032692  54.1228104  55.5907297
  89.0457136  53.4536648  55.6071854   5.5412294  29.3777163   9.9854019
   5.1883007  29.9341042  10.6797340   6.4762331  29.5818217   9.9669197
  68.3018540  10.1338561  17.6218059  69.0049868  10.3461201  18.2356289
  68.2663553   9.1773159  17.6197555  18.3308029  61.0100794  68.7647533
  18.8780177  60.2625418  68.5239697  18.0713224  60.8354330  69.6694088
  40.7475854  15.4468663  45.8050468  41.6249181  15.1925690  45.5189541
  40.1700832  15.1446183  45.1040676  89.6179908  23.2031949   5.9766510
  88.9459126  23.7350304   6.4029052  90.1921480  22.9255803   6.6904476
  18.5857202  37.7908738  20.5932453  18.4990312  37.0952351  19.9414756
  19.1409446  37.4124844  21.2749984  69.0845748  75.6339534   4.8344543
  69.6899172  75.2926310   4.1762045  69.1459795  76.5850814   4.7460201
  45.2329637  27.6570446  10.8751609  45.3708269  26.7098267  10.8776405
  44.6318485  27.8134949  11.6034534  85.5354493  21.5068848   1.0929134
  86.0879176  22.2885020   1.1022785  86.1199348  20.7972462   1.3594129
   5.4962064  35.5535586   1.8678692   4.9556591  36.0407145   2.4897363
   4.8838211  35.2699835   1.1890438  73.5825615  32.5660880  30.1567962
  73.1627481  31.7186387  30.3045108  73.8015323  32.5657256  29.2249801
  11.7913677   2.2106631   8.8957908  11.3722040   2.2686703   9.7543743
  12.3535873   1.4382727   8.9554241  77.1519618  17.2447855   1.5843227
  76.2351315  17.0949538   1.8149831  77.4530309  17.9006751   2.2131279
   4.9021746  35.2217371  13.2112339   4.2200424  35.0186570  12.5711658
   4.4227196  35.4672844  14.0024784  48.2833578   3.5736115  43.9212825
  47.5208522   3.1689389  43.5076931  48.9946987   2.9502757  43.7740448
  74.0782087  21.5367491  26.5949657  73.5160547  22.2413094  26.2727764
  73.4713142  20.8987887  26.9703701  70.0446301  25.2885468  18.7943676
  70.5163096  24.5818694  18.3535030  69.1202669  25.0849469  18.6517742
  13.4771539  41.7238743  57.0142963  13.3181383  41.9487412  56.0975769
  14.4148542  41.5361626  57.0556858  78.0892830  43.1651623   8.1959655
  77.2694569  42.9034550   8.6150386  78.2765787  42.4608166   7.5754383
  68.2923603  76.3626862  37.4687219  68.1208229  77.2195578  37.8593349
  68.0864477  75.7372189  38.1634331  50.1145840  49.5762730  68.1481886
  50.9033012  49.7111893  67.6228714  49.4092751  49.9538326  67.6226282
  34.5528652  16.1500008  17.1203640  34.3293239  17.0390208  17.3958614
  35.0750543  15.7997639  17.8420856  33.4918691  41.9172223   1.9185569
  33.3265258  41.4843781   2.7561357  34.1096593  41.3407261   1.4688709
   9.0657116  57.0424015   8.4620216   9.5665218  56.7236645   9.2129066
   8.3281638  57.5141938   8.8488796  91.1245196  48.7461216   0.8003833
  90.2094882  48.4666474   0.8294561  91.4454429  48.6084206   1.6916063
  76.2463134  20.3076489  26.1812427  75.4263931  20.7988818  26.2327411
  76.1958306  19.8443396  25.3451660  89.0168588  29.3312008   0.3721693
  89.3549412  29.6446211  -0.4666970  88.0801218  29.5255120   0.3405454
  64.5291802  79.4287475   1.5112188  64.0925499  79.9057063   0.8054617
  64.7359582  80.0998529   2.1616724  73.3201700  32.8072436   9.9680641
  73.2156842  32.1734650  10.6777408  74.0875535  32.5011713   9.4846656
  38.4272242  53.7479925  72.2163439  39.2290688  53.8136911  72.7349567
  38.6830521  54.0407276  71.3416481  16.4122726  20.6898339  18.7584331
  17.3013736  20.6514437  18.4059360  16.3845493  21.5110333  19.2494514
   5.0370150  22.1198153  56.8065882   4.3150883  21.6301035  56.4125872
   4.9865370  21.9117712  57.7395391  87.9175632  35.5641205   6.1469963
  87.2135918  36.1840517   5.9563568  88.6837285  35.9278758   5.7032516
  11.2134410   0.5587084  20.2903869  11.1410572  -0.2634113  20.7752731
  11.8732835   1.0612709  20.7681682   9.2823245  53.8717873   4.4329813
  10.0376464  54.2529709   3.9852979   9.5377041  52.9652913   4.6041038
  19.7189809  20.9381373  21.2207534  20.1490165  20.0918515  21.0978916
  18.9999582  20.7558377  21.8257358  65.8786141  30.8196719   7.3993805
  65.4323872  29.9959404   7.2029617  65.4003294  31.1788924   8.1466701
  73.6530658   1.8657850  58.3635378  72.7318021   2.0870661  58.2273960
  73.6733457   1.4420580  59.2216063  33.9498950  24.7150977  11.1147144
  33.2355310  24.8254092  11.7422130  34.6641637  24.3384678  11.6287258
  48.4176207  71.5178585  64.9948120  49.2815161  71.7726517  65.3188467
  48.0061245  72.3424292  64.7359943  14.4357492  35.1830895   4.5430305
  14.4788934  34.2380888   4.6891430  15.3254796  35.4925711   4.7128322
  90.8106920   4.6398806  29.1401792  90.2870723   5.2987455  28.6841631
  90.5185243   4.6896624  30.0503397  47.8580236  44.6005154  70.0499868
  48.2850885  45.3569126  69.6478510  47.0578575  44.9552107  70.4374886
  13.2159507  52.7383471  54.9343586  12.5440681  53.3787346  54.7004557
  12.8067803  52.1978951  55.6101704  13.4000398  30.7933266  29.8910358
  13.3134366  31.1594613  30.7711914  12.6046087  30.2753146  29.7677829
  56.6208363  34.3552732  62.6363802  55.7951117  34.6526861  63.0184269
  56.6487980  34.7697806  61.7740393   0.2421953  21.9440110  17.8603389
   0.9075619  22.5601943  18.1666687   0.6780602  21.4445813  17.1698215
  74.3830367  22.3116564  65.8529902  73.6556741  22.9338717  65.8586931
  75.0054571  22.6765703  65.2239752  73.3486387  18.2396482  68.7334824
  73.5281679  17.3312925  68.4907961  73.3425876  18.7130999  67.9015970
  12.1140347  13.5908991  16.6047027  11.7243598  13.2522398  17.4107387
  11.5030644  14.2655188  16.3083484   3.2363917  27.6662238  10.0155857
   3.6505939  26.8708785   9.6807888   3.9621283  28.2755454  10.1507118
  12.7339126  42.4824078  54.2978599  12.0370151  42.1073563  53.7594249
  12.4125673  43.3527787  54.5333030  39.2307973  65.7685995  61.4127398
  38.5254192  66.1800480  60.9133530  38.8709545  65.6634569  62.2934723
  89.3753784  63.5535557  13.7285736  89.3849318  64.5098813  13.6888054
  89.5595997  63.2746918  12.8316238  76.2099000  37.0219206  52.2296381
  76.6733762  37.3155474  53.0139875  76.7128679  36.2676500  51.9225073
  16.1251642  57.3791821   3.1435993  16.8743421  57.4362786   3.7366464
  16.4954187  57.5332291   2.2744539  37.5027467  41.2373288   7.7096012
  37.5725318  40.6091912   8.4284904  37.9198743  42.0313294   8.0439689
  75.7883828  41.4277775  14.7973087  75.1026552  41.2236245  14.1614368
  76.5401368  40.9072049  14.5142868  35.9967516   4.9168688  19.6461895
  36.5320847   5.6684977  19.9005630  35.8095072   5.0592333  18.7183407
  14.4488765  49.2601807   2.5066307  15.0895835  48.5495980   2.5348833
  14.6101858  49.7600777   3.3068302  36.2397815  55.5893261   1.8750551
  35.5333806  56.1970170   2.0940378  36.6131689  55.3413327   2.7208164
  31.1148120  12.6773961  22.7646759  31.5678121  12.0199473  22.2366741
  30.7793619  13.3072884  22.1267631  19.5119287  33.9291317  15.3213718
  19.8209669  33.5742362  14.4878414  20.0008871  33.4424574  15.9849193
  29.0641881  51.8215878  10.9999015  29.1002990  50.9131653  11.2993934
  28.6420585  51.7743809  10.1421096  28.5153343  70.1300366   8.1458118
  28.5421993  69.3981011   8.7620762  29.2659522  69.9856980   7.5696399
  17.3723365  53.1085141   7.9500797  17.0656444  53.4055836   7.0933845
  17.9275514  53.8213284   8.2660988  18.0840909  78.0327940  73.6833668
  18.6999893  78.3908176  73.0440521  18.5903609  77.3765564  74.1621923
  19.8141958  28.6438258   2.9030492  19.7967388  27.6897223   2.8281286
  20.7348587  28.8551075   3.0578878  73.3694124  72.9898214  60.7879877
  73.2582855  72.6808214  59.8888779  73.5426950  73.9270353  60.6994581
  53.0533886  68.3316088  62.9222393  52.3162651  67.9044342  63.3585882
  52.8386831  69.2640877  62.9470015  32.0109321  54.0642674  14.2845085
  31.9435836  53.8170941  13.3622291  31.1303665  53.9276154  14.6340206
  26.4644551  78.7975025  67.2625208  26.5555882  79.6759224  67.6317167
  26.6453576  78.2095194  67.9958582  56.1062952   4.8737120  60.6247330
  56.4828440   5.6740831  60.9905767  55.7183453   4.4260954  61.3766432
  15.3473747  78.1477308  74.6303558  16.1196995  78.3076382  74.0879774
  14.6247923  78.5391092  74.1395092  25.6165267  51.3702900   0.6293895
  25.4087211  51.9093258  -0.1338122  26.5730669  51.3630517   0.6642273
  62.0446505  21.1308653  10.6934192  61.1520278  21.4741976  10.6536701
  62.4107652  21.3148053   9.8283413  63.5580846  11.4822935  53.4312630
  63.5919043  12.4151300  53.6431837  64.0247032  11.0562586  54.1502857
  70.7519226  52.2571404   4.1445759  69.8577230  52.2302277   3.8041141
  71.1197822  53.0656464   3.7878969  10.1791336  64.6792634  15.3204944
   9.4238140  64.2106850  14.9652984  10.8534767  64.5922406  14.6467617
  57.2494316  82.6275730  59.0327835  56.9384527  81.8422890  59.4831657
  56.4510155  83.0742455  58.7512732  60.8898301  16.0266049  10.3648117
  61.4972249  15.2877934  10.3265121  60.7002198  16.2285311   9.4485691
  42.2531080  50.8632612  68.1113815  42.6914024  50.9622049  67.2661924
  41.8440390  49.9989033  68.0693150  36.3814260  16.5576775  15.1676681
  35.6184913  16.2641699  15.6656673  36.7789699  15.7506545  14.8407009
   0.3610869  73.9582825  67.5317860   0.6672240  74.8451805  67.3422575
   1.1600757  73.4327698  67.5728655  48.3346034  54.9592907  11.3756015
  48.9991905  55.6015141  11.1263874  48.8317777  54.1675885  11.5811660
  73.3643600  10.5977510  71.7573738  73.1869766  10.8437132  70.8494806
  73.4150430   9.6420359  71.7410707  66.4370295  15.2427172  55.3031683
  67.2951933  15.6483053  55.1795483  65.8141896  15.9020590  54.9972677
  32.9663469  38.1520779   7.0236232  33.2627202  38.6461956   7.7879837
  32.6226188  37.3351128   7.3850849   9.8970462  72.9829628  28.9645889
  10.8487607  72.9247029  29.0487411   9.7400238  72.9892571  28.0203750
   3.7565495  26.0053523  29.1125324   4.1301252  26.8295176  28.8004043
   2.8226425  26.1889870  29.2141750  58.8091469  72.5789165  55.4084969
  59.1083574  72.0853806  56.1721277  58.0755138  73.1010294  55.7331753
  26.9436693  51.7873192  63.7721300  26.3499641  51.5561438  64.4864845
  27.7570105  52.0400715  64.2089605  85.9811803  23.3178400  61.8555832
  85.4419824  23.2326483  61.0693026  85.3905746  23.0978273  62.5760126
  89.0580552  63.5208733  43.0397918  88.1289499  63.5371335  43.2694271
  89.5019572  63.8697751  43.8127353  82.4021356  59.8073800   1.7147234
  82.3444288  58.9219124   2.0736578  82.9671161  60.2779133   2.3276117
  35.8511878  48.5215313  11.3212326  36.3971855  48.7029870  12.0862034
  35.1888133  49.2124779  11.3303974   0.3046085  59.9404557   6.1017921
   0.7245685  60.3822072   5.3637388   0.5378677  60.4716904   6.8631103
  38.5724164  71.3351662  10.9745815  39.0842153  70.5545742  10.7625034
  38.9000370  71.6111023  11.8305900  34.9050523  49.4033558  40.0449588
  34.8139621  50.2066548  40.5574348  35.1930763  48.7463315  40.6786754
  67.1784779   3.2741522  64.3642426  66.6094538   3.8153338  63.8169146
  67.6542088   3.9014029  64.9087334  34.8327066  56.1378701  22.8698471
  35.0144674  55.7263215  22.0249679  34.6240093  57.0466740  22.6536205
  74.6714898  23.2576345  38.6618519  75.5585023  23.2623648  38.3021092
  74.7949287  23.1250834  39.6017599  32.5498652  60.0317574  62.3642159
  31.7926502  60.5438757  62.6481009  32.5126767  60.0590897  61.4081287
   0.6450205   5.5280470  52.8324747   1.4105730   5.9837793  52.4825191
   0.7909565   4.6086763  52.6095819  40.9600278  17.8974222  54.9703455
  41.1792454  18.2945704  55.8132267  41.3029143  17.0056986  55.0293303
  45.3060150  68.1676435  63.8885450  44.7589588  67.6875162  64.5101833
  46.1707020  67.7652407  63.9698935  40.1240206  77.8909254  64.2894459
  39.4699717  77.8982735  63.5905933  40.7248640  78.6006975  64.0626431
  72.2765904  41.1951287   6.0583999  71.7209940  41.9492562   6.2554863
  71.6704231  40.4555161   6.0163524  10.0840926  74.1939545  50.1572895
  10.5271149  73.8252306  50.9214926   9.4934642  73.4998178  49.8647738
  47.9095840  75.0877857  27.0769787  48.1862354  75.8970928  27.5067735
  48.4750843  75.0197411  26.3076854  17.6139240  38.3611177  28.3391047
  17.8807716  39.2692255  28.4818292  16.8362122  38.2512068  28.8862014
  13.7772752  50.2102406   6.6957023  13.6442806  50.9072239   7.3381641
  14.1710664  50.6506665   5.9425762   8.9536171   4.3325972  51.1003113
   8.5551863   3.7912249  50.4188395   8.4848814   5.1655935  51.0490417
  40.6868931   7.0250105  67.7696466  41.2513205   7.7401041  67.4758959
  41.0270020   6.7906736  68.6331511  30.9497215  21.9780047  11.8583229
  31.0486032  21.9849951  10.9062698  30.8110000  21.0567315  12.0779541
  79.8400502   3.0679495   9.6805217  79.7015422   2.1530135   9.9253395
  80.5459516   3.3652670  10.2545765  12.4348497  11.7633545  35.6917405
  11.5142071  11.9469130  35.8787036  12.6427698  11.0034633  36.2354016
  12.2613379  30.3499301  15.0978973  12.1122428  31.1272534  15.6361988
  12.5780603  29.6892079  15.7138279  69.8050929  84.8044492  67.6417160
  70.3503932  85.5850626  67.7393007  69.3251438  84.7427847  68.4675980
  27.8455234  55.9687519  59.6422815  26.9907665  55.5478048  59.5504808
  28.0483294  55.8981562  60.5750799  77.7748004  43.9520645  42.9051447
  77.3390356  43.2663345  43.4112215  78.3656982  44.3721437  43.5301304
  80.4234306  14.6506870  42.2272110  80.0090543  14.0402734  41.6173601
  80.4763595  15.4744697  41.7426348  79.3336029  73.1942392  31.8599677
  78.3876462  73.3402754  31.8683648  79.6121950  73.3773459  32.7572346
  69.4831125  22.2928429  50.6237841  70.3170863  21.9642925  50.2879620
  69.7285119  22.9777074  51.2458515  18.5201764  21.1107564  38.6833787
  18.8566494  21.7756820  39.2841220  17.5688398  21.1656928  38.7737823
  46.5858984  24.9891853  69.2743492  46.0347605  25.4758859  69.8872137
  46.5536976  24.0856886  69.5888186  61.7476751   1.0080941   5.1235798
  60.9083062   1.1122878   5.5717304  61.9115412   1.8607600   4.7206714
  57.1753260  61.9485696  21.4634254  56.9429490  62.8265949  21.1612632
  57.3504921  62.0555695  22.3983600   1.6045110   3.8204125  55.8375406
   1.6304800   4.4579527  56.5510511   0.7462789   3.4044632  55.9191227
  23.8094589  54.8379036   9.2200020  23.1390222  54.1963705   9.4549110
  24.4552794  54.3376680   8.7210968  15.8501685  46.5864944  49.7572613
  15.1574302  46.8100262  49.1356659  15.8114827  47.2780752  50.4179049
  36.4610073   5.2534374   8.5080650  37.0732197   4.5476707   8.7162044
  35.6544581   4.8041304   8.2554081  90.5804116  12.7755487  54.5187283
  89.6382502  12.9328609  54.4569492  90.9740661  13.4666991  53.9862108
  19.9853751  48.9210190   5.2091720  20.8920374  49.1174229   4.9733331
  19.4734749  49.6119883   4.7887542  12.2937691  29.1847992  53.5537434
  11.6161156  29.4308710  52.9240894  13.1151962  29.2833018  53.0723000
  54.4613716  51.8251868   5.4443386  54.3283173  51.9489791   4.5045498
  55.0634667  52.5257023   5.6953170  26.6920822  49.7354325   7.1369674
  25.9825068  49.3220778   6.6451576  27.4092334  49.8082878   6.5071895
  36.3138034  59.8711308   4.7653511  35.4859313  59.4107958   4.9030140
  36.5607920  59.6560033   3.8659313  70.5986370  74.3836726  30.2485061
  71.2585683  74.4326008  29.5568919  71.0709865  74.0389396  31.0063171
  79.3479077  30.3029799  58.0282164  79.7900132  30.7924867  57.3345613
  79.3250827  30.9069967  58.7704277  84.4303198  75.1247097  25.7382846
  84.8144479  75.2329911  26.6083145  85.1813908  74.9942113  25.1594114
  60.8393093  60.6230792  16.1805465  60.3760096  59.8346003  15.8979061
  61.2435671  60.9625348  15.3820541  89.9965150  41.7174864  25.9672642
  90.8714416  41.3497353  26.0917425  89.6632806  41.8485641  26.8549609
  58.8438288  31.0185957  64.1167116  59.1264168  30.1397514  63.8637114
  59.5738045  31.5857124  63.8682270  74.7927877  81.9988569  38.6899593
  75.5106756  81.3691481  38.6240986  75.0768730  82.6163085  39.3639591
  13.9469429  58.1841250  29.0744903  13.5987386  58.8120838  28.4415176
  14.5971557  58.6805519  29.5714977  73.5678073  73.7691744  45.5905941
  72.6179096  73.6828836  45.5100753  73.7581083  74.6449240  45.2543190
  53.4485170  63.9735921   1.9476297  53.2548043  64.9002322   1.8060472
  54.3621060  63.9607628   2.2329738  54.8061987  40.7879601  16.6142013
  53.8809129  40.5428567  16.6154506  55.2669808  39.9850698  16.8576839
  54.6955892  41.9587096   8.6813667  54.9053761  42.2172810   9.5787933
  54.0876504  41.2258544   8.7791755  21.5810490  53.0448437  58.3685827
  20.8261490  52.5273180  58.0883598  21.2826395  53.4953070  59.1586876
  89.1636939  72.5566436  59.5587826  88.3253736  72.7858640  59.9599171
  89.6698565  73.3687628  59.5809984  48.7467909  30.3927875  63.0566120
  49.3429279  31.1415887  63.0688715  49.3060398  29.6383548  63.2418203
  37.3450782  83.9238604   8.9557007  37.8469035  84.2020520   8.1895378
  37.1835431  84.7320040   9.4425705   2.2582899   7.3598778  64.2840862
   1.3098454   7.2324282  64.3051052   2.4329174   7.7154553  63.4127045
  86.5144295  30.9009743  65.0483322  86.8540502  30.7930923  64.1599369
  85.5755041  31.0446763  64.9300051   7.0310930  64.2235924  62.6569891
   7.3270444  65.1086498  62.8698635   7.8249339  63.7655021  62.3809433
  58.6166617  64.7742804   9.4868114  58.2401153  65.1311501   8.6823967
  59.5590373  64.7514637   9.3205669  59.1361810  67.8554584  65.5048037
  59.7492264  67.2128678  65.8618498  59.6635483  68.3811594  64.9033451
  56.9089552  60.5582770   5.9763935  56.4503237  60.4502459   5.1431968
  56.5014001  59.9174007   6.5589836  47.4692719   0.3260214  -0.1126883
  46.7631357   0.9641297  -0.0106213  47.1783381  -0.4354637   0.3890445
  68.8538956  31.3956292  20.1614025  68.2579212  32.1372778  20.0565174
  69.6591955  31.6717417  19.7238090  28.2468152  13.7900722  56.9228411
  28.0086899  12.8756833  56.7697954  27.6014209  14.1027594  57.5568151
  44.4342228  66.7793973  19.9308231  44.1925188  67.4319895  20.5880382
  45.2210661  66.3640436  20.2837970  48.4094851   8.4800751   8.7765815
  48.3293443   8.8876374   7.9142025  49.3374508   8.5639651   8.9958408
  33.2447004  22.3228836  43.8676453  34.0163398  21.9387603  43.4514046
  32.5091863  21.8178153  43.5210133  51.0950824  71.4600285  14.3419006
  50.2251860  71.8284996  14.4959667  51.6557380  72.2221454  14.1967228
  34.3108475  84.9924954  10.4627254  34.3131870  84.5175036  11.2937477
  34.0422740  84.3408020   9.8151138  88.3269874  27.6468825  63.2251787
  87.4933813  27.7959490  62.7789593  88.4091530  28.3830738  63.8314009
  25.7321739  43.2579756  59.5062494  25.4209971  42.7244997  58.7749481
  25.9313560  44.1083860  59.1146326  49.8923167  43.2163862  11.9579246
  50.4674622  43.8116329  12.4386718  50.4420563  42.8662206  11.2569263
  12.8018785  30.0200820  69.7232676  12.1790063  30.2959394  70.3956985
  13.2130349  30.8330846  69.4296551  51.9999834  78.9320310  20.4675319
  51.4747092  79.7112950  20.6493690  52.1873733  78.9828571  19.5302322
  56.3829585  84.9093588  10.5583694  55.9018084  84.3094691  11.1283329
  57.2111436  84.4620379  10.3844574  25.2229169  63.9115127  11.5969780
  25.8563813  63.9038714  10.8794143  24.8258438  63.0408295  11.5752151
  54.6539537  36.4240217  51.5359831  54.0871064  36.5872002  52.2898293
  54.8534099  37.2952199  51.1932564  24.3054223  32.0386887  31.2823153
  24.9652052  32.6569414  30.9681821  24.4360495  31.2562704  30.7466030
  83.1004162  71.9701112  72.0022202  83.8986010  71.4725197  72.1798038
  82.4215074  71.3038028  71.8957043   3.9876109  21.1831546  32.7986169
   3.5614288  21.9386458  33.2033801   4.6342903  21.5631127  32.2039151
  28.6607432   0.5923657  50.0349855  28.8233685   0.6174368  50.9779358
  29.4008303   0.1019228  49.6772575  13.9797795  47.8910208  59.1195107
  13.0968189  48.2565737  59.1741085  14.0319669  47.5215626  58.2380295
  24.1783953  20.3564334  44.3692780  24.2993927  20.5048943  45.3071213
  24.9872017  19.9285793  44.0882015  83.4541723  48.9851209  11.5566852
  83.7596532  48.9731826  12.4637535  82.6322433  49.4747480  11.5871933
  74.5909197  80.5592842  69.7787237  74.1695197  79.8162050  70.2105665
  75.2017183  80.9009315  70.4317427  37.9430058  42.9356726  34.6084240
  38.7932041  42.6076151  34.3155506  37.9796388  42.8771491  35.5631282
  76.0139147   9.2000449  50.0904989  76.6033713   8.4484184  50.1523829
  76.5958849   9.9529791  49.9873877  22.5064969  15.6026101  47.9003620
  23.3661914  15.8449864  48.2444715  22.1009755  16.4357924  47.6603794
  22.4910975  30.3737736  72.7053213  21.7161536  30.0928235  72.2187424
  22.1510363  30.9656906  73.3763123  26.9154263  26.1636281  67.8228331
  27.0903659  26.7211199  68.5810089  26.0219193  26.3871670  67.5622416
  30.8520055  48.9865637  57.0840597  31.0126066  49.7688770  57.6117134
  31.7003059  48.7861490  56.6885138  63.8378804   5.6781561  15.2151897
  64.3472125   5.7045300  14.4051864  63.1225776   6.2970955  15.0686004
  86.1878770  32.2315629   5.8847072  86.7965620  32.6717455   6.4779880
  85.3206246  32.4936945   6.1935642  27.1519312  70.2552994  22.2347381
  26.3369223  69.7833832  22.0636013  27.6502469  70.1754626  21.4213875
  20.6597233  13.6604822  48.3838463  21.2164140  14.4018221  48.1456375
  20.4959130  13.2083094  47.5562334   8.9163395  63.1696256   8.6127784
   9.0532204  62.2295447   8.4955433   8.8761255  63.5186871   7.7224090
   9.5565838  58.1004953  70.2376223   8.7604755  57.6273441  69.9956083
   9.3216956  59.0244055  70.1513052  88.4482113  58.8552427  55.7565641
  87.9146159  59.6156073  55.5255938  88.8792964  58.6077595  54.9385500
  55.7883474  81.4261993   7.7244976  55.5817577  82.0129593   6.9969967
  55.8921024  82.0067748   8.4784248  46.1897135  42.1448326  72.1689796
  46.8507814  41.8046856  71.5660524  46.0450602  41.4329195  72.7922630
  41.3315662  65.3061851   0.1354864  42.2012683  65.0195154   0.4141834
  40.7696208  64.5457133   0.2842500  66.1312362  66.1232384   4.0801742
  67.0555183  66.2877067   4.2669466  65.6894967  66.2600311   4.9182584
  12.7260339  42.2658682  22.0960474  12.5722730  41.8902779  21.2291455
  12.9688239  41.5177488  22.6415753  85.7837599   5.2370007  11.3459041
  86.3506930   5.2704651  10.5753830  84.9934881   4.7901328  11.0425689
  12.9825905  83.3080114  52.0709991  13.7253979  83.7826773  51.6979504
  12.5792054  83.9311928  52.6752806   2.7963239  23.5868883  34.1021538
   2.7935818  24.3473554  34.6834540   1.8993267  23.2547164  34.1380811
  59.0588828  80.5746301  23.1390884  59.4147583  81.4623674  23.1003025
  58.5660740  80.4783305  22.3241642  27.0476439  67.1242078  13.3874538
  27.1066546  68.0703863  13.5197189  27.2323930  66.7499622  14.2488697
  34.7676837  73.8788732   3.3105066  34.4375312  73.4872611   4.1191318
  34.7325021  73.1693276   2.6689937  22.7866960  13.9082146  23.5789752
  23.4702921  13.2880127  23.3254457  22.0272350  13.6553490  23.0540848
   1.4854223  44.6415472  70.6598997   2.1748269  44.2915297  70.0955963
   1.9248274  45.3056240  71.1910868  21.3413548  17.4846113  51.3122177
  21.6715765  16.7980170  51.8916798  20.4916048  17.1591449  51.0151863
  60.4659339  78.1912621  23.7064197  60.2437278  78.0097421  24.6196010
  60.0285431  79.0206059  23.5137870  89.5060083  53.4426149  10.3936699
  90.1874324  53.1510659   9.7879436  89.0333864  54.1223832   9.9132755
   3.2748798  41.3375998  28.6157942   2.8669998  42.1820545  28.8075209
   4.0872836  41.5615702  28.1618476  12.1108254  77.9759963   6.9931724
  11.1708733  77.8362711   7.1080520  12.1732947  78.8015254   6.5127208
  69.8727553   9.5505555  24.6951893  69.6376245   9.9528773  23.8590744
  69.4476145   8.6931546  24.6763733  62.3920203   4.9671967  55.0769928
  62.0872178   5.5622847  54.3920067  61.9545665   4.1375954  54.8856189
  57.5955745  65.4414137   6.8702438  56.8119165  64.8974522   6.9490936
  57.9221651  65.2644928   5.9880474  36.1451426  68.6415966  41.9006469
  36.0218945  69.5701035  42.0979240  35.2595821  68.3074530  41.7579487
  22.3698425   1.8994787  61.0756063  21.9838333   1.6508999  61.9155121
  21.9653416   2.7412790  60.8658838  55.3561350  67.0228561  18.0707004
  55.7388398  66.5041502  17.3630932  55.3124544  67.9121145  17.7192142
  11.4076662  45.9412718  57.3064041  10.5121148  46.2447214  57.4551868
  11.3881469  45.5581236  56.4294529  30.7082963  54.8892212  68.8888407
  30.1581955  54.1745234  68.5681725  31.5653896  54.7271442  68.4946918
  61.6767928  77.8708085   1.1068084  61.4174172  78.2685336   0.2756813
  61.1173221  77.0983489   1.1875990  42.5471779  15.9523638  12.6314857
  43.3004817  16.4787348  12.3637226  41.7906495  16.5144571  12.4643066
  73.4746807   1.3326151   6.7517498  73.7962644   0.7890446   6.0324791
  73.9291578   0.9994252   7.5254848  15.9649273  52.4039801  11.9790676
  15.6078657  51.5194323  12.0585277  16.8781229  52.2716709  11.7245033
  67.0363103   5.2496464  15.4876735  66.5613025   5.0619490  16.2972191
  67.7844863   5.7778819  15.7659462  55.7971355  38.4391095  17.8583458
  55.2117177  37.9184886  17.3083713  55.3137657  38.5595571  18.6757114
  58.3277559   7.5757575  41.9044352  59.1575336   7.3804480  42.3398209
  58.0811405   8.4394312  42.2353125  82.8536766  11.3214524   8.1689861
  83.8002341  11.4146883   8.0614402  82.7546304  10.6910117   8.8824012
  30.6522369  16.1666811  73.6198378  30.6555152  15.9546983  72.6864100
  31.5455556  15.9827864  73.9103460  30.4379843  83.4284075  36.8101719
  29.5504723  83.6148032  37.1164634  30.3214734  82.7714070  36.1238697
  70.1911532   1.2074788  20.3635051  69.6473586   0.5986197  19.8636940
  69.5735621   1.8520911  20.7088974  29.1870540  75.5988987  12.4990776
  29.6160146  75.0334462  11.8568256  28.2887616  75.6853374  12.1799686
  14.1703369  20.3055794  24.1756656  13.7333585  19.6920950  23.5849693
  13.7223007  21.1387904  24.0298679  54.9003431  56.7295261  10.2476432
  55.1186296  55.9377583  10.7392624  55.2859732  56.5885206   9.3829849
  36.6365933  14.7752070  73.6980343  36.4590740  13.8968706  74.0345478
  36.3958144  14.7303665  72.7726984  85.4294789  74.4193133   1.6076782
  84.8303807  74.2088922   0.8914116  86.1621773  74.8660763   1.1836651
  50.4297018  13.9255250  55.6564999  49.8707724  13.5098946  54.9999332
  50.4456282  13.3048558  56.3850260  42.0586785  62.1274515  32.8627041
  41.5470954  61.3891741  33.1935527  42.2854706  61.8792125  31.9664982
  68.3949419  42.2289961   9.7383144  67.6545617  41.9694526   9.1899421
  68.8381525  42.9118376   9.2347934  26.2307121   4.2240221  12.6770713
  25.4144098   4.5499785  12.2980907  26.9173576   4.5992548  12.1257522
  83.7146733  10.6240630  48.8539648  83.7856529  10.4704595  49.7960901
  84.1488389   9.8700476  48.4549761  25.0570440  25.2879071  61.3265371
  25.6365108  24.5787883  61.6051054  24.3514585  24.8482561  60.8520985
  80.4678743  11.6677554   1.7964914  81.4074676  11.4865286   1.7730215
  80.1828878  11.3445694   2.6512220  22.0926668  45.3771241   1.9057253
  22.1898939  46.3086064   2.1035125  21.5299512  45.3540833   1.1317423
  25.7711053  22.7172661  45.7234049  25.5775213  23.6519480  45.6518126
  25.0149107  22.3504591  46.1815071  35.2181864  29.7955251  52.1724844
  34.6536160  29.8514438  52.9434347  35.0909781  28.9045501  51.8465805
   2.5699678  23.0895042  60.9583616   2.8474522  23.5505486  61.7499876
   1.7596442  22.6468134  61.2106133  25.2084317  80.0716313  16.6371944
  25.9866765  79.8742302  16.1160400  25.5470427  80.5159982  17.4144390
  10.4874313  48.9958954  64.8523188  11.3740361  49.1586637  64.5303392
  10.1202965  48.3641052  64.2340279  43.0465698  25.3160906  72.8078079
  43.3263826  25.0402761  73.6806536  42.1173048  25.5224943  72.9082680
   4.3467477  85.2901382  62.9737806   5.1675824  84.9085269  63.2849598
   4.3174795  85.0689232  62.0429516  84.4163125   1.8426640  26.8364074
  84.3923180   1.2681038  26.0711982  83.5025089   1.9116337  27.1128872
  57.4238273  78.3989986  13.7991550  58.2874080  78.7060626  13.5231617
  57.6052925  77.7682694  14.4959190  83.1538790  18.4627707  13.3137539
  83.3612769  19.1170723  12.6465919  84.0044992  18.2051117  13.6691311
  77.4678604  11.7021799  43.9806128  78.2676402  12.1294641  44.2872286
  76.7988507  11.9639373  44.6131802  65.4124400  82.1011098  25.8893325
  65.4234883  81.2081226  25.5448272  65.9559795  82.5998791  25.2793911
  72.4153800  84.8661946  58.8751030  72.8600855  85.6045037  58.4587240
  72.2738798  84.2403316  58.1648159  52.7625418   7.9431188  37.4128819
  53.6449051   8.2067728  37.1518230  52.1825361   8.4792733  36.8721747
  17.4898636  40.9209061  61.6204977  16.7146027  40.6349659  62.1036530
  17.9330027  40.1083994  61.3761806  39.7110042  75.0486167  10.8527496
  40.3856286  75.1858409  11.5177944  38.8957873  75.3096922  11.2811115
   2.6961860  32.6103187  61.2082720   3.2528511  33.2319117  61.6772890
   3.2846838  31.8937826  60.9706163  47.1388933  61.2554534  16.7760685
  46.7159554  60.4198929  16.9740417  48.0253204  61.0168847  16.5048435
  13.7733078  61.2697458  73.7124491  14.5267725  61.8019581  73.9679384
  13.6275923  60.6873703  74.4579935  44.5659924  54.6533251  71.1126089
  43.8489771  54.0496826  71.3068581  45.3537512  54.1112852  71.1557245
  83.6817925  21.7263920  26.9591358  83.1775348  21.5979989  26.1557224
  83.2731002  22.4826653  27.3801544  17.4424922  53.3110523  49.9362898
  17.5279093  52.5645494  50.5293131  16.7707574  53.0431461  49.3092108
  91.1962838  57.6298237  60.3609657  90.4027855  57.6724911  59.8273277
  90.9265343  57.1679068  61.1547565  29.5535612  37.6262784  23.6696863
  30.3709483  38.1208467  23.6104202  29.6690536  36.8986130  23.0586219
  72.0607965   1.1600811   2.7663925  71.9272678   1.3889296   1.8465927
  71.7981081   0.2415163   2.8252342  90.0598332  56.9824123  28.4892535
  89.4147981  56.9454479  27.7830005  90.5069978  56.1370087  28.4497166
   1.5971400  52.9635906  50.9814167   1.5136313  53.5444403  50.2251911
   1.1412109  52.1634626  50.7203627  25.7026744  32.2349000  50.1471090
  25.0145650  32.8944874  50.2347612  26.4215708  32.5657415  50.6855965
  90.6345265  21.9177485  70.5533600  90.7410419  22.2627473  71.4398479
  90.2348509  22.6362133  70.0631571   9.0244175  41.8854268  22.5335815
   8.1623723  42.1760495  22.8313282   8.8376762  41.2593777  21.8339946
  44.6721220  30.0223970  56.7628622  43.9990520  30.1006317  57.4389458
  44.6272945  30.8496475  56.2834024  57.9444838  24.4016862  50.5825424
  57.0351362  24.1435742  50.7332230  58.1663704  24.9482608  51.3363695
  21.8029448  85.5453261  15.4511573  21.3820532  85.0508221  16.1543968
  22.6615449  85.7794150  15.8036258   0.6463643  28.2651468   9.1809204
   1.5439435  28.1157704   9.4780185   0.7423993  28.6161049   8.2955673
  27.6711803  82.1475776  27.1829822  28.4260201  82.2970684  27.7522781
  27.3748862  83.0254515  26.9426181  56.6282007  75.9236868  16.1476829
  56.6588541  75.4819044  15.2990844  55.9194418  75.4866274  16.6197803
  85.2829449  33.3604081  10.2471950  86.0217803  33.1013281   9.6965244
  84.8048084  32.5463421  10.4050186  89.3812915  55.0558742  38.7368992
  89.7471210  55.7385429  39.2993572  89.5147249  55.3818544  37.8468635
  59.9031731  54.9040922   3.0428722  59.0939542  55.0910612   3.5187318
  60.3808113  55.7335945   3.0474165  41.8709597  77.0799430   8.2331016
  42.2473833  76.2505134   7.9388549  40.9285995  76.9159349   8.2690265
  85.6284114  57.1831342  22.7205112  85.9411785  56.4792987  23.2888630
  84.8236534  57.4890610  23.1388405  12.2207737  35.1665831  73.7389803
  11.9881010  36.0417199  74.0491867  12.4191022  34.6748543  74.5359087
  20.1087626  37.7072658  12.1044376  20.5599930  36.9012495  11.8535164
  20.2364668  37.7684893  13.0511024  15.9076930  37.4160225  16.4703396
  16.7799188  37.7912075  16.5915516  15.9339334  36.5886719  16.9510009
  19.2367172  28.6561775  46.0818291  20.1270461  28.5869670  46.4264393
  18.6832643  28.7232924  46.8599129  86.4780348  11.3731415   9.3427303
  87.0182030  11.3399346   8.5532024  87.0991700  11.5431149  10.0509193
  66.1213228  73.1883653  25.4193618  65.3447505  73.1665691  24.8601749
  66.8480441  73.3368524  24.8143318  15.7380855  21.5598845  47.1119642
  16.2567055  21.8093634  46.3470936  14.9278402  21.2047124  46.7464685
  52.8255316  69.5465096  15.5126312  51.9094678  69.4145282  15.7568386
  52.9822441  68.9082344  14.8167255  51.3071915  82.0320662  21.4726188
  51.6427037  82.5838693  20.7660988  50.3610727  82.1768125  21.4608696
  18.4432364  49.7087097  73.2116604  18.6456931  50.2894926  72.4782228
  18.9594436  50.0539017  73.9400864  81.0659998  13.7400801   3.7149027
  80.7839577  12.8905709   4.0540388  80.2992647  14.3043454   3.8146808
  14.1257977  28.1127119  57.2670174  13.3353126  28.5149646  56.9070816
  13.8816321  27.8595352  58.1572533  61.6847464  63.0961545   0.8098438
  62.0504090  63.3483799   1.6577270  61.3363286  63.9106949   0.4474046
  22.2625896  69.8153218   3.1955364  23.0753698  69.5852478   3.6457422
  21.8618682  68.9733227   2.9794529  63.1153058  11.0608895   1.9540479
  63.5576062  10.6488831   2.6962450  62.3519451  11.4913590   2.3390272
  57.2271156  17.5568569  56.2874508  57.9212523  17.8498328  56.8778467
  57.6618242  17.4491286  55.4414892  10.8038402   5.7266909  60.5404758
  10.8865738   5.3899938  59.6482754   9.9218458   6.0969061  60.5759430
  25.0416780  54.9353456  58.7320566  24.6898413  54.1229343  58.3681488
  24.7772193  54.9200583  59.6518707  42.5335317   6.7658360   6.5164974
  41.9084745   7.2973998   6.0235717  42.2325783   5.8656771   6.3925102
  55.9353681   0.9322340  24.4624832  56.0120996   1.1833889  25.3829601
  55.0441532   0.5927975  24.3803241  78.0944368  82.7716144   4.4670179
  77.6327726  83.3515318   3.8613823  78.6305162  82.2140964   3.9030769
  26.1174991  72.4501022  25.7496669  25.5075106  72.0515474  26.3703945
  25.6390354  72.4667057  24.9208000  48.7392184  57.8523382   5.9050968
  49.1497322  57.8545042   6.7698028  47.8599092  57.5065323   6.0582855
  20.7615515  83.2356986   4.2446306  21.0951331  82.6691278   4.9402979
  20.5936643  82.6424559   3.5124328  14.4166614   9.6345503   2.5127723
  13.9131357  10.4247220   2.3170259  15.0651409   9.5836813   1.8105486
  17.8485358  54.4860935  65.7262182  18.0089891  54.5481730  66.6678286
  17.0720112  53.9314032  65.6516361  16.2726796  16.8666494  50.3552437
  16.1608529  17.4003160  49.5685244  15.7381189  16.0889435  50.1950884
  85.1647013   9.8940165  20.6207302  85.6827991   9.1921885  20.2267196
  85.7563751  10.6461842  20.6408146  45.1563867  76.9670161  12.7577331
  45.0237926  77.8395136  13.1284073  44.2739877  76.6561325  12.5553634
  16.0701787  26.3447142  60.0164032  15.6784523  25.5200911  59.7286940
  15.4300475  27.0125794  59.7705984  54.4107410  81.1902078  17.8205993
  54.8008582  81.8040784  17.1983364  54.9941799  80.4315074  17.8063419
  80.5668705  18.4604294   0.9419611  79.9357801  18.7182839   0.2700451
  80.4789179  17.5090916   1.0006836  24.2390585  12.0419276  40.7230425
  24.1061234  12.8929722  41.1405182  23.3545828  11.7168939  40.5548477
  44.4018587  81.5198620   2.5315120  44.1018745  82.3544677   2.1714046
  44.6036228  81.7127450   3.4471109  30.8287048  28.9753056  37.8994513
  31.1662412  29.2302465  37.0407867  31.4797592  28.3619499  38.2402682
  39.2160525  64.2695054  14.4450786  38.4733840  63.9603384  14.9638202
  39.9592652  64.2363103  15.0473716  11.6901994  21.4770889  63.8786125
  12.3036540  22.2107625  63.9189339  11.2342870  21.4995742  64.7199631
  36.3126056   1.4273865  30.5713871  36.4740222   1.6717131  31.4826992
  36.3514679   0.4709799  30.5693557  81.9155569  60.9726287  63.1685591
  81.5689821  60.9318639  64.0598822  81.1966033  60.6630803  62.6176357
  52.2035405  50.5979075  21.6585853  52.1721860  51.0017564  22.5258472
  53.0981370  50.7518562  21.3548877  17.4167633  28.5867405  61.1679983
  16.5728104  29.0365767  61.1277199  17.2704649  27.7612448  60.7060623
  77.0120641   1.3890051  55.5905247  76.1388847   1.1255335  55.8809853
  77.1266910   2.2705435  55.9454632  32.8787160  23.0930281  52.3757792
  33.7942386  22.9603028  52.1299458  32.5861883  23.8202000  51.8263435
   0.6042339   0.1819499  11.3935688  -0.0400184   0.8887322  11.3531902
   0.9486820   0.2225192  12.2857216  88.1458957  11.6883922  72.0396662
  88.1143714  12.3807788  72.6998425  87.7897910  12.0945358  71.2494326
  57.7006217  74.5174631  20.9535816  57.8558823  75.0903710  21.7045238
  58.0077406  75.0216516  20.2001217  57.1995779  82.4410327  29.8685482
  56.7488166  83.0781229  29.3143299  56.7603632  81.6106232  29.6848514
  11.7582902  82.4598201  14.2500713  11.4547142  81.5535315  14.3021705
  12.3564061  82.4694880  13.5028198  21.0600591  58.2790852  72.5736475
  21.7178750  58.9635134  72.6963997  21.5444088  57.4600077  72.6773262
  18.2100475  29.0521598  72.6731110  17.2679162  29.1799712  72.5622654
  18.5932851  29.9047780  72.4671888  91.0172960  62.6999398   4.1108587
  91.6609498  62.6226743   3.4066084  90.2527877  63.0974754   3.6940553
  64.8857256  77.2093638  15.5228546  65.6418535  77.7520450  15.2992466
  65.1089903  76.8251618  16.3706615  26.1782181  62.1775409  20.9883430
  25.9474381  61.2547573  21.0953167  26.9543418  62.2953757  21.5360477
  21.1684489  36.0215330  27.6443911  21.7690110  35.4000902  28.0559301
  20.3301239  35.8691144  28.0805254  58.3376982  16.0383017   3.0700376
  58.5835007  15.1175959   3.1601074  57.8185394  16.0700924   2.2664859
  24.9786186   6.2495685  64.0085077  24.4988966   6.5306956  63.2293653
  25.7675266   6.7916393  64.0126133  27.6410740  67.6638325  24.0303161
  28.5502529  67.4563034  23.8145378  27.4370628  68.4309538  23.4953907
  54.1173049  47.0830133   4.7048643  53.5590097  46.3772901   4.3785312
  54.0096899  47.0534064   5.6555393  43.9416504   0.5207578  36.9370151
  44.2581177   0.6769668  37.8267789  44.6001434  -0.0534170  36.5459418
   5.8220166  18.1604671  43.4932041   5.1643324  18.5758424  44.0510130
   5.6391466  18.4970117  42.6159763  39.7917923  67.0563444  21.4040115
  40.6027361  66.6344579  21.1200836  40.0640514  67.9260429  21.6968086
  20.7896876  20.8278728  70.0672865  20.8500504  21.4834166  69.3724155
  20.1720476  21.2014031  70.6959581  11.5850067  44.9467564  50.8094358
  11.7598295  45.2321100  51.7062330  11.6934419  45.7375002  50.2810478
  36.6256332  13.8598776  14.3117249  37.5111294  13.4977841  14.2798722
  36.0913610  13.1543803  14.6764994   1.2407848  79.9962171  14.9923637
   1.6753384  79.5925268  14.2410782   1.2840840  80.9362992  14.8174312
  17.3261571   5.3173959  73.6833906  16.8552971   5.6691003  74.4389200
  17.9865849   5.9805971  73.4828138  45.1837751  71.3272460   4.4682148
  44.9120745  72.1902426   4.7806957  44.6360895  71.1674627   3.6996153
  89.7714227  13.8211615   1.5380838  90.2827828  14.4086726   2.0944765
  89.5115893  14.3628247   0.7928827  40.7753059  58.6777504  21.5307071
  39.9770018  58.1698974  21.3856914  40.9732851  58.5529538  22.4588516
  30.5472326  40.3593206  65.7235909  30.4197216  39.4801497  65.3671741
  31.4754224  40.5437613  65.5798054   1.6315295  20.4095793  50.8498383
   1.3144569  20.9541392  51.5703583   2.4480487  20.8270144  50.5754757
  12.3161515  80.2155693   5.4176548  13.1847867  80.6159004   5.3796985
  11.9066628  80.4525026   4.5855405  27.1549162  57.3842176  26.4417293
  26.5434405  57.8548511  27.0081451  28.0193695  57.5969430  26.7934349
  66.1689612  65.0536736   8.5759761  66.5269133  64.1709050   8.6699035
  66.9361874  65.6258830   8.5891559  43.6302328  30.7944465  59.0727615
  43.7886477  31.4294744  59.7712421  42.6828575  30.6580806  59.0833807
  88.5717554  60.7267500  18.3005321  87.9977937  61.4509846  18.0509627
  88.6455197  60.1954604  17.5077391   2.8207758  10.0425553  50.8914948
   3.0036566  10.3592241  51.7760897   1.8827121   9.8521358  50.8944273
  47.0408678  19.3691087  60.9998322  47.5165844  20.1489544  61.2857771
  46.3331842  19.7078741  60.4515123  56.1002155   4.2516787  13.8383606
  56.1110224   5.0814755  14.3153885  56.2169286   4.5009072  12.9215744
   8.8668466  28.3440566  34.8870540   9.5137626  27.6407790  34.9430132
   8.0388051  27.9273510  35.1256657  48.5047707  80.1962837  13.0728843
  49.0701982  80.1761397  12.3007991  48.9763554  79.6825727  13.7285831
   8.4298612   7.8928168  41.7462185   7.5598742   7.8662999  42.1445301
   9.0074970   8.1841404  42.4516895  39.8676395  24.5624256  57.8052473
  40.7491446  24.9188972  57.9152727  39.7066879  24.6081877  56.8627882
  10.8983477  61.1141332  15.4344871  10.4556998  60.3213831  15.7375457
  11.7909380  61.0334404  15.7706478  33.2648230  23.7316537  66.0650873
  33.2817793  24.1652751  66.9182634  32.4778318  23.1872988  66.0886765
  80.6714038  38.6135411  54.6248531  79.9039368  38.8834047  54.1204739
  80.3734354  37.8550220  55.1269436  78.4260817  74.6191181  53.8116550
  79.0581484  73.9176429  53.6546373  78.7324781  75.3439940  53.2667637
  72.6304695  66.8670376  11.0232761  72.9141971  67.6791843  10.6035736
  71.8275997  66.6263374  10.5610111   9.5577699  33.4166741  41.0185385
   9.0685034  33.7678194  40.2745295  10.2890754  32.9430151  40.6222200
  46.9047984  46.5510940   4.0188387  46.2499734  47.1432381   3.6489704
  46.8783292  45.7804277   3.4517362  21.2920117  33.8249135  37.1730924
  21.9989085  33.3067799  36.7882943  21.6709256  34.6957970  37.2923231
  11.4391983  49.4300890  44.6124744  11.1725664  48.5328865  44.4120646
  11.0806084  49.9524498  43.8949871  23.7306186  75.0450691   7.1756199
  23.8621875  75.8816942   7.6216915  23.3041861  74.4899877   7.8285148
  62.1136233  37.1095600  30.9510067  61.9584485  37.3322900  31.8689087
  62.5349637  37.8866919  30.5838993  75.5479213  80.0606640  28.6889961
  75.9177133  80.8054241  29.1631534  76.2338897  79.8048051  28.0723789
  51.5153810  66.5838774  25.9705665  51.9164344  67.4421414  26.1075809
  51.3122746  66.5609487  25.0354412  74.0768501  73.1222018  22.8855636
  74.8257800  72.6433047  23.2405212  74.4585534  73.9082321  22.4948051
  62.6236984  62.5365289  14.1577842  61.9890472  62.4277290  13.4495380
  62.2872683  63.2718404  14.6700027   2.5623875  57.1287080   8.1349590
   2.4470453  56.1890169   7.9938629   3.1166248  57.4137410   7.4084594
  61.7463418  74.6765216  20.1429393  61.5214225  75.5848702  20.3442981
  61.2124916  74.4614871  19.3780925  87.3853513  62.4212500   9.6139171
  87.7086231  62.2561546   8.7282207  86.4731141  62.1320315   9.5937183
  16.6734254   7.2964185  50.6086206  17.4976051   7.7255476  50.8384180
  16.0174656   7.7294677  51.1548948  65.9938240  64.7400713  62.2532511
  66.7615414  65.1199150  62.6805305  65.2724409  64.9145746  62.8577185
  39.0789309  79.2654665  13.4138229  39.4075080  78.6388930  14.0585449
  38.1399557  79.0866574  13.3629825  72.9761629   8.1645424  26.6847255
  73.1206065   7.2493155  26.9249942  72.4621921   8.5237820  27.4079158
  55.2677923  19.2138941   2.1448019  55.2039259  18.6887391   1.3470771
  54.8956125  20.0621397   1.9035747  47.4818420  43.6861610  66.9187737
  48.3854580  43.9734650  66.7877483  47.5518513  42.9389763  67.5129461
  33.2446742  63.6311054  69.7581720  32.3499322  63.7153625  70.0876665
  33.7574053  63.3672142  70.5221748  62.2296688  62.2672304   9.0889576
  62.0773145  62.4945982   8.1717231  63.1723401  62.1102663   9.1434219
  79.4360750  10.1842434  25.1054218  79.1432267  10.8299859  25.7484558
  78.7482565  10.1801617  24.4397476   1.1553337  15.9055836  29.3937996
   1.3845993  14.9832280  29.2800834   0.7588531  15.9483082  30.2639797
  29.8212814  58.0342340  62.6315737  29.1008353  58.2736826  63.2145452
  29.7155356  58.6073399  61.8722343  13.1025268   4.1778786  12.7857616
  12.6009084   3.3972342  12.5508049  13.0188323   4.7540266  12.0259693
  23.9178516  17.0303280  10.1394584  23.3261730  17.7214653   9.8420074
  23.3689929  16.2473090  10.1826122  84.6105163  37.5072606  36.7070129
  83.8734620  37.1589406  36.2053611  84.2998975  37.5188763  37.6123359
  82.3186391  10.3711064  28.6344936  82.4020188   9.9053557  27.8024128
  81.6706269   9.8674042  29.1270378  29.1473198  18.4068727  55.0590944
  29.7552872  19.0349197  55.4491806  28.4539318  18.9477992  54.6811533
  79.7987335   8.4447319  29.4451740  80.1507299   7.6456625  29.8373726
  78.8641088   8.4206707  29.6504333  47.8656007   5.4905779  35.6419113
  48.3568813   5.9469016  36.3250282  48.2129909   4.5987017  35.6522396
  86.5164011   2.6739438   2.7528360  86.4586156   3.4978516   3.2366398
  86.0081809   2.0533402   3.2751348  81.7638513  81.6417321  16.6939476
  82.2762605  81.9448145  15.9444072  81.4911386  82.4446281  17.1380451
  17.8479370  76.3793333  13.2562950  17.5239142  76.3270696  12.3571232
  17.4764666  75.6110033  13.6897876  48.1395197  48.9191246  64.6004677
  47.5900173  49.2764950  63.9029264  48.1270552  47.9732275  64.4543457
   5.6233670   0.1673014   3.9570644   6.0148455  -0.3557842   3.2575205
   6.3597180   0.4007037   4.5223453  16.1936530  78.2100781  14.4681289
  16.7952081  77.4917825  14.2721393  15.3262016  77.8055294  14.4580581
  85.1326141  36.7588711  66.5955353  84.7267262  37.2750950  65.8991194
  85.7683340  37.3529053  66.9945526  19.9867012   9.2844708  14.2255047
  20.7205869   9.4538338  13.6347797  19.2358161   9.1599829  13.6450699
  21.3662481  65.8257055  70.3322744  21.9091606  66.3216305  70.9450865
  21.8075728  64.9801683  70.2514362  26.8679716  43.5712273  10.6748798
  26.1432125  43.5575612  11.2999942  27.6511051  43.6601384  11.2180450
  87.0580015  80.9209061  39.7978234  87.2470648  81.7988873  40.1289368
  86.1137394  80.9222698  39.6409798  79.2789727   8.2387001  17.0014789
  78.4218924   8.3328707  16.5858104  79.6934669   9.0945609  16.8922641
  26.5849686  42.7646351  67.7342081  26.1064649  42.2688198  68.3986139
  27.4994850  42.5106621  67.8582525  73.9534705  11.2154801  16.0935810
  73.1097524  10.9230502  16.4383438  74.1982608  10.5433543  15.4575374
  60.6167203   0.5934174  13.6456421  60.9937200   0.8001168  12.7904346
  59.7279043   0.9466393  13.6072757  85.3318088  25.3182108   0.6033876
  86.1846655  24.8837597   0.6143167  85.2465456  25.6561024  -0.2881214
  11.1464012  39.5510077  47.1847582  10.2170873  39.6205926  46.9662094
  11.1570036  39.2915630  48.1060696   5.9105754  42.2955942  50.2939177
   5.8870155  42.3653412  49.3395519   5.6347728  41.3971138  50.4752874
  35.7868099  65.7465267  63.3810663  34.9488473  65.2841473  63.3970261
  36.4326191  65.0654745  63.1930971  40.3113079  46.7638206  74.4023705
  40.3400278  46.6255426  73.4556484  39.7087049  46.0933447  74.7241831
  16.7018653   3.1112034   0.9036377  17.0237209   3.9932520   1.0897424
  15.9530498   3.2470162   0.3230646  25.6088734  55.2493763  52.4806356
  25.5917525  54.3017387  52.3467875  25.5784369  55.3575945  53.4312105
  64.4971367  71.8310817  33.8697078  64.2256209  72.0133623  34.7693184
  64.1669485  72.5741299  33.3646515  32.1797658  68.2298430   4.3684271
  31.9090111  67.3771246   4.7087171  32.9287844  68.0359682   3.8048532
  26.5147185  19.4807565  43.5180616  26.7724133  19.5057786  42.5965405
  26.7297792  18.5925758  43.8028717  27.0630646  69.5569801  71.9545174
  27.3031783  68.8096714  71.4066935  27.8772926  69.8039293  72.3930168
  87.0736306  10.7768424   5.6786850  86.1629622  10.7714350   5.3839233
  87.3546832  11.6855509   5.5714920  12.8836823  64.0614367  58.8384390
  12.4753809  64.6131182  58.1712294  13.3613920  63.3977270  58.3409357
  84.6581193  70.3435143  27.2399929  84.1268083  70.0799139  26.4886882
  84.1530343  71.0412057  27.6575496   4.6591093  22.6504023  21.8453243
   4.2060257  22.3137982  21.0722473   4.5164253  23.5963757  21.8136146
  26.3144851  71.9214964  70.8172941  26.5258503  71.1523771  71.3464546
  26.3876820  71.6173077  69.9126720  41.1663437  28.0734706  46.9451666
  42.0522213  28.4324527  46.9960165  41.0757923  27.5458956  47.7387047
  10.1970769  26.4178927   6.9902923  10.6523849  26.1558993   7.7904728
  10.6115772  27.2430117   6.7380932  49.0430781  73.2018026  18.6121967
  48.3224174  73.7495359  18.3009556  49.8078653  73.5150870  18.1293037
  39.6700907  65.6852865  67.4040079  39.5326734  66.4096212  66.7935276
  39.9395156  66.1074162  68.2197571  19.7670674  62.2484112  64.6122551
  19.8068368  63.1945276  64.7519541  19.0239370  61.9591522  65.1417065
  25.9874552   3.6947949  16.6363933  26.0457008   3.3095391  15.7620838
  26.8976443   3.7934859  16.9157627   4.8016836   2.3259385   0.9540203
   5.2451922   3.1550391   1.1332395   4.8480488   2.2302468   0.0027445
  55.9662720  38.9324614   3.6140230  56.0257360  39.8830374   3.7094190
  55.4594537  38.8034423   2.8123214  49.1275867   2.6999067  53.0116129
  48.8237556   1.8586420  53.3524609  49.9844345   2.5084757  52.6303005
  33.0997062  49.0857029  67.8658485  33.6366200  49.3615389  68.6087322
  33.7320828  48.8673353  67.1812725  60.0817486  75.1958927  38.5942009
  59.1919657  74.8450478  38.5564354  59.9734732  76.0886653  38.9220073
  16.8914378  69.7166252  36.0611916  16.9346571  70.4793167  35.4844213
  15.9722567  69.6665144  36.3235378  46.8720627  61.8796635  54.0678024
  47.6225424  62.4171114  53.8145065  46.9799662  61.7462254  55.0094938
   1.5007163  40.7794793  26.4520099   2.1226121  40.8405335  27.1770885
   2.0017864  41.0515339  25.6831482  24.9928641  32.4459410  44.8248577
  25.8305049  32.3896766  45.2846622  24.9282885  33.3623433  44.5560312
  79.6657341   2.1805460  17.0595291  79.3452733   3.0389960  16.7827537
  79.9419623   1.7549164  16.2478759  73.7643402  31.1424954   0.0895336
  74.7055524  30.9952385  -0.0035593  73.5494488  30.7820208   0.9498289
  77.1491449  18.7715895  17.4914291  77.0990639  19.0499909  18.4058788
  77.0102756  17.8249867  17.5213077  82.9568454  85.5852040   2.5288274
  83.8697740  85.8719834   2.5522258  82.5509616  86.1326941   1.8567112
  90.7387945  79.4280394  20.0204113  90.4088327  78.6014923  19.6680286
  91.3332864  79.7557887  19.3455818  45.2125701  74.1395148   8.0154922
  44.8461958  73.6557849   8.7557724  45.8334526  74.7504743   8.4123161
   6.9549656  60.3121853  66.7868185   7.8203976  59.9042463  66.7577648
   6.4003819  59.7350407  66.2618685  19.3081450  51.5131569  56.9541883
  18.7930191  50.9038544  57.4829865  18.6563277  52.0613194  56.5172863
  59.0583431  12.6161749  42.5480964  58.3090494  12.1273358  42.2077587
  59.6777294  12.6434977  41.8188121  69.7197967  19.1459830  38.8899639
  70.4319941  18.8177140  39.4388225  68.9610606  19.1729290  39.4729068
  22.4407579  51.3297112   8.5107830  21.6167165  50.8523591   8.4142425
  22.3007156  51.8986733   9.2676761  88.4205382  41.2191708  15.5225685
  88.3032601  42.1398671  15.7566478  87.6619594  40.7767136  15.9033897
  63.8279148  84.7628172   5.1505068  64.2918607  85.3944357   4.6009185
  63.7014791  84.0008124   4.5851782  70.2762841  19.4442828   0.8863475
  69.7221183  19.9957592   0.3340748  69.6987723  18.7378151   1.1755111
  68.9530473  16.2690146   6.1134746  68.1461697  16.4078171   5.6175735
  69.4079213  17.1101601   6.0710933  72.3278373  11.9135125   0.1617458
  72.7355891  11.0518725   0.2486255  71.4980202  11.8343337   0.6322410
   2.2492702  57.7980661  39.8623538   3.1214699  58.1886482  39.9166226
   2.1798840  57.4916697  38.9581752   1.2629129  54.3962510   0.1569441
   1.4418413  54.1651471   1.0684278   2.0972730  54.7286637  -0.1740858
  41.0074994  66.9588669   2.4690225  41.1459192  66.2297066   1.8645408
  41.5552422  67.6637181   2.1234825  15.2487755  64.2576408  50.4152489
  14.6175563  64.2441988  49.6957922  15.3924942  63.3348417  50.6250572
  89.5233498  24.4542360  65.6596947  88.9475644  24.4857574  64.8956871
  90.3431697  24.0890670  65.3268576  59.8163244  79.1589435  12.6801326
  60.5716106  79.7468980  12.6709774  60.1773163  78.3017620  12.4539592
  62.0532247  84.3994196  13.8412121  61.5829703  83.6197766  13.5458305
  62.9122135  84.3334063  13.4240654  31.0648094  72.3524865   3.3721187
  31.0917931  73.1896337   2.9087761  30.1855446  72.0137366   3.2036760
  82.1001094  22.7160389   6.3974788  82.0341080  21.8397458   6.7769363
  81.8215339  23.3030207   7.1003845  78.5726159  18.7150176   6.1283806
  77.9150551  19.3314631   6.4506176  78.5529309  18.8193829   5.1770952
  42.0767307  21.6625237  64.7505093  41.5397930  21.5628052  63.9643860
  41.4490652  21.8592334  65.4459000  26.5966369   1.4699061  10.3534439
  25.9050657   2.1028168  10.1601150  26.1447908   0.6271775  10.3967312
  55.1106787  82.0356846  54.4365597  55.3209543  81.9701767  53.5050440
  54.1871929  82.2866917  54.4565630  33.2683873  15.9088612  69.9640036
  33.4028816  15.4281569  69.1472626  33.5008121  15.2839315  70.6507874
  30.0316787  66.6374636  64.1052485  30.2001882  66.2199306  64.9499416
  30.3488278  66.0067701  63.4588146  17.4281606  75.7752999   4.4055059
  16.6914317  76.0964926   4.9254062  18.2039865  76.0898741   4.8695829
  20.5084825  39.9186087  71.3688660  20.2704406  39.9817133  70.4438877
  21.4548135  40.0617599  71.3829517  75.8611350  18.5189612  12.3590591
  75.7110541  18.7115414  13.2846000  76.7151468  18.9072783  12.1690395
  82.2309181  80.5691942  48.6934879  82.7315351  79.8576005  49.0925529
  82.6216432  80.6801876  47.8267505  75.8623057  23.9807065   4.5309951
  75.7772475  23.4448082   5.3195455  76.1449771  24.8368151   4.8525598
  12.1094133  11.7194731   6.1193111  11.3028718  11.2139876   6.0182979
  12.8103067  11.0793574   5.9958675  44.0933752  65.9261560  48.0374527
  43.2980394  65.6527567  48.4945440  43.8587236  66.7573214  47.6247358
   7.0660073  33.2832742  38.9861774   7.4881750  32.7004552  38.3550453
   6.3108492  32.7872753  39.3023300  88.7791749  54.4345363  15.4579857
  87.9088994  54.8326190  15.4775455  89.0080568  54.4046529  14.5290306
  75.8148309  69.0544947  11.6721275  75.9597322  69.4370540  12.5375106
  76.6652938  69.1166862  11.2373092  57.5630665   6.3539165  57.0415068
  57.4355841   6.5639174  56.1163712  56.6785574   6.2132001  57.3792648
  53.3257338  58.3117922  24.3196323  54.2789718  58.3126613  24.4066265
  53.0655762  59.2095502  24.5259884  15.4751253  44.2125607  51.9823170
  15.4762828  44.8493099  51.2676287  15.7829201  43.4003830  51.5799904
  73.2131403   4.1693337  25.5362823  73.2892709   4.5521910  26.4102676
  72.3492234   4.4439442  25.2289226  33.4627050  83.8329323   8.1695964
  32.8442032  83.3652361   7.6083973  33.8630637  84.4844778   7.5939014
  62.1483895  57.4241515  24.4009903  61.4790555  56.8251487  24.0701988
  62.5913307  57.7456041  23.6156871  41.8821430  44.9704266  68.2719851
  41.5838623  44.0624189  68.2192802  42.4604273  44.9886847  69.0345383
  83.1357356  59.6565040  35.9246471  82.4327489  59.3986734  35.3283527
  83.5094806  60.4435118  35.5282142  22.4649049  17.7027781  33.9364650
  22.6235868  17.2053225  34.7387054  22.0209743  17.0850499  33.3554580
  24.6998572  55.2580547  61.6069317  24.7053218  56.1445522  61.9679451
  25.0689864  54.7138929  62.3025322  87.4558513  19.6199019   1.6857031
  88.1332724  20.1262791   2.1339395  87.9380935  19.0630896   1.0744455
  50.0793764  77.5359162  29.6158340  49.6957227  77.5044998  30.4922226
  49.3556842  77.3151644  29.0295150  32.8699064  19.3322706  45.7655525
  33.0146122  18.4548175  46.1196280  33.6996293  19.7878253  45.9079075
  65.2604171  68.5103925  19.1724231  64.6299287  69.1952547  19.3953254
  64.7320148  67.8189262  18.7738063  20.3981900  58.5381413  44.3073797
  19.8575187  58.0093527  43.7206173  21.2981558  58.3294821  44.0568686
  34.5598793  54.5187140  70.7950354  33.8576674  54.3146324  70.1773930
  35.3650069  54.3868876  70.2944088   9.6623492  78.5596704  45.5165148
   8.8196772  78.6609554  45.0739336   9.7610134  79.3613482  46.0301304
  49.5536630  12.8077776  19.8619869  48.6474388  12.8528817  20.1668766
  50.0376587  12.4425538  20.6026580  39.5524645  63.4103441  57.4550867
  39.7581339  63.2799339  58.3807898  39.6604443  64.3512058  57.3159790
   0.6192209  14.3628437  11.9507148   1.0930134  13.5962422  11.6281250
   0.9616567  14.5019896  12.8336742  85.4015848  78.2292016   8.4012821
  85.2305290  78.9264067   7.7681377  84.6519109  78.2563671   8.9958313
  26.5601492  56.8653250  65.9307957  25.7219934  57.2912216  66.1106253
  26.3222837  56.0137558  65.5640745  29.3214846  72.5902414  50.0581026
  28.9749861  71.7000628  49.9968624  30.2719617  72.4772692  50.0660658
  13.9096166  30.5509217   0.7188537  13.9060642  29.7094758   1.1751344
  14.7124578  30.5374415   0.1977947  41.8930723  30.6753142  18.1939438
  41.8634750  30.1202185  18.9731910  42.8054000  30.9592278  18.1366375
   1.1588360  13.0918391  19.7405937   1.2135388  13.9883597  20.0714805
   0.2502514  12.8340657  19.8963478  16.2405111  17.3411972  18.2499244
  15.7844879  17.1200259  17.4379184  16.9330265  17.9439766  17.9791668
  30.9264374  73.1474161  57.6954889  31.4058948  72.6655626  57.0215702
  31.5085030  73.8689423  57.9338932  14.7960378  19.1167242   5.3153064
  13.8489486  19.0656741   5.4443290  14.9600793  20.0363286   5.1063945
  52.2160530  83.2604122  60.3135967  51.6260052  83.2927322  59.5605803
  51.6517925  83.4318829  61.0675526  43.8794804  32.5969934  61.4352036
  44.0522671  32.0069027  62.1688080  43.1652021  33.1561828  61.7407227
  12.3858930  33.6763127  11.5931823  13.2624914  33.9417775  11.8712738
  12.3705007  32.7280171  11.7225387   3.4101167  57.2173548  62.4941444
   3.1237924  56.3157368  62.6402187   2.6025820  57.7309704  62.5119877
  35.0239062  54.1676378  64.9022055  35.5288768  54.7631311  64.3484688
  35.0391889  53.3334351  64.4330502  76.3882732  58.7046623  62.7720308
  76.9275427  58.4220791  62.0334005  75.5509520  58.2596397  62.6413488
  26.0273839   9.4012101  18.9284542  26.7846014   9.7438176  19.4032886
  25.6165649  10.1748641  18.5425499  60.6441164  55.6262493  69.9171305
  60.8689260  55.3990030  69.0148830  61.4345837  55.4263163  70.4185486
  30.4954028  41.4376736  72.7359486  30.9674597  41.2188721  73.5393906
  30.9640908  40.9666634  72.0469570  22.6281571  65.0958443  63.6078596
  22.5132656  66.0150003  63.3666420  23.2120132  64.7431612  62.9363251
  11.0083963  13.9653904   5.4371431  11.5061952  13.1921895   5.7028129
  11.4280368  14.2535431   4.6265295   6.4189888  26.8171627   3.9560487
   6.3460280  25.8980162   3.6989811   6.1422969  27.3054202   3.1806257
   2.4115564  31.8258126   7.8528717   2.9778816  31.5506537   7.1319034
   1.6915180  31.1951573   7.8459480   9.8463203  53.0023224  21.1147430
  10.7150270  53.0167897  21.5164592   9.3582608  52.3543198  21.6227939
  44.4349289  47.9072428  69.1216993  44.2028475  48.5026026  69.8343801
  44.3584299  48.4399366  68.3301020  13.4137452  73.1308222  56.9007206
  13.6794579  72.2458124  56.6509342  12.5371110  73.0225754  57.2695398
  62.1363783  71.3509941  56.0678625  62.6247931  71.2183237  56.8803167
  62.1665764  72.2965193  55.9219217  71.1840337  26.8224127  16.1608150
  70.2296202  26.7494280  16.1602619  71.4934426  25.9179337  16.1116340
  71.3058969  79.2019185  15.3651931  71.6380569  78.3641227  15.0427082
  70.7666942  79.5374592  14.6490219  16.0706569  23.6970551  13.6133125
  16.5678836  24.4267924  13.9827373  15.4173185  23.4898121  14.2814663
   4.6836711  15.9467061   8.4724834   4.8794199  16.3036520   9.3388012
   4.4136669  15.0439389   8.6408165  70.8370452  29.0078480   0.8422783
  71.5785902  28.9478905   1.4445665  70.8312743  29.9223883   0.5597761
  30.7247305  56.3869095  66.4038420  29.9421358  56.9039392  66.5947866
  31.0789037  56.1618519  67.2641563  69.4740820  80.9882259  38.5733581
  69.3366432  81.8593216  38.2011485  68.6510515  80.5266094  38.4128666
  23.4645462  43.0841208  60.7920027  23.5052705  43.3880043  61.6987705
  24.3730235  43.1053400  60.4912567  31.5683079  60.0446033  73.7026262
  32.3845363  60.4030991  73.3540821  31.6951799  59.0960741  73.6818886
  86.0356872   4.9627573   4.6261718  86.7779033   5.5275996   4.8413589
  85.2652829   5.5063231   4.7912338  13.6960208  54.7808409  70.2915573
  14.0215433  54.7028112  71.1883163  13.7959409  55.7090998  70.0804043
   3.1058769  83.8309010  11.8666675   3.0989819  84.7665938  11.6650226
   4.0160923  83.5646256  11.7369106  85.1383250  28.9127142  20.8922889
  84.3590634  29.2599804  21.3263347  85.3753870  28.1412442  21.4069488
  47.9291201  51.2661171  69.8359871  48.7263441  51.1139107  69.3285465
  47.2212410  51.2020922  69.1948605  47.1385288  76.6131115  71.6478300
  47.2185707  76.2615490  70.7611370  46.4443445  77.2690248  71.5836573
  22.5871706  59.1702890  69.7288561  21.7338467  59.1710281  69.2951822
  22.6435614  60.0289822  70.1480103  17.3399736  17.5243027   2.0329502
  16.9498970  17.6322205   2.9003742  17.5925590  16.6017325   1.9970157
  57.0332285   7.2702288  61.9403315  56.5681931   7.9445051  61.4450216
  57.9399868   7.5756430  61.9676256  18.5813476  45.4176648   2.6993778
  19.1080476  44.9167283   2.0765760  19.2213537  45.8093388   3.2937029
  40.2045679  25.5140328  54.9433661  39.8875499  25.5405259  54.0405750
  40.0641060  26.4017534  55.2726889  29.1972446  74.7536135  71.9642067
  29.9705410  75.2409887  72.2482920  28.5013890  75.4097605  71.9256592
  33.8790321  78.7233257  68.7722445  33.8499904  79.6800470  68.7634277
  33.3399796  78.4742498  69.5229864  28.9207673  41.0296488  67.9634714
  28.6468101  40.1153708  68.0361223  29.4328856  41.0627460  67.1554661
  85.8558743  26.6666586  22.6193931  85.9395378  26.9084675  23.5417583
  86.5391748  26.0108168  22.4807956  26.7008449  20.5119593  16.2800815
  26.2850286  20.0395806  15.5588367  27.6391698  20.3839667  16.1408069
  41.1913109  55.8269501  61.0017395  42.0581722  56.0940313  60.6960487
  40.6897259  56.6412687  61.0408115  28.7751865  55.8391905  70.5924368
  29.3933105  55.5628014  69.9158525  27.9129100  55.6813288  70.2080011
  44.8118640   6.8076928  14.2782905  44.1294767   6.8442614  13.6080387
  45.5987836   6.5384419  13.8044861   2.0235301  38.0589802   8.1107166
   2.4044205  37.2791321   8.5144165   1.4868261  38.4482319   8.8011196
  41.9433834   3.9728672   5.8842018  42.1876670   3.5212882   5.0763490
  42.6335336   3.7417204   6.5058925  27.2383499  68.1287193  66.1053085
  27.7829099  68.5642767  65.4495811  26.4025474  68.5939169  66.0698271
  35.9962559  80.5212212  63.6771584  36.9408584  80.6066990  63.5481167
  35.9091139  80.0687122  64.5161295   1.6282226  13.9387686  16.8918445
   0.8360697  14.1031344  16.3802746   1.3123418  13.5305912  17.6979759
  84.1371576  70.9806347  61.0404301  83.6430965  71.7005062  60.6480980
  83.5228173  70.5733538  61.6511202  31.0757995  74.7847700  69.6244955
  30.8965302  75.3158617  68.8485861  30.3154278  74.9219179  70.1895285
   6.6900879  48.0308580  61.7268515   6.2988162  48.0491352  62.6002359
   6.4993525  47.1526575  61.3972807   6.7102791  26.6538985   9.3431881
   5.8886649  26.1707814   9.4314029   6.4833237  27.5557787   9.5697620
  67.3112675   7.7239393  61.8170214  67.2418925   7.1972536  61.0207653
  67.8360459   7.1893190  62.4128532  22.5908662  22.6432164  26.7738846
  23.4389974  22.2932179  27.0466640  22.1020128  21.8778737  26.4713886
  48.2185221  65.1383162  71.8587303  48.5884047  65.6756163  71.1582041
  48.4586716  65.5964136  72.6641560   4.9577881  18.2593710  32.1978882
   5.5741502  18.9140208  32.5261619   4.2950250  18.7676461  31.7303016
  50.9364932  12.8092129   9.5356109  50.5521088  12.7642281   8.6601379
  51.2509852  13.7099488   9.6131160   5.0905658  23.1580908  18.8709095
   5.3232933  23.3639605  17.9655388   4.1519453  23.3381636  18.9238002
  74.3801968  37.2175152  17.0209339  74.9919336  37.8404076  17.4133804
  74.5973282  36.3792307  17.4288204  84.2816441  10.6375058  12.2143009
  85.1227730  10.2810128  11.9285610  84.5133608  11.3771660  12.7759388
  24.1816306  81.5143776  70.0935793  23.5897446  82.2661686  70.1203680
  24.8043895  81.7245197  69.3977022  59.2888355  71.7719078  66.7074013
  60.1712418  72.0019007  66.4163876  58.7089634  72.2313499  66.1000299
  51.3116091   0.9430582  21.2142208  51.3771491   1.3855107  22.0604828
  50.9446137   1.6034348  20.6264713  91.4899319  39.3346055   9.9672344
  91.3318603  40.1789219  10.3895786  90.6535332  38.8737519  10.0326660
  40.9357500  41.4794588  61.1645365  41.8542480  41.6799402  60.9845400
  40.4521370  42.2162580  60.7910776  73.9248317  26.5100510   6.9513824
  73.6911052  25.7685835   7.5098064  74.8626118  26.4035017   6.7918613
  28.7539007   2.3176558  35.3241947  29.2669012   3.1151421  35.1935222
  27.8522159   2.6253397  35.4165676  52.0987892  73.5625696  35.9084320
  51.7424917  74.4468117  35.9944701  53.0467081  73.6789989  35.9726715
   4.2301445   2.7088522  59.9261236   3.7303476   2.1428846  59.3378067
   5.1413899   2.4480032  59.7926140  17.3044683  33.5251362  21.9843605
  18.0293085  34.1005499  22.2287681  17.4931003  32.6995738  22.4305656
  47.5157213  61.6992903  74.1434765  46.7618275  61.5473747  73.5735655
  47.3491049  61.1531687  74.9117327  58.4516177  33.1395419  21.4040020
  58.3380902  34.0369637  21.0909870  58.2366722  32.5931962  20.6479957
  12.4014856  32.4050362   5.8723381  13.2124807  31.9428952   5.6603458
  11.7741682  32.1012099   5.2162912  19.0463401   8.9320977  32.4863842
  19.0183784   8.2472641  31.8182209  19.3433668   8.4827406  33.2776382
  62.3719168  51.3769388  73.5270357  61.4966822  51.5085554  73.8915443
  62.9264259  51.9916201  74.0075779  26.4896966  26.0066445  19.5486667
  25.7710077  25.8942063  20.1708248  26.0578014  26.1254342  18.7027385
  13.1584312  18.4203894  11.3808849  12.6872684  18.5584385  10.5591896
  12.4875404  18.5035307  12.0585468  85.9755938  19.8341877  19.4816425
  85.9791415  20.6703837  19.9474743  86.8428486  19.7799809  19.0801933
  19.3957055  51.6201544  71.0768509  20.3069401  51.3602257  71.2121964
  19.4091058  52.5758839  71.1282015  37.1409655  74.6441555  61.5541363
  37.7512980  74.8938560  60.8603191  37.5786781  74.9063969  62.3639917
  21.9720626  77.5318956  63.7847710  21.9359612  76.9147635  64.5155764
  22.8141761  77.9752970  63.8870955  90.6606960  80.5588627  70.4316282
  89.8984909  80.3777409  69.8816538  91.4118195  80.3974342  69.8606777
  19.5449163  12.0925314  38.0558613  19.3048049  13.0191214  38.0521133
  18.7514831  11.6406662  38.3431080  64.0575600  40.0515795  62.7622604
  63.9935684  40.7046175  62.0653534  63.2985258  39.4838452  62.6289320
  28.8039447  28.0030949  11.1615493  28.4959461  28.3425267  10.3212192
  28.8424255  27.0547850  11.0372188   5.0909234  34.0096409   5.4262235
   4.3611337  34.5301468   5.7619503   5.8194615  34.6278174   5.3685978
  81.4477985   8.9402659  22.8447178  80.9750216   8.1307919  22.6511600
  80.7630091   9.5687706  23.0733612  31.9008495  17.9833777   6.2146213
  32.5065185  18.3978970   5.6001594  31.0645868  18.4225876   6.0597351
  45.7200861  65.6341076  72.7773666  46.2909269  65.1945639  72.1471548
  45.2187252  66.2577486  72.2520638  40.2304079  36.2132628  16.1525181
  40.8839847  35.9253771  15.5151870  40.3995420  35.6776745  16.9276169
  13.7411119  15.5628140  29.8288562  14.3033220  16.2807496  29.5377758
  13.5466958  15.0720055  29.0303924  13.1960250  43.8124020   4.4143083
  12.8972007  44.3408711   5.1543501  14.1076280  44.0743763   4.2855337
  18.7309076  17.2412951  10.8711078  17.9350425  17.7310593  10.6638553
  19.2024805  17.8006728  11.4883163   5.7930232  42.1755917  27.4860408
   6.1883046  42.9906781  27.7952602   6.1361004  41.5042145  28.0757644
  34.4478011  50.3739500  61.6721821  34.2940021  51.0400009  61.0021448
  34.3112993  49.5420790  61.2187624  68.3135911  18.6481546  14.6961975
  68.7000295  19.0967344  13.9440894  69.0579387  18.2450079  15.1430261
  77.5906277  58.7117910  70.5729246  78.3076429  59.3087530  70.7868242
  77.1656179  58.5373354  71.4126682  40.3703692   4.9210905  56.0010147
  39.9305853   5.6908773  56.3619184  39.7543934   4.2030500  56.1467028
  57.8017398  81.1646756  18.2269313  57.5728556  81.7120775  17.4757984
  57.7009388  80.2674612  17.9090049  86.2428849  19.1827185  13.0058029
  86.6633909  19.6243079  13.7436416  85.6439393  19.8364956  12.6451519
  33.6840892  70.3762913  58.3978558  34.6095562  70.1336622  58.4274340
  33.5793877  71.0085011  59.1089010  83.8515377  74.7532082  58.5736418
  84.1207600  74.0909243  57.9371405  84.1649628  75.5797243  58.2064056
  75.0303738  23.8630850   8.9393642  75.4152518  23.0972893   9.3655803
  75.7343667  24.5115883   8.9309433  86.5211122  16.6837103  23.7362316
  86.3553303  17.1739275  24.5414856  85.9944837  17.1286662  23.0722263
  82.3230927  12.1156294  22.4325779  82.2430103  11.4371712  21.7621257
  83.1680315  11.9432528  22.8480270  52.8302431  71.3498068  65.4000378
  52.1099091  71.5056801  66.0108232  53.1543255  70.4787779  65.6291819
  10.7670070  41.7339356  24.5878723  10.9248592  40.7898457  24.5902565
  10.6497671  41.9548352  23.6639145  73.7104177  56.7731237  72.5318766
  73.8008261  57.2635221  71.7148256  74.4132853  56.1240959  72.5006962
  16.7753029  69.5991802  60.6392193  16.7502558  68.8819218  61.2725830
  16.1792207  70.2565384  60.9981108  71.9038503  52.7984745  17.7859428
  71.8177443  51.8954022  17.4805381  71.1492734  52.9301674  18.3599594
  51.6569396  69.1940840  19.3524673  51.9306585  70.0786193  19.1097572
  51.3059279  68.8215693  18.5436084  28.3922388  72.2298176  18.4260585
  27.5425436  71.8817265  18.6963775  28.4131624  72.1009858  17.4778011
  15.7934980  80.2783068  32.1142032  16.3629131  80.7308086  31.4919117
  16.2772255  79.4865545  32.3495128   7.9070116  24.3569787  29.7182110
   8.3599044  24.0992768  30.5211475   7.0180727  24.0185769  29.8254802
  15.1708841  67.6680470  47.7971601  14.4431293  68.2180023  48.0872488
  14.8589492  67.2660446  46.9864035  37.2333550  73.0095053  72.4908781
  38.1757760  72.9886818  72.3246241  37.1061659  73.7736130  73.0531883
  49.1548729  46.6312170  68.4532309  48.3148861  46.7146397  68.0019045
  49.6543980  47.3982525  68.1732941  31.1664678  24.3612130   8.7604931
  31.4981986  23.4976037   9.0061786  31.4990522  24.5022566   7.8740814
   8.5422589  49.1082222   0.3058269   8.2473256  48.6960919   1.1178568
   8.3988334  50.0441201   0.4463985  74.0690681  86.1167296   9.7794082
  74.5395299  86.3771971  10.5712822  73.8494178  85.1962288   9.9231651
  23.8295938  19.8889096   7.4560192  23.1431247  19.9123795   8.1226852
  23.5388423  20.5127318   6.7907837  23.3376981  30.9202750   6.9890144
  23.9044048  30.9901936   7.7572467  23.2905866  29.9809868   6.8108204
  72.8262711  75.8188295  60.6211996  72.1954775  76.4316702  60.9990406
  72.5583839  75.7330990  59.7062588  35.3860164  57.8478289  65.1423407
  35.2730799  57.6305962  66.0677004  36.2985516  58.1280518  65.0717449
  85.9507152  85.1990851  26.0244587  85.1473161  84.9017962  26.4515426
  86.2073966  84.4684180  25.4619053  22.7532770  23.2673104  13.7831333
  23.6047079  22.9901297  13.4447982  22.3495962  22.4613507  14.1051605
  78.2837125  76.2757500   0.2609995  79.0458843  75.7165893   0.4115656
  78.6445638  77.1598776   0.1951292  80.3356009  43.0076058   1.8526485
  80.2169459  42.1959240   1.3593700  81.2013500  43.3218987   1.5920141
   3.7081127  79.3018278  11.2086322   4.4693308  79.7313102  10.8183506
   3.9683943  79.1288527  12.1133735   6.8708159  10.7397730  44.2870453
   6.1087157  10.7532675  44.8660591   6.5361358  10.3964503  43.4585788
  10.4694462  75.1587677  69.5160770  11.3212466  74.9000359  69.8678255
  10.5381060  76.1057425  69.3945980  80.1676389  81.4487847  30.3970649
  81.1236974  81.4935025  30.3834179  79.8870584  82.1365317  29.7933128
  14.1410792  71.2003660  43.9845324  13.4483552  71.6808128  44.4378948
  14.5795798  70.7035971  44.6753073  26.0624315  48.7001355  10.6898716
  25.5068160  48.4619744   9.9477127  25.7270099  49.5492871  10.9774044
   6.0158421   4.6523650   1.2740209   5.8156229   5.2359707   0.5422142
   5.8870889   5.1927836   2.0535066  29.4271231  43.5205603  74.2228889
  29.8632145  43.0153227  73.5367489  29.9771309  44.2957926  74.3357515
  17.0470743  82.2906908  44.8943832  16.9888239  81.8832286  44.0302017
  17.6261787  81.7139204  45.3925827  14.7566034  13.2237084  35.1079776
  14.5151903  13.9465697  34.5288208  13.9293577  12.9448159  35.5005577
  17.0499422  19.1348870  34.9137714  16.1050512  19.2505009  34.8135307
  17.4063398  20.0218899  34.8644188  14.2842103  26.8625910   6.2060287
  13.5105516  27.1670802   6.6803386  14.9253417  27.5645001   6.3178375
  83.9224928  17.9362996   7.3454120  83.9714377  17.0043404   7.1326187
  84.6463077  18.3313067   6.8593147  20.6568481  31.2548954  12.4759891
  20.7176782  31.1933501  11.5227058  20.4535390  30.3640254  12.7610233
  18.0521517  18.6000608  70.1975250  18.0065994  19.3043398  70.8441687
  17.2701578  18.0730795  70.3618574  69.3291422   5.4785990  55.6265116
  68.5968992   6.0456728  55.3846741  69.8381611   5.3880476  54.8209476
  43.9090539  15.8637984  16.7195060  43.1803466  15.3072865  16.9943073
  44.2900802  15.4066451  15.9698036  20.4607563  11.7947649  65.1793575
  20.4627399  12.1046042  66.0850239  19.7881680  11.1139559  65.1606035
  83.9353057  22.3016809  63.2822323  83.0738851  22.5469755  63.6199045
  83.7469407  21.7284178  62.5391912  32.7427770  45.7193119  12.3797920
  33.1780864  44.8678715  12.4220874  32.6022054  45.9621651  13.2949379
  14.0818693  29.7422488  22.0747593  14.5651103  30.3807671  21.5503528
  13.1629182  29.9841626  21.9596698  38.5056567  79.9161577  56.8748617
  37.8192592  79.7878647  56.2201595  38.1458902  79.5366383  57.6765871
  75.1624986  20.5496573  38.6764526  75.0171968  21.4764856  38.4864092
  76.1018726  20.4223608  38.5437751  10.3594400  40.9972889  12.8200843
  10.9701301  40.9094174  12.0882633  10.2091505  40.0993855  13.1157520
   5.6411772   0.3427099  72.0824480   5.5629520   1.2082457  72.4836540
   6.5564709   0.0976538  72.2181606  36.5138055  14.0350230   2.7378681
  37.1888734  14.7124131   2.7785471  36.5165569  13.6414320   3.6103990
   5.4424240  48.1834919   5.8458164   5.2760269  47.4210961   5.2914741
   4.8377301  48.8513215   5.5224302  65.2963352  74.2689562  72.8467178
  64.5350981  74.0029001  73.3624363  65.6075335  73.4585524  72.4434376
  54.7637510  66.3390827  73.3750963  53.8497591  66.1291552  73.1833029
  55.2141190  66.2362862  72.5367451  79.4228097   6.9735407  63.0427027
  79.8698303   6.5965723  62.2848797  79.4183942   7.9157423  62.8739357
  69.1260337  69.0361817  26.8900039  68.7453895  69.4600518  27.6592090
  70.0095980  68.7907536  27.1644333   4.5892696  26.1521982  61.0958242
   3.7645655  26.6372751  61.1241102   4.3822365  25.3561281  60.6062984
  35.3864957  41.2424977  14.7649124  35.6464578  40.4429371  14.3073776
  36.1994983  41.5767891  15.1437309  17.3742534  25.3319771   0.4842594
  16.6870548  25.4578097  -0.1700756  17.6655628  24.4293768   0.3551176
  13.2601333  58.2960796  60.3422594  13.0312109  57.4449205  59.9689627
  12.7882230  58.3273697  61.1744595  79.5129415   4.9711870  68.6028433
  79.5721170   5.0028395  67.6479959  78.6117002   4.7004961  68.7781191
  17.6270366  69.8670912  69.0767670  18.3032882  69.4152069  69.5814610
  16.9317985  70.0422907  69.7109413  57.8023767  67.9380035  68.6184978
  57.8328753  67.9799461  69.5742941  57.0403242  68.4657621  68.3797884
  53.9603901  72.5252628  29.0256715  53.7537003  73.1430531  29.7269917
  53.1783676  72.5190878  28.4737372  57.4056768  54.5403099  69.8621511
  57.4078751  54.2203569  70.7642889  57.6966143  55.4497099  69.9298382
  80.9766075  32.4424433  49.9242306  80.9566709  33.3669924  50.1713085
  80.5056545  31.9962286  50.6280279   3.5207110   1.5870260  40.7234478
   2.7295094   2.0811056  40.5086851   3.8233166   1.9662642  41.5485811
  45.8776428  63.3750374   3.7425878  45.7817365  62.8357441   2.9576090
  45.0725986  63.2228787   4.2375448  59.7718143  69.5566511  68.2985401
  59.0493250  68.9862442  68.5609818  59.3732166  70.1877403  67.6993084
  88.3417862  42.8587372  11.0142734  88.9021986  43.0373032  10.2591064
  87.6703995  42.2644837  10.6791141  89.9324294  13.7481474  68.1337595
  89.6271964  13.8208841  67.2294521  89.9212858  12.8084158  68.3154535
  23.9641811  13.6272747   2.4180963  23.1537487  13.1180127   2.4087169
  24.0467931  13.9293225   3.3226278   6.7222815   0.3926729  58.3354807
   7.5446634   0.2793669  58.8120079   6.0867100  -0.1269842  58.8276625
  82.4582216  32.6778387  73.7756634  81.6092130  32.5981783  74.2104864
  82.8381940  33.4786295  74.1370249  43.8625097  74.9518299  71.4929914
  43.7218237  75.0723982  72.4320889  43.8597536  74.0025234  71.3703299
  17.7753974  14.8109372  21.7705085  18.1803466  14.2514403  21.1077812
  18.2496120  14.6086342  22.5769928  78.0333253   2.3465323  59.2761469
  78.5135576   2.3406195  60.1041412  77.5062152   1.5478777  59.2992735
  74.3544769  67.6990223  66.7502213  75.0228357  67.0149326  66.7108059
  73.6376286  67.3051453  67.2474337  48.2106086   1.1058687  61.3820648
  47.8950819   1.9738173  61.1303902  48.5547468   0.7316660  60.5710363
  21.1439468  77.1441300   7.8698471  20.5909301  77.6787598   8.4395721
  21.6997100  77.7761300   7.4138477  21.5484643  75.9556532  73.3678341
  21.3500762  76.3215923  72.5058794  22.4855804  76.1119795  73.4844923
  81.3636296  20.6196721  25.1430633  80.5766456  20.3579218  25.6209495
  81.0533016  21.2603934  24.5032146  45.6440004  13.0193495  34.6404195
  45.9251996  12.7151655  33.7775016  45.7135424  12.2466921  35.2011323
  86.6639846  25.0742657  18.7828663  87.2304290  25.8035405  19.0349224
  87.1125882  24.2966588  19.1150024  17.2643375  65.9828806  48.7384224
  16.5937066  65.3995037  49.0936089  16.7752194  66.7349720  48.4047270
   5.1567488   7.6110243  21.5596294   5.0908403   8.1432127  22.3525143
   5.9160690   7.0482992  21.7113066  73.6381578  62.7676249  59.7895050
  73.8797522  62.2671366  59.0101624  73.8732529  63.6707449  59.5765781
  43.3694649  78.2835436  66.8738699  43.6382866  78.3629990  65.9586334
  43.1416321  77.3596144  66.9772291  32.9564476  85.6590366  63.4419394
  33.9014697  85.6481934  63.5937595  32.8378296  86.2688828  62.7137613
  55.5209352  33.7979109   9.1373661  56.4488698  33.7458737   9.3664005
  55.3640748  33.0241759   8.5961082   2.4971657  12.2630953  65.8087206
   1.8643646  11.5556406  65.6850243   2.5107126  12.4096655  66.7545366
  80.0020811  34.8145365  50.9152174  79.6817848  34.8666834  50.0147057
  79.7672769  35.6579660  51.3021660  48.6855555  79.3301535  39.9030137
  47.8758430  78.9542818  39.5575881  49.3413496  79.1451740  39.2307472
  66.8467474  64.1837645  39.9297404  67.1103573  63.3975840  39.4515562
  65.9058189  64.0756178  40.0682688  53.0745125  80.1160431  65.8091164
  54.0268087  80.1696491  65.7285547  52.7832270  81.0277939  65.8184099
  44.7203304  25.9392722   3.9110305  44.1011907  26.3123448   3.2835605
  45.1096679  26.6990216   4.3439605   0.4437904  84.4221171  10.3867462
   0.9488564  83.7554034   9.9213150   0.9027414  85.2418097  10.2031925
  61.6033837   1.9594263  69.6106339  61.1713931   1.8770575  68.7604380
  62.3361584   2.5540518  69.4503498   9.8288040  46.1193346  72.2070265
   9.6270495  46.2523912  71.2808371   9.0854197  45.6197619  72.5447226
  27.7755691  57.5178082  13.7454250  28.6232091  57.9421933  13.6125877
  27.7113344  57.4026616  14.6935013  10.6660151  66.5385962  61.3620424
  11.2389827  67.3042011  61.3197851  10.8238280  66.1689901  62.2307873
  49.8293687  46.3145573  23.8075569  49.1245033  46.6181118  23.2354953
  50.1494314  47.1087582  24.2353847  58.1364536  65.5886173  72.7953339
  58.9436960  65.9012413  72.3868513  58.1546879  65.9604263  73.6771822
  35.5808402  45.9191449   7.9028156  35.2717735  45.4018338   7.1591118
  35.9215261  46.7229779   7.5103595  86.9911977  17.9158186  54.7679472
  86.8189927  17.0454954  54.4086075  87.9418775  18.0134176  54.7139692
   1.9282494  60.1534016   3.5706213   1.0310135  60.1729710   3.2377031
   2.3595677  59.4707139   3.0566909  49.8982240  60.6943734   1.8318060
  49.6503450  60.3954823   2.7067020  50.3385354  61.5312035   1.9804027
  14.4763662  51.5072091   4.4039228  15.2711250  51.7969067   3.9559629
  13.7767841  52.0307095   4.0130785  51.0999489  81.6604900  47.9413700
  51.6057444  81.5892506  48.7508917  51.5462494  82.3423958  47.4393225
  11.1767341  30.7797606   8.3265808  11.5020610  31.6118367   7.9830101
  10.2499391  30.7678826   8.0875232  20.0640203  78.8068039  15.3289249
  20.9108449  79.2276890  15.4771545  19.5105125  79.5014317  14.9720600
  56.2195921  71.1468410  63.9407873  56.8188429  71.3859844  63.2337189
  56.3354015  70.2022648  64.0437031  65.2491661  11.8768477  70.0224543
  64.8221799  12.6825213  70.3136539  64.5733782  11.4127325  69.5283556
  29.4028284  32.9673417  22.7895668  29.6688510  33.3969099  21.9765880
  28.7942220  33.5831196  23.1977871  58.4477779   8.6033129  48.0784988
  58.3034321   7.7341341  47.7044344  59.2174455   8.4985422  48.6378431
  75.8577844   5.4936384  72.3874807  76.3267776   5.6427645  71.5664768
  75.6778118   6.3716959  72.7234030  40.5114412  62.5030375  74.1230917
  40.1103592  62.1216059  74.9040365  41.4510012  62.3674440  74.2458344
  15.4088594  12.6609404  28.2048347  15.5536272  11.9634898  28.8442447
  16.2535192  13.1067593  28.1413391  72.9184818  53.3012486  66.8015289
  73.6026335  53.4454823  66.1477947  73.1322193  53.9085197  67.5098848
  26.1491348  25.8589728  13.1124237  26.8288089  26.3579543  12.6593235
  25.3531839  26.0250695  12.6073482  53.9102270  38.4431965   1.8249729
  53.5308458  38.4737523   0.9467008  53.5892106  37.6213391   2.1960905
  28.9122488  24.9222548   6.3652923  29.8111392  25.2511246   6.3567379
  28.5231544  25.3090556   7.1496513  41.3873388  63.8304074  16.0509422
  42.3354436  63.7463601  15.9496524  41.2754632  64.5561440  16.6649749
  53.2407522  74.3383026  56.1517239  54.1325188  74.0483046  56.3437891
  53.1884813  75.2170610  56.5276003  28.7936287   2.1761679  59.7858047
  27.8686886   2.1323275  59.5433092  29.0607529   1.2615942  59.8776913
  33.3632326  74.7621202  58.7230158  33.8578153  74.5866680  57.9224920
  33.8272738  74.2738914  59.4031096   5.3433563  15.4101260  52.4935749
   6.2817956  15.4481490  52.3088482   5.0372864  14.6363432  52.0204761
   8.4556629  57.5333245  47.9371574   8.1406189  56.9378026  48.6171081
   8.9097477  56.9663365  47.3138073  44.6519948  31.9416172   5.1695993
  45.5507614  31.6325362   5.0559309  44.4094326  31.6543038   6.0498550
  20.7303929  67.2823381  63.6195564  20.2997613  66.5675640  63.1506348
  20.6087065  68.0462599  63.0557728  39.8780894  71.4920473  51.5242672
  40.7441378  71.3753319  51.9148684  39.4239497  70.6675148  51.6978741
  65.1824903  79.0139437  35.3775644  64.3940353  78.4927511  35.5289865
  64.8611879  79.9095345  35.2730894  63.8520193  74.7884321  59.3502903
  63.8382912  74.6910763  60.3024292  63.5531902  75.6847525  59.1968489
  45.5839825  70.7701111  64.2891121  45.6183720  69.8177671  64.1991425
  46.3971758  70.9976292  64.7398615  60.0218868  68.7613583  56.3170338
  60.5585432  68.4003019  57.0226288  60.6230068  69.3142319  55.8178234
  87.4833768   7.8872521  15.5572059  86.9057935   7.6977236  14.8178127
  87.8406375   7.0349820  15.8066681  10.5860930   0.9530520  68.0923080
  11.0506897   1.4596056  67.4261379  10.6313067   1.4949583  68.8800478
  59.5554399  78.5833073  65.2405262  59.5995045  78.1820440  66.1084414
  58.6463785  78.8706923  65.1553965  68.3769560  84.3375874  41.5579557
  68.9423418  85.0326633  41.8947649  68.7303066  84.1407108  40.6904221
  85.5524889  43.4131098  43.7837029  84.8039965  43.4994316  43.1933308
  86.2127799  42.9509449  43.2673216  55.5129720  75.6478054  13.1488254
  55.6460668  75.8013279  12.2134426  55.8552362  76.4352734  13.5718754
  86.6753953  15.3881152   9.2071941  86.0686653  14.8032458   9.6611145
  87.4505966  15.4113467   9.7682312   7.4498393  36.7232354  11.9289901
   7.0340992  36.9442446  12.7623775   6.7349268  36.3930733  11.3848140
  72.3060247   5.2760862  53.2273817  73.0217430   5.7640909  52.8201628
  72.7108261   4.4616674  53.5258532   9.8010664   9.3046068  69.4828987
   9.5518904  10.2239393  69.3881798  10.0086145   9.2072271  70.4122400
  18.2892966  65.0041103  37.0014191  18.6995625  64.2608404  37.4435353
  17.4609756  64.6578598  36.6694117  21.4671089  14.5261223  16.4834812
  22.3454095  14.8423321  16.2717369  20.8872892  15.2469332  16.2375763
   2.4180509  60.4834969  37.7274730   2.3868276  60.6953080  38.6604240
   2.8791167  61.2219269  37.3295143  64.7362106  66.1718113   6.4416721
  63.8051029  66.2536557   6.6479995  65.1186287  65.7633717   7.2183063
  13.2745124  32.9441388  -0.3723833  13.4331132  32.1931059   0.1994827
  13.2590724  33.6965353   0.2191284  55.7467175  68.1616020  63.8696623
  55.7896948  67.5035000  64.5634079  54.8240519  68.1819773  63.6156797
  29.6475555  18.4946616   2.9668739  29.0306283  18.9437325   2.3889711
  30.2132942  19.1909010   3.3006694  80.2783080   3.6230921  33.8201356
  81.2013074   3.8711046  33.8729429  79.9713012   3.6482691  34.7264171
  75.5214712   3.1933855  39.5934081  75.6259271   2.8125643  38.7214613
  74.6845695   3.6562799  39.5539093  13.0390026  35.2201064   1.4584139
  13.2884456  35.0632412   2.3691299  12.2153474  35.7044013   1.5156868
  33.0278468  58.5272551  56.3186932  33.6343312  57.8735495  55.9707212
  33.3305883  59.3561840  55.9479475  70.8219337  78.8165236  61.2708139
  71.0014772  79.3241119  62.0622349  69.8870468  78.9452457  61.1106682
  16.8431093  51.9993527   3.0545309  17.1689512  51.3221962   2.4616459
  16.4137174  52.6337750   2.4806335  69.1219800  21.4890082  41.7068126
  69.9985289  21.2946732  41.3749626  68.5375880  20.9598334  41.1639621
   1.7168189  10.6518443  20.7132270   1.3396622  10.7793887  21.5836933
   1.6462351  11.5092785  20.2936294  26.0993530   0.2963240  28.4852626
  27.0339776   0.4566224  28.3548381  25.8296205  -0.1933639  27.7082946
  66.8116730  54.8033459   4.6816471  65.8830999  54.6177037   4.8213651
  66.8230527  55.4509671   3.9768865  27.5183011  30.9934218   0.1551655
  28.1734945  30.4872782   0.6355550  26.6881658  30.5601675   0.3536489
  28.2513858  49.3961270   2.0930746  28.2870532  49.3141396   3.0460909
  28.9833404  49.9730237   1.8747499   7.9197551  46.9117482  12.5385692
   8.1971289  47.1837647  11.6637447   8.4246589  47.4664624  13.1332042
   5.0592805  45.9097416  27.0562008   4.9999596  45.1557667  26.4694812
   4.4141413  46.5295060  26.7157295  29.9770985  20.1909422  29.3976951
  29.6338725  20.2505659  30.2892518  29.3859770  19.5829748  28.9536405
  37.3952246  61.2685776  67.2841501  37.8507876  61.1891413  66.4460659
  36.5148926  60.9351301  67.1107817  34.1105033  33.0661471   2.0544555
  33.5069467  32.4385102   2.4519756  34.1627981  33.7821372   2.6875856
  69.5969200  64.9905539  47.1745968  69.4171476  64.5183563  46.3616133
  70.1215601  64.3815470  47.6943064  18.3940232  66.9107628  70.3115654
  17.7851939  67.0037222  71.0443163  18.7867987  66.0465860  70.4346704
  32.0933437  57.4554348  63.9803457  31.7108154  57.0817757  64.7742510
  31.3460565  57.6016951  63.4003448   3.8165356  64.6991761  16.4857319
   3.5227205  63.8471634  16.1632850   3.1143857  65.3024895  16.2423732
  35.6241943  19.9698956  18.9171150  35.3638078  19.8297245  19.8274925
  34.7998954  20.1096423  18.4510353  87.1641009  46.8007500   8.6290195
  87.9811089  46.3140995   8.5199287  86.9981401  46.7819626   9.5715358
  59.4495201  63.9567280  69.5908546  60.3021717  63.5231590  69.6260405
  59.0263319  63.7202454  70.4162169   8.9439084  27.5431235  14.8636463
   9.6545221  27.2339566  14.3017986   8.7063648  28.3967478  14.5015361
  26.6170025  58.7498760  69.3115330  25.8128834  58.3107662  69.5886707
  26.5401173  59.6360016  69.6652269  26.7054416  34.6435530   5.5323627
  26.3978673  35.5447085   5.4346254  26.1889793  34.2914994   6.2573173
  33.2427503  68.6046822  22.8983143  32.9988243  69.4701321  23.2265213
  33.7117912  68.1960804  23.6258247  77.3174572  82.8883934  48.2812548
  76.7419720  82.1957302  48.6056995  77.4131441  83.4868908  49.0221119
  27.5112297  23.0934079  28.6340549  27.0785762  23.3171494  27.8100517
  27.4785282  22.1374352  28.6698845  46.0346937  64.9758244  64.6432114
  46.4464235  64.4405413  63.9648438  45.3928375  65.5072784  64.1722393
  49.9395561  68.6003780  32.3786545  50.3828716  69.4012356  32.6585388
  49.1530561  68.5593510  32.9226780  65.4872605  29.5191740  65.8455753
  65.9118220  30.1711058  66.4032173  66.0942980  28.7791227  65.8374596
  38.3072807  17.3904784  16.8367317  38.4100248  18.2254107  17.2934082
  37.4225046  17.4237092  16.4730098  80.1726123  12.3483538  54.4646215
  80.3420659  11.4423536  54.7228384  80.5949565  12.4368738  53.6102057
   2.0613600  12.1950514  10.8628586   2.8090216  11.6784842  10.5622032
   1.2985589  11.6548188  10.6566742   7.1356850   8.6279749  57.8220558
   6.3263207   8.6548304  57.3117208   6.8457155   8.6691450  58.7333441
  68.5107614  50.7733471  12.5126770  68.8263322  50.2392228  13.2416179
  69.2684461  51.2984021  12.2548797  10.0947150  75.5277395  61.7227650
   9.9713477  76.2232351  61.0767794  10.7848509  74.9770880  61.3530016
  29.4300224  47.4002964  16.0181072  30.0179578  47.0586712  16.6918018
  28.7807323  46.7081101  15.8934429  65.6333162  24.0066559   3.8944318
  64.9154664  24.6278794   4.0168932  66.3202192  24.3148358   4.4855430
  61.0867807  35.3461050  60.8201313  60.5923959  34.5371794  60.6880331
  61.8431875  35.2620291  60.2396059  56.5705110   8.4052165  19.6668270
  57.2896863   8.2826931  19.0471485  56.9645311   8.2487853  20.5250194
  43.7840558  32.8146822  14.5980766  43.6578323  32.0505698  15.1605919
  44.2508460  33.4431155  15.1489093  76.0958290  62.3428965  71.1558914
  76.6935873  62.3615885  70.4085207  75.4477501  61.6764688  70.9276390
  88.8854854  65.4550774   9.9708297  88.8257306  64.5022233   9.9020412
  89.8192494  65.6438477   9.8776558  33.3224012  26.9964344  16.6414478
  34.0773298  26.4815314  16.9263961  32.8996946  27.2720559  17.4548175
  40.9899522  29.8361475   6.4621475  40.5597784  30.3833802   5.8050945
  40.4226829  29.8943503   7.2309425  65.3261328  52.1119642  11.6026855
  64.7782230  52.4399567  10.8896315  66.1454678  51.8581104  11.1778557
  88.6582082  49.8082859   2.6885488  87.8677218  50.2936776   2.9246786
  88.6716717  49.0647252   3.2911804  35.0735141  12.2418721  47.4354294
  35.6324769  12.9974349  47.6168564  35.5956556  11.4869673  47.7069500
  77.2817823  30.4251169  59.7060394  77.7866432  30.2626490  58.9092064
  77.2362062  29.5725130  60.1387262  66.7605257  72.6692009  69.4780731
  66.5068293  72.2893381  68.6368990  66.5188742  72.0049143  70.1234865
  51.5258123  68.1457074  29.5543888  51.9966604  68.9599640  29.3768718
  51.3166620  68.1885178  30.4874828  49.0215446   1.8807299  17.5994423
  49.5247222   1.2672217  18.1348446  49.6797277   2.3358901  17.0742252
  65.5167294  56.7101192  71.0156775  65.4065704  57.6125336  71.3152456
  64.6565723  56.3093805  71.1412477  71.9228145   2.0121359  63.1219625
  72.5041839   2.7608751  62.9891682  71.0705158   2.3115896  62.8055143
  31.9051075  78.1435204  70.6045246  31.0979939  77.9011440  70.1505995
  31.6854382  78.9511871  71.0689163  36.8295765  82.6364803  58.5328913
  37.1834540  83.3319855  57.9785728  36.2913394  83.0949593  59.1781282
   6.5952875  21.9765933  24.8603275   5.8030774  21.7743189  24.3626049
   6.9298769  21.1229737  25.1353004  22.7278066  84.5083714  54.5930099
  22.7921724  84.0189266  55.4130888  22.1289897  85.2286053  54.7903013
  41.9452764  34.5655997  21.9881847  41.6407348  34.5151646  22.8942421
  42.3268129  33.7048848  21.8154838  25.9384681  57.2225316   4.4479015
  25.7077218  56.6690571   3.7018039  26.6085102  56.7252095   4.9168804
  50.6627847  44.6328385  26.6936615  50.1064970  44.0057690  27.1557739
  50.4247190  45.4826958  27.0641925  63.1932926  39.6014428  72.2315216
  64.0050316  40.0658941  72.4354839  62.5801420  39.8809075  72.9113626
  66.8159103  68.2828951  68.1060553  65.9559870  68.5137892  67.7546978
  67.4092674  68.9364147  67.7358198  44.6915674  48.1588840  66.0541487
  44.7156572  48.4173775  65.1328278  44.0480423  47.4510765  66.0875702
  20.8023740  34.0635807   3.8826301  20.1615383  34.3268950   4.5431020
  21.2802984  33.3398993   4.2877367   8.5687761   3.4589743  53.7645483
   7.8162079   4.0452360  53.8431311   8.9044600   3.6171030  52.8821945
  71.6814899  59.2009306  74.1038990  70.9924698  59.2037916  73.4394646
  72.4873447  59.3646812  73.6139822  90.4174730   3.8172697  68.8910103
  91.0891792   3.7038969  68.2185555  89.5999786   3.9041113  68.4007120
  87.3378277  76.3528395  35.0299549  87.7736378  76.8757248  35.7029295
  87.1848106  75.5050230  35.4471183  47.6768017  74.2757273  65.1061487
  48.3083248  74.9612236  64.8881960  47.1824026  74.6315193  65.8445311
  76.0608530  66.6907978  56.8029165  75.5111074  66.9925880  57.5260592
  76.8769836  67.1811056  56.9016981  60.5421829  82.2433949  52.5348043
  59.9321365  82.7082825  53.1074762  61.2165785  82.8903389  52.3276997
  50.1664877  50.0088406  61.0402584  49.2634153  50.0413322  61.3559103
  50.1202011  49.4942379  60.2344847  13.5984259  10.8865236  67.5679064
  14.2372494  10.4810213  66.9816446  12.7489357  10.6069254  67.2267008
   3.2198076   7.5252890  60.5701733   2.3518639   7.9087519  60.6961298
   3.8235025   8.2615828  60.6684542  27.2652389  12.2152693  31.1929920
  27.7299501  12.1132166  30.3624084  26.7956592  11.3891060  31.3077953
  60.8264734  14.6315367  34.5409134  60.0465681  14.1825039  34.8670414
  60.5278589  15.0905545  33.7558296  17.8684713  60.8206780  38.0726936
  18.3116962  60.0474579  38.4218624  18.2942916  61.5584309  38.5093048
   8.5030870  21.0394548  45.0255537   7.6252298  21.1286997  45.3965521
   8.9399748  21.8628382  45.2432966   0.4534321  12.0738768  60.4799032
   1.2021713  11.9210505  61.0563278   0.7918768  12.6513838  59.7956657
  11.1883499  36.5233452  16.8552330  11.2807180  35.8841021  16.1487892
  11.5966560  37.3187573  16.5134075  37.0430955  27.7587961  72.4832106
  36.8900969  27.0405077  73.0971289  36.5032467  28.4763407  72.8147554
  69.2695194  44.2670376   8.1527260  70.0620108  44.3696911   7.6258018
  69.2374342  45.0563080   8.6933258  29.3460922  20.9031462  70.3996801
  29.2840843  20.8903383  71.3547850  30.0431233  20.2793573  70.1965332
  35.3040363  46.9693882  36.2143543  35.0134183  47.8773816  36.2998512
  35.1127054  46.7413170  35.3046158  67.8319169  59.7543271  12.0430401
  67.3512746  60.5771763  11.9528701  67.3712827  59.1435940  11.4676693
  43.8905191  83.1238651  56.9313622  43.9022207  82.3947239  56.3113213
  43.2518530  82.8635883  57.5951338  22.4211960  30.6877016  66.4558506
  22.5637798  30.5900835  65.5143785  22.9109459  31.4755320  66.6918468
  49.9981214  42.2181828   4.0595272  50.3222276  42.6085980   4.8711708
  49.0480520  42.1863778   4.1717460   7.7976109  57.9260952  10.9592655
   7.5458790  58.2485898  11.8246296   7.2943522  58.4635670  10.3476360
  73.1090661  28.8580870  46.9473886  73.7567016  28.9372133  47.6477718
  72.3630878  29.3751024  47.2514486  23.0673362  58.0790646  31.0447147
  23.8988592  57.6790841  31.2993076  23.0589534  58.9226658  31.4969185
  22.8661682   5.4704554   7.4877670  23.4211351   4.9501069   8.0686977
  22.0065547   5.0526555   7.5400856  77.7645275  10.7690310  47.1589613
  78.6615821  10.8015322  46.8266058  77.8271552  11.1100554  48.0511570
  34.8903584  74.4180965  33.9222765  34.9621820  73.9136600  33.1119585
  35.6547737  74.1567087  34.4356751  13.1484013   1.3651728  45.2769899
  13.6999159   0.6264948  45.5347013  12.3024969   1.1874270  45.6881857
  25.6879808  31.3395150  17.5042465  25.3958990  30.7358201  18.1872394
  24.8832656  31.7487986  17.1862056   5.2534132   7.6929449  69.7929239
   6.1578827   7.4831080  69.5602369   5.3304415   8.3378672  70.4960346
  15.5213261  62.1469831  60.4991388  16.0553658  61.9462585  61.2677383
  15.9678352  62.8844500  60.0832033  17.5544338   5.3315710  69.1243935
  18.1790667   5.3138231  68.3993101  18.0678015   5.6289934  69.8755455
  16.0428573  72.2273667  10.4949501  16.3356830  72.1661217   9.5856979
  15.4138280  72.9488595  10.4959133   6.7431574  22.5470137  72.8060389
   6.0948687  23.1663775  73.1412029   6.8148880  21.8816160  73.4903860
  85.5976507  18.5451864  59.7681475  86.1463615  18.8324331  59.0383244
  86.0090610  18.9288591  60.5425978  83.7547112  74.5368242  47.8901529
  83.3292770  74.9119234  48.6612129  83.2163429  73.7781239  47.6648617
  37.4214221  70.6711514   8.7059715  37.9377939  69.9370701   8.3732250
  37.8280546  70.8893712   9.5445850  52.5184223  14.4055056  66.1001301
  53.4439775  14.5283865  66.3110352  52.2450920  13.6662649  66.6433096
   8.2598190  29.0755915  49.1502285   7.7060347  28.4048246  48.7506914
   7.7644329  29.3714499  49.9139595   1.2054663  13.9549421  57.0230103
   1.7136793  14.5001291  56.4224148   0.9703856  13.1842779  56.5062475
  78.1561252   2.5610327  65.0218725  77.3251697   2.1279501  65.2172661
  78.7883684   1.8457674  64.9519205  87.1867439  17.2039198  63.9121103
  87.3467609  17.7853464  64.6554565  86.7553350  16.4396929  64.2943144
  84.8487350  34.5670389  61.9541311  84.0751668  35.0009893  61.5942574
  84.4964858  33.8790201  62.5187397  22.4634342   1.9445490  50.9090137
  21.9458942   2.7483629  50.8615589  22.1986847   1.5375685  51.7339373
   7.5344830  21.1758493  52.9325485   7.2762089  21.7181753  53.6778021
   8.1372480  20.5311178  53.3029890  74.5450926  80.6544781  55.5684948
  73.6982536  80.2562428  55.3672314  75.1771641  79.9452496  55.4514217
  74.1077329  44.7042305  17.7519920  74.2879201  45.2023346  16.9547107
  74.3148710  45.3091652  18.4643009  83.7970802  10.6377768  51.4281416
  83.3531543   9.8614191  51.7693663  84.1946670  11.0441946  52.1981907
  61.9641611  47.6980852  67.0258570  61.2087652  48.1505083  66.6504574
  62.0939084  46.9377111  66.4590979  12.0339422  13.1811308  61.1224413
  12.9845314  13.2900785  61.0950994  11.8188219  12.7466654  60.2970934
  30.2266169  59.7711897  60.3893948  30.2655649  60.6135416  60.8423424
  29.2957377  59.5485973  60.3772497  22.6442318   1.6368937  40.0565767
  23.3840828   1.0565447  39.8775315  22.5624924   2.1714090  39.2667437
  17.3041822  49.2663891  10.3408458  16.5842678  48.8876564   9.8363521
  18.0470706  48.6875374  10.1697376  14.3388252   6.9565558  46.4929771
  14.8223858   7.4360727  45.8203316  13.4407597   6.9219851  46.1635542
  74.2901850  73.7310123  63.3375883  74.9307156  74.4004774  63.0972290
  74.3267441  73.0965757  62.6217794  42.5411130  20.2707274  11.4856079
  42.5984479  21.1170227  11.0420540  43.4470369  20.0538666  11.7058208
   2.5763111  16.1254667  65.7590866   2.0835428  15.4054712  65.3653574
   2.2537546  16.1724829  66.6590738  38.9887620  49.2599804  22.0310905
  39.8964883  49.5435841  22.1398475  38.6920597  49.0607102  22.9190567
  16.1912899   8.0789637  44.4202566  16.7166929   7.3731112  44.0434790
  16.7841940   8.8298868  44.4487381  86.7323467  20.7310461  41.9642210
  86.8986198  21.5703081  41.5350008  86.6972753  20.0980543  41.2470675
  44.2180300  63.7624645  66.7130566  44.0241432  63.0134821  66.1494398
  44.9546719  64.1994572  66.2857103   1.8563633  36.7952131  61.5850592
   1.3189106  37.3424982  62.1576452   1.2239771  36.2967276  61.0675335
  51.9739725  69.2812760   9.6409538  52.5761701  70.0253136   9.6437099
  51.6308404  69.2475445  10.5338981  47.7807428  69.5214493  13.5330036
  46.9733287  69.2756779  13.9845684  48.1752588  70.1890976  14.0941074
   8.1271149  30.1611216   5.0663212   7.5985934  30.1405842   4.2685297
   7.8207900  29.4109900   5.5759361   5.9361820  18.3117651  36.2688208
   6.6607885  18.0026030  35.7251382   5.8526211  17.6500677  36.9554090
  47.3838140   5.6162388  18.3432224  46.5076210   5.9879715  18.2415703
  47.6001932   5.2725060  17.4764660   4.8765640  21.3595175  66.0398149
   5.8210163  21.4640402  66.1551905   4.5927792  20.8747744  66.8148756
  25.5973150  43.7015088  19.2975643  25.2163650  43.9969761  18.4706333
  25.0093986  44.0472348  19.9691703  63.6764193  61.5961361  35.3381228
  63.6793184  60.6718397  35.5869317  64.4157982  61.9745588  35.8138800
  39.1112137  75.6290150  70.6789732  39.2185736  74.7293997  70.9878445
  39.8534775  76.1017323  71.0555601  64.3257570  68.2256603  62.2235060
  64.4186878  69.1490841  61.9892359  64.6312428  68.1764460  63.1293106
  87.6520082  12.5540041  43.7092257  86.8101617  12.7868723  43.3176899
  88.2495233  12.4786543  42.9652309  24.0958263  34.3235285  34.1323974
  24.0427638  34.7732623  34.9757030  23.5289194  34.8328621  33.5532406
  65.9860802  82.9539108  70.2248859  65.6534338  83.2630539  71.0675049
  65.2843189  82.4031639  69.8778296  78.7594434  10.7333540  34.7214627
  79.2299863  11.5174078  35.0044537  79.0697643  10.5766081  33.8296318
  17.5559617  50.3145630   1.0333088  18.4317113  49.9752648   0.8484485
  17.0138265  49.5329125   1.1398628   3.2506208   4.0877031  74.1071606
   3.1983118   3.2638811  74.5917416   2.4992018   4.5946383  74.4147587
  34.7842599  37.6841195  34.0675476  33.9353563  37.2577221  33.9501598
  35.4243041  37.0120604  33.8332298  25.1257496  45.9129213  73.0872059
  25.8013420  45.2406477  72.9986382  25.5115585  46.5645098  73.6727142
   9.0547304  18.7437700  72.9843140   8.6972075  17.9695581  73.4190655
   9.1743164  19.3803953  73.6890411  84.4541736  61.2390376  28.3707547
  84.2781324  62.1672750  28.5244322  84.6431823  61.1829711  27.4340773
  27.9046035  67.1989584  70.8418226  27.1960163  66.5716648  70.6981707
  28.4143972  66.8241024  71.5600348  20.5683446   6.1653274  62.6244020
  21.3449478   5.6306005  62.4595213  20.8004236   7.0330936  62.2937155
  55.8070036  64.8857459  15.1586464  56.6675779  64.9896058  15.5646637
  55.9072300  65.2635964  14.2849090  21.6445804  32.5640917  46.1724138
  20.7180214  32.7969670  46.1133432  22.0959592  33.4018111  46.2759161
  32.0436811  32.4087429  56.1357546  32.8822684  32.3248148  55.6819248
  32.2346187  32.9651833  56.8908358  32.1358871  26.7517757  41.8012524
  32.3546934  26.3892651  42.6597071  32.7386165  27.4871778  41.6911125
  20.3531075  31.1661458  68.2804728  20.5213761  32.1027923  68.3834887
  20.9307766  30.8961105  67.5666046  75.5615207  81.1900481   2.2000911
  74.7201654  80.9273203   1.8268230  76.2089034  80.9068640   1.5543869
  16.2050164   9.0849298  36.1966538  16.7371345   8.4529859  35.7132006
  15.7671142   8.5640150  36.8697977  30.1084413  70.5247434  10.6786468
  29.7932636  70.7932719   9.8156383  31.0508517  70.6901582  10.6515911
  24.1627005  69.4738282  72.4471331  23.7630633  69.8494793  71.6626501
  25.0832347  69.7306515  72.3934126  55.7222223  22.2774768  68.7416935
  55.0790787  21.8362498  69.2965984  55.5445576  21.9480658  67.8606987
  31.1284947  15.2564514  34.0623689  31.7966890  15.8625710  33.7424183
  31.1667538  14.5162821  33.4566331   7.9625303   3.7247244  41.2228823
   7.4256128   3.0110881  40.8783913   7.3610419   4.4663441  41.2895441
  58.5057239  83.6018750  56.6958237  57.9845728  83.3386276  55.9373140
  58.1632466  83.0734930  57.4167633  86.1739106  63.6024071  43.3159781
  85.9321899  64.1726590  44.0457821  85.3750486  63.5302402  42.7936316
   9.7436314  79.9723442  19.1132095   9.3356209  79.5458253  19.8667553
   9.8961620  80.8724197  19.4010093  83.3180041  82.1902029  35.4253864
  82.5310821  81.6920055  35.6462550  83.2061524  82.4178694  34.5024085
   5.3036976  10.4156470  67.5904655   5.4827702  10.8601952  66.7618847
   4.3485349  10.3933489  67.6487637  32.0262599  31.3016462  51.9220114
  32.6625323  31.7899060  51.3995266  31.8049002  30.5428505  51.3821459
  51.7038774   5.0581259  55.8069992  51.8214941   4.6074602  54.9707603
  50.9608126   5.6436181  55.6611109  17.5506866   4.4243371  32.2354245
  18.0345476   3.8076764  31.6860247  17.8170311   4.2088085  33.1292033
  13.9327220  74.2291499  68.4972906  14.6823529  74.2873205  69.0896606
  13.7403611  75.1374663  68.2645035   2.1749357  80.5125690  40.0714874
   1.4327053  80.5606545  40.6739950   2.8526214  80.0483281  40.5628681
  24.8297119  37.5365639  22.6154423  25.7621861  37.3577929  22.4939322
  24.7939205  38.1139421  23.3780622  15.4529738  28.0364704  72.3900032
  14.6870410  28.4937334  72.7371168  15.7694948  27.5087237  73.1231689
  68.3196497  25.2978683  51.7699194  67.6613998  25.3857756  51.0805702
  67.8719330  25.5831814  52.5663996  86.0533400  81.7057664  71.8876791
  86.7993040  81.5412200  72.4644756  86.3574810  81.4380101  71.0204792
  51.0335970  34.1240788  58.9899540  51.8166876  33.5778618  59.0580988
  50.3079033  33.5003710  58.9656878  32.7026415  13.8134801  41.4267397
  32.5852394  13.4540927  40.5473709  33.6030793  14.1381025  41.4345646
  76.6586287  65.2199079  48.8974905  76.1157639  65.9706117  48.6567163
  77.5538070  65.5011989  48.7083817  23.0729651  15.0453639  70.3676605
  22.8570485  14.8402739  71.2773561  22.2432184  15.3266251  69.9821138
  27.7161789   8.5560113  67.4289465  28.3181906   8.6426556  68.1680727
  27.0502186   7.9395664  67.7334499  49.3943175  67.6241501   2.4302795
  49.5810028  68.3641084   1.8524912  48.7758967  67.0851835   1.9370201
  90.9150487   8.4654230  65.7791376  91.1271095   9.0215188  66.5288162
  90.4019219   7.7478886  66.1507273  82.2311530  10.5016387  72.1307373
  81.7035649  11.1789560  71.7075062  81.6458569   9.7468978  72.1941948
  70.8507701  85.6292590   0.7684400  69.9041602  85.7560309   0.8323982
  71.0718557  85.9183463  -0.1168749  35.3516635  84.4790705   0.5850532
  35.4510358  84.7221383   1.5055301  34.5067825  84.8492964   0.3294351
  53.5348197  44.1148799   5.5329111  54.0005299  44.4496960   6.2992313
  52.6109835  44.1463157   5.7814434  17.4098185  81.7621596  30.4951239
  17.7310208  82.4487550  31.0796309  18.1731967  81.5157325  29.9728656
  25.0477910  10.8029830  43.4929657  24.7072315   9.9545163  43.7764359
  24.5089674  11.0369706  42.7372217   9.1276127  25.1802039  53.1776524
   8.4115469  25.2319837  52.5445652   9.4682080  26.0733628  53.2275963
  45.5793185  77.3407693  64.7885466  46.2213023  77.0948256  64.1225147
  46.0336394  77.9834099  65.3333759   2.8798085   9.6617883  27.4459004
   3.6704603   9.8628122  27.9465890   3.0882370   8.8490593  26.9851828
  12.9825958  38.7987377   1.1115434  12.4494192  38.0815991   0.7685163
  12.8526982  39.5132615   0.4879930  21.4398268  78.9933021  61.2847805
  22.0900324  78.6739869  60.6590796  21.1302928  78.2054181  61.7316151
   5.3978109  12.3041844  65.5964899   5.4222167  13.0793321  65.0354338
   4.4666830  12.0991838  65.6813812   0.5857233  80.2839012  42.4727488
   0.1828006  79.6027089  43.0111361   1.3734773  80.5355019  42.9547977
  87.3115060   2.3297371  47.4608946  86.9588260   1.5647334  47.0063448
  88.1985534   2.0716265  47.7114105  10.6550467  20.5952406  56.8301487
  10.1293588  21.3905573  56.9159126  10.1771367  19.9367201  57.3343134
  31.2270641   2.3487410  46.5825701  31.4994192   1.4325780  46.6345263
  31.4555860   2.6164359  45.6924295  85.2090163  73.7259901  12.9955542
  84.6105428  73.8167072  13.7370622  86.0802503  73.7088562  13.3916426
  72.8200276  66.6748215  57.4521732  72.9039211  66.0600770  58.1810665
  72.2476668  66.2291671  56.8276548  70.5374881  39.7521948   8.9986923
  70.7797500  40.6782236   9.0021160  69.7924253  39.7017508   8.3998897
  30.3776578  71.4397551  41.0241461  31.1600093  71.5933419  40.4944611
  30.4935149  70.5554284  41.3716745  77.1875794  73.0191196  43.5034132
  77.5954850  73.4038509  44.2791843  77.2766573  73.6912394  42.8277254
  80.4313175  11.3015270  42.2186470  80.6853751  10.9339142  41.3721561
  79.8388223  12.0206237  41.9993687  30.3197503  22.4945712  53.5810328
  31.0919309  23.0280232  53.3928919  30.5981827  21.9105697  54.2864752
  57.3286127  47.9159274  71.8794170  58.2785390  47.8081049  71.9267786
  57.1964501  48.5811375  71.2039468  12.7210915  26.5737176  46.8093300
  12.8282964  27.2542357  46.1447763  12.5902653  25.7684779  46.3086271
  76.2211192  61.7096849   8.8642242  76.1031306  60.7906218   8.6241558
  76.8350280  61.6885706   9.5983150  82.2217230  17.9452598  50.5569983
  82.4668673  18.6032653  51.2075090  82.9660151  17.9137623  49.9559402
  77.7975340  69.1095687  33.2646585  78.0665798  68.2089616  33.4456372
  78.0025370  69.5869292  34.0686083  12.8150395  68.5182608  33.2992959
  13.5217837  67.8995157  33.4834218  13.2629994  69.3216301  33.0344129
   3.5602599   3.0087918  43.2519102   2.6805204   2.7918497  43.5605001
   4.1422415   2.4750903  43.7929201  18.4089792  19.7264767  42.6990509
  17.6661420  20.2729797  42.4426174  19.1559303  20.3250265  42.7049208
  51.4637944  10.6750353  11.9420555  50.8021184  10.1875456  12.4327400
  51.8972465  11.2189563  12.5996998   9.5416462  33.9655113  27.2584295
   9.1195756  34.6156621  26.6968298  10.0394189  34.4828820  27.8915024
   9.0241504  12.7819967  64.7902346   8.9296198  12.3847067  65.6559467
   9.9610573  12.7264392  64.6022224  23.7016487  35.4035735  54.3804407
  23.5279083  36.3184261  54.1588783  24.4470811  35.4396987  54.9798203
  54.3928405  66.0684880   0.2463463  55.2274915  66.3519748  -0.1267836
  53.7556263  66.7022475  -0.0831101  78.3058691  12.0885658  26.7676926
  77.8065920  12.5342464  27.4520350  77.9926395  12.4772990  25.9509897
  27.7708316  17.4209356  33.5019684  26.8308663  17.4009144  33.6816835
  28.1705642  17.6460075  34.3420792  75.2431257  85.1169010  49.3228579
  74.8874111  85.9993617  49.2181587  75.3856320  85.0263340  50.2650499
  76.5852813  28.5381866  71.2697935  75.9555034  27.9150295  71.6321278
  76.0944799  29.0114760  70.5979729   3.6814597   0.9894328  50.7400846
   4.5917559   1.2153888  50.9312344   3.7401789   0.2714746  50.1097536
   2.5443390   9.5454478  66.5560246   1.7694005   9.4727170  67.1131706
   2.6433989   8.6757016  66.1687803  14.7224263  54.2176581  42.9871321
  15.1255969  53.3645702  43.1481409  14.8486832  54.7002603  43.8040686
   7.3938173  22.0535469  55.3300905   8.0615193  21.8281603  55.9778595
   6.6074157  22.2275662  55.8473158  20.1160502  21.8296361  45.4998589
  20.5840492  21.7876005  44.6659279  20.4518986  22.6195884  45.9234333
   5.8967227  20.6820869  38.1428146   6.6435409  21.2807083  38.1307316
   5.9799916  20.1788712  37.3328328  12.7307224  20.0024509  52.5076532
  12.8590941  20.4312181  51.6615391  12.8902531  19.0749741  52.3328161
  31.9921970   7.5757235  37.9254651  32.7486038   8.0560249  38.2621980
  31.3652110   7.5787407  38.6487269  55.1585222  74.8244465  39.7929406
  54.7208430  74.9533249  40.6344032  54.4992824  75.0626541  39.1411042
  31.2342186  74.4636227  60.3521824  31.1758394  73.5652472  60.6773615
  31.9580812  74.4451762  59.7261524  21.0677552  26.3339972  40.7177925
  21.6201258  27.0643830  40.4391241  21.2945795  25.6208515  40.1209641
  12.4698905  80.0999839  46.7298746  12.9554919  79.6243555  47.4038219
  12.8690365  79.8215712  45.9056139  70.1264902  53.2230004   7.7624157
  70.4067108  52.4332305   7.2998455  70.9406825  53.6843975   7.9634979
   0.4138703  16.7741311  40.4057837   0.2477220  16.9343567  41.3347387
  -0.2854205  17.2452033  39.9526668   4.2466784   6.1629367  30.7662821
   3.7360030   5.7589120  30.0647092   5.0213712   5.6068993  30.8493781
  78.9607234  83.5452242  44.2016411  78.3310766  82.8263948  44.1463089
  79.7964520  83.1177128  44.3887806  88.1253046   1.4691521  16.8322468
  88.4147835   1.6232812  15.9329820  88.9346958   1.4370406  17.3422337
  37.2263670  35.1356626  70.7263803  36.9810843  35.9162188  70.2295876
  37.9600692  34.7618818  70.2383232  22.4233818  42.7929163  34.9216580
  22.2574806  41.9470549  34.5054555  22.9796791  43.2611513  34.2991471
  69.4977267  85.9153153  59.8343801  69.4290723  84.9703396  59.9705362
  70.2754737  86.0225205  59.2867947  84.8088760  77.8071339  59.0076256
  85.1072521  78.6344958  58.6299038  84.4794102  78.0445726  59.8744059
  55.0639486   8.6704713  54.6133232  54.5092916   8.1527764  55.1969147
  55.9143448   8.2318771  54.6396446  69.9431206  70.9462167  59.5252323
  70.2895642  71.1813582  60.3859949  69.7077371  71.7832435  59.1249657
  84.8150364  28.5212088  68.2934856  85.7421616  28.3330011  68.4392548
  84.7090057  28.4808779  67.3430300  25.5456748  32.7287134  12.2270324
  25.0334563  33.5238816  12.0801571  25.2156421  32.1078380  11.5775516
  80.6238099  81.4802702  36.6306141  80.2352115  80.8070072  36.0721042
  80.6900331  81.0680302  37.4919536  13.4948552  29.5785546  25.5534172
  13.2033932  29.0573835  24.8053098  14.3795276  29.2618394  25.7358432
  40.3237959  41.1233587  15.3543403  40.3332904  40.2439000  14.9765899
  41.1342236  41.5265054  15.0430324  35.3748918   1.9280098  39.3056250
  35.5216861   2.8481835  39.0866184  35.5630159   1.4558062  38.4945369
  50.4293748  64.5330413  31.3675811  50.0033292  65.2326091  30.8722809
  51.3489386  64.7953995  31.4100292  33.4684750  40.7335486   4.4532993
  34.3057426  41.1214057   4.7078207  33.5717168  39.7996484   4.6360662
   6.5638474  71.5242208  10.5627596   6.3722566  70.5902935  10.6482315
   6.4286307  71.8778969  11.4418852  64.0525338  44.8809475   9.2340305
  64.2243573  44.8042198  10.1725509  63.2263395  44.4156983   9.1029766
  38.2038530  49.2591896   9.4717529  37.4412199  49.6312078   9.0287807
  37.8502914  48.5378101   9.9921730  62.0903560  69.1706212   9.6388557
  61.7093560  68.3972295  10.0547149  62.9659983  68.8917144   9.3711021
  26.1503247  81.5610967  67.8591490  26.6626242  82.3495350  68.0384350
  25.6035069  81.7960925  67.1094799  22.9339004  18.3724058  47.0561695
  22.4351382  19.1578019  46.8311787  23.0625701  18.4333646  48.0027199
  64.3498608  59.3348094  26.4391449  63.7058112  59.2904814  25.7324150
  64.1014525  60.1109715  26.9412449  73.6145110  78.1147022  58.1145430
  74.3237109  78.2271148  58.7474966  73.9842207  77.5461210  57.4390697
  36.3691306  16.2682307  63.8450193  36.2670159  15.7754350  63.0308008
  35.5803585  16.0657299  64.3480778  14.6038270  11.4057088  31.1208534
  13.7104106  11.6686428  31.3419986  15.1599431  11.9892037  31.6370893
  13.9838362   3.2695732  69.9743557  13.9425230   2.3926727  70.3558922
  14.7745490   3.6570615  70.3496647  72.4531145  58.9349628  52.2293139
  71.9989080  58.2744289  51.7062283  73.0350215  58.4312321  52.7984142
  80.1699204  81.3489629   9.4102776  79.4894309  81.6325049  10.0208259
  80.5525536  80.5737687   9.8212481   3.0567435  78.1332381  30.8987975
   2.3668865  77.5723935  30.5441380   3.7137631  78.1733204  30.2038503
  19.5417574  74.4768167  28.1125665  19.1534737  75.3295542  28.3082867
  20.2026728  74.3525637  28.7937284  34.6864733  25.8051666   8.5116890
  34.3879613  25.0198706   8.0529621  34.5173135  25.6216105   9.4357708
  75.5651208  59.3870266  12.4016311  75.8212444  60.1757964  11.9236400
  75.2298805  59.7116776  13.2373645  55.5971214  27.7722450  16.0286262
  55.1815936  28.0391999  15.2086761  54.8662254  27.5793644  16.6158321
  72.6947493  67.6107813  37.0669913  73.5646422  67.8268982  36.7311192
  72.1929247  68.4201814  36.9706798  18.6598444  12.4273074  43.1641245
  17.7345800  12.1835101  43.1901979  19.0396583  11.8549168  42.4975348
  48.2659721  10.8613455  64.7041130  48.6664724  11.7299962  64.6683836
  47.5510216  10.9529614  65.3339434  11.1867750   3.3337826  54.2127371
  10.2498174   3.5295290  54.2176914  11.3415873   2.8825793  55.0426054
  65.3226158  61.8630823  14.4510772  64.5324060  62.4016651  14.4926765
  64.9980089  60.9700974  14.3351581  50.9938860  27.7496910  69.0465546
  50.3914785  27.1021342  68.6804867  50.4393482  28.5013008  69.2558336
  78.8087900  78.3910728  37.6587629  79.6854384  78.1812687  37.9807901
  78.4485085  77.5494517  37.3792934   6.8351965  74.8543175  11.2158706
   5.9316092  74.5682939  11.3498714   7.0788317  74.4879278  10.3657940
   3.8189057  81.4758746  63.6346054   4.3871883  80.8256067  63.2217646
   4.4205907  82.1370328  63.9767694   2.5295404  49.8249627  35.5185318
   2.7043537  49.5964910  34.6055841   2.7916530  50.7427860  35.5901527
  68.1477758  62.8333708   8.7529590  68.6337110  62.3309239   8.0990150
  68.8241359  63.2714852   9.2695072  24.0266895  27.4564433  53.5990095
  24.1368484  26.7915010  54.2786741  24.6497273  28.1442142  53.8335848
  78.8427326  77.4802955   9.4710281  78.7005016  76.5357026   9.5322445
  78.8926431  77.7744373  10.3805473   3.8458613  60.5454160  64.3974733
   4.0438369  59.7673131  64.9186182   2.8963569  60.6448246  64.4666815
  70.9535665  61.1810709  71.2687874  70.7172556  61.7222310  72.0221376
  70.7537545  60.2864576  71.5444231  23.5334995  25.5342182  15.6583812
  24.1791930  25.2105339  16.2865093  23.3607104  24.7868212  15.0858619
  16.0696030  46.6901302  16.4314198  15.2937949  47.1840096  16.1660242
  15.8082759  45.7727289  16.3519657  76.4253780  61.2040027  19.6445587
  77.1121570  61.5952607  20.1844528  75.9865543  60.5842312  20.2272632
  31.9578815  17.0939398  66.4616013  31.9205499  17.2674596  67.4022007
  31.2728167  16.4426446  66.3108253  76.7562982  80.1783904  22.6192787
  77.5618431  79.7572025  22.3194053  76.1200401  79.9986418  21.9271019
  18.9517335  73.7013174  35.0060439  19.7949341  73.5330559  35.4266810
  18.3980254  72.9695023  35.2782249  83.1587982  18.0121088  65.3612566
  83.8931656  18.3832812  64.8722124  83.0345631  18.6106861  66.0978079
  87.1988506  51.1295534  61.1653900  86.5332742  51.7761279  60.9304905
  87.9019589  51.6431833  61.5629530  68.5060310  16.8873286  54.7530937
  68.5649586  17.8132808  54.5177794  69.3912840  16.6545439  55.0330448
  84.4741936  62.8220249  34.8907161  85.0529094  63.4981657  35.2430701
  83.7206955  62.8202511  35.4810286  74.1549035  44.1976002  31.9967201
  74.0524455  45.1452388  31.9088772  75.0022670  44.0872652  32.4280288
   9.3675355  52.5501228  31.4056158   8.6152199  53.0939365  31.1721230
   9.3618849  52.5316287  32.3626208  81.7506905  67.2929646  56.4190531
  81.8016930  67.7309776  55.5694818  82.1463222  66.4342082  56.2699127
  11.0877637  71.0323645  49.9803114  11.9138125  70.9144736  50.4493237
  10.4256610  71.0810436  50.6698608  79.9784632  76.0165072  63.0868578
  80.4506500  75.2673961  63.4503174  80.3971226  76.7796505  63.4850645
  26.9480777  23.8030386  50.4968405  26.9066501  23.5461211  51.4179850
  27.8829646  23.9049864  50.3184366  81.1775846  78.4913064  39.3500495
  81.7603917  77.9746206  38.7936282  81.7401476  78.8089604  40.0563431
  54.7964191  23.8648129  56.1869049  55.4027271  23.1270790  56.2530136
  55.2599669  24.5085406  55.6512117  50.7623870  72.9562212  67.1827078
  50.7106788  73.6613525  66.5374613  51.5648020  73.1376935  67.6720238
   4.3254491  78.9981922   6.5651539   4.8232862  78.4999426   7.2133281
   4.8036786  78.8703760   5.7458904  27.5563788  17.4382138  51.3040733
  28.1028581  18.2099307  51.4525414  27.4663806  17.3879480  50.3524399
  31.7725492   3.1697872  32.5448513  32.6164889   3.0467877  32.1102619
  31.9705200   3.0939895  33.4782839   9.0173060   6.5061486  44.4969273
   9.7831351   6.4718336  45.0701284   9.1386944   5.7751417  43.8910151
  40.6344557   9.0918851  15.5368602  41.5465736   9.3284833  15.3686488
  40.4420853   9.4734585  16.3933802  33.0549341  40.5512185  24.8063114
  32.9729026  41.4877619  24.9862793  32.8241933  40.1273634  25.6329467
  55.0159086  83.7951119  47.4628210  54.5012422  83.3608312  46.7825651
  55.5206795  83.0899940  47.8680944  50.7170374  50.2866412  71.9111156
  50.4647191  49.4275571  71.5726757  51.5929968  50.1535321  72.2733402
  18.8320887  27.8873730  68.7200165  18.3300030  28.6986160  68.6423969
  18.7877357  27.4939370  67.8485394  38.6920094  12.0467329  45.4165459
  38.0827808  12.4437737  44.7941065  39.5287538  12.4768710  45.2402639
   9.2482626  30.1709199  55.9258413   9.1785294  30.9199524  55.3339624
   8.6199272  29.5354152  55.5829716  13.5249880  82.1544326  54.7299385
  13.4748295  83.1089238  54.6783400  13.9864329  81.8953709  53.9323235
  44.8480463   1.5157096  52.4507809  44.7685051   2.3594287  52.8958035
  44.2053461   0.9545401  52.8846645  17.4081096  14.6362456   9.1329982
  17.0967695  15.0225552   9.9515655  16.7543146  13.9709171   8.9182403
  86.7237360   4.7108364  19.7538173  87.4365333   4.0730959  19.7917438
  86.5745083   4.8479012  18.8183093  32.8034711  19.9133229  69.0447187
  33.4899616  19.2466474  69.0671539  33.2065010  20.6855726  69.4414949
   5.7199931  71.0707998  67.7831364   6.3419694  70.6811428  68.3975840
   4.8603591  70.8735180  68.1550789   4.9299017  23.4407902  29.2281628
   4.2071104  22.8618121  28.9861083   4.5786762  24.3236589  29.1123343
  48.0438193  73.8551196   2.3279646  47.9669889  73.0672844   2.8661516
  47.4960622  74.5026549   2.7716901  46.6503390  83.9620598   4.0949133
  47.1354064  83.4836300   3.4225681  46.2556585  84.6981629   3.6273506
  16.4567482  20.1171875  51.5453005  16.4862454  19.8679125  50.6216002
  17.3746896  20.2282882  51.7928314  34.6703291  19.7987413  65.8093166
  34.2545676  18.9410746  65.7211161  34.4261241  20.2665567  65.0107288
  60.2127457  11.1435175  53.0041599  60.3902388  11.0761666  53.9423466
  61.0720253  11.0583138  52.5911093  86.7764331  55.5511570  59.1678858
  86.7424328  55.9847498  58.3152008  86.0012952  54.9897432  59.1821814
  21.6407943  73.7968922  63.5621405  22.2185040  73.4003496  62.9100370
  21.9426370  73.4406567  64.3977356   0.4280382  29.8198652  57.6899672
   0.4540133  30.4257822  58.4305191   0.0257592  30.3235674  56.9823742
  16.7239821  35.7843995  35.9059739  15.9407711  35.3959274  36.2957215
  17.4228621  35.5930114  36.5314102   3.4918541  53.9988327  44.6712732
   4.1831338  53.8038158  44.0385532   3.1833380  54.8715591  44.4275522
  69.2249502  76.3433916  59.9396610  68.3766849  76.7204149  59.7061443
  69.7320784  77.0832587  60.2737999  61.2283703  75.6780227   8.0515697
  62.0811125  76.0465964   8.2822540  60.8869263  76.2670692   7.3787620
  47.0306155  55.8221587   8.9893844  47.4010571  55.0947460   8.4895065
  46.7162689  56.4344104   8.3241298  23.9899472  78.9083547  27.6991391
  23.2914189  78.4947521  27.1919680  24.7694234  78.8184840  27.1508908
  20.0448442   5.8691251  37.6274538  19.1404510   6.1341429  37.7949953
  20.0379944   4.9172261  37.7278185  46.5633535  32.7171063  65.6577110
  47.4547482  32.5126243  65.9402609  46.1245680  33.0225801  66.4516783
  14.2035747  15.2703357  49.7417593  13.9603937  16.1100531  49.3519258
  13.3778930  14.9065840  50.0613928  55.9340191  11.2809777  54.4641209
  56.0643387  11.2014735  53.5191727  55.4775620  10.4767978  54.7114515
  47.3156929   9.8508477  53.5568476  48.1242085  10.0771618  53.0971622
  47.5915813   9.2396957  54.2399406   2.0133837   8.3348995  73.3451700
   2.8270084   8.0850595  73.7831497   2.0847461   9.2824197  73.2296515
  57.1829176  24.8354650  58.0748892  56.7548275  25.6623030  58.2969475
  57.3727083  24.9076676  57.1394777  39.7076941   9.7539014  41.4406300
  40.2012873  10.5083108  41.7622900  39.0174842   9.6242720  42.0910406
  34.1282252  75.8891428  37.9910326  34.8514584  75.2636362  37.9473662
  33.8026551  75.9419561  37.0924520  20.7745624  44.1033649  37.3336840
  21.2289476  43.7988853  36.5481544  20.4109025  44.9533606  37.0857143
  16.4155914   3.1933911  12.3196247  16.1082126   3.3569224  11.4279964
  17.3267414   2.9203112  12.2125652   3.2176459  20.6333160  54.9686337
   2.6062125  21.1051035  54.4031239   3.8678989  20.2697158  54.3676329
  78.0767604  55.3761741   5.0678041  77.5292608  56.1222251   4.8230865
  77.7271530  55.0890048   5.9113338   4.1914011   5.4209836  23.1290367
   3.4033944   5.1070340  22.6855114   4.3118526   6.3121588  22.8011253
  46.7494294  62.4781331  13.3887127  46.6545483  61.6714807  13.8952091
  47.6551803  62.4616905  13.0795601  18.8443196  34.0793824  50.9700155
  18.3734727  34.8262239  50.6001997  18.1646585  33.4261489  51.1360836
  27.1791792  42.3634958  62.6936483  27.0938587  43.2301903  63.0908823
  26.5011573  42.3417377  62.0183372  19.3562722  11.1566257  69.9507332
  19.7363985  10.2839518  70.0516129  19.1257465  11.4218450  70.8410978
  45.4088315  56.0705443   5.2637794  44.8498842  55.3822871   5.6244877
  45.3286013  56.7943653   5.8849743  85.1447634  54.2115784  49.7163057
  85.4142956  53.2992029  49.6107101  85.7643346  54.7077990  49.1813898
  41.4821386  17.5937104  23.5660958  41.8339682  17.1907341  22.7723336
  41.8754292  18.4661472  23.5863304  37.8241634  24.2348504  44.5498848
  37.0036149  24.5950222  44.8863411  37.6752877  24.1377759  43.6093283
   9.1278517  51.6123390  51.2898111   9.4725609  50.9820032  51.9223356
   8.4769648  52.1133280  51.7813301  47.8534985  19.7878659  70.5979395
  48.6509037  19.3193185  70.8445978  47.9370975  19.9224901  69.6539450
  21.5140724  46.0894108  52.6949024  20.6289577  45.7403469  52.7995872
  21.8232656  45.7148123  51.8700933  72.7989265  49.2293229   2.4110677
  72.0197078  49.7747709   2.3036459  72.5616666  48.3916982   2.0131710
  47.5567171  44.7319453   2.0627287  48.4412297  44.5341525   1.7549207
  47.0450624  44.8487215   1.2622240   4.8786191  81.5473605  66.3710642
   4.0472225  81.1013607  66.5326118   5.5329064  80.8489777  66.3910770
  70.6474773  64.3828154  52.9271555  71.4877132  64.0290308  52.6354837
  69.9941293  63.8807678  52.4400091  48.7046513  63.9247306   1.4768675
  49.4108519  63.6462410   2.0599249  49.1229566  64.5329746   0.8675316
  33.3242083  16.6990387  33.2941222  33.1944942  17.0787513  32.4250865
  34.2676902  16.5479493  33.3510900  28.8461304  14.4003928  39.5250630
  28.8842845  14.5342708  38.5780382  28.0528831  13.8824689  39.6619725
   8.4606379  36.4285636  66.3200426   8.0764836  36.0484982  65.5299759
   7.7231836  36.5243387  66.9227219  38.0969467  48.7757864  16.7232731
  38.1171640  48.7411352  17.6796367  37.1704521  48.6866411  16.4999130
  32.5635610  76.4233669   4.4344738  33.5133138  76.4769157   4.3280103
  32.2471076  77.2969039   4.2042091  10.5530226  34.3419814  51.0259676
  10.2166462  34.9795985  50.3962612  10.2378356  33.4976530  50.7034731
  53.4839937  34.6299281  10.8075359  53.7639853  34.4472398  11.7044475
  54.2353889  34.3850293  10.2674797  15.7263710  12.0829947   5.8354690
  15.9490301  12.8870184   6.3047340  16.5698959  11.6642554   5.6641414
  24.1859412  52.4716568  57.9835749  24.2046404  52.0909357  58.8615990
  23.2663512  52.4253416  57.7219629  59.3066883   7.2569025  36.7978239
  60.2448082   7.4381363  36.7402124  59.0271664   7.6944309  37.6019812
  50.2486372  21.6679597  16.2918115  50.9080172  22.2272897  15.8812022
  50.3514671  21.8257999  17.2302926  63.2114765  58.6765381  22.1930339
  63.7742683  59.4306775  22.3684433  62.8597328  58.8386413  21.3176849
  59.0068817  28.7654352  57.1702051  59.6980619  28.2222915  57.5490189
  58.8685894  28.4016323  56.2957001   8.6889243  69.9035072  63.6678982
   7.7557045  70.0686169  63.5334682   9.0980649  70.1527834  62.8392267
  27.9407549   0.8467153  38.7808490  28.6352682   1.4184539  38.4537435
  27.7045560   0.3027664  38.0294776  57.6988503  71.9327577  20.3001621
  57.3593565  72.7768668  20.5975845  57.7024051  71.3858088  21.0857036
  40.2310514  17.7384388  41.8340492  40.0095224  18.4984422  41.2959528
  40.3333139  17.0225644  41.2069178  38.8913965  30.9794354  43.0765152
  39.7970676  31.2857270  43.0298996  38.7315369  30.8458090  44.0107679
   9.9169248  26.4436650  47.1720362  10.7361460  26.8875074  47.3913813
   9.7851753  26.6297412  46.2423849  79.0517358   2.4752869  61.7750502
  79.8017696   3.0699554  61.7680311  79.2970029   1.7877182  62.3941803
  25.8928776  38.1172442  73.0675888  25.7656336  37.7613330  72.1881771
  25.8036017  39.0639567  72.9580545  48.4133271  80.0423909  52.0958662
  47.8065947  79.9753601  52.8331661  48.8995818  79.2180187  52.1101141
  25.2450776  24.0038276  39.6238422  25.4649329  24.9351001  39.6488619
  25.1353836  23.7588596  40.5426407  71.9630309  68.6194762   6.5484836
  72.4345752  67.9200967   7.0009735  72.4932596  69.4020828   6.6988781
  22.4896550   6.2447113  36.2585711  21.7716980   6.2577420  36.8915009
  22.9523587   7.0698917  36.4042234  32.6234531   2.9824501  58.7402105
  32.0323515   3.5720804  59.2083645  32.9304314   2.3703432  59.4090271
  27.0354223   0.6881909  54.3848753  27.0148849   1.5493384  53.9674616
  26.1236906   0.5132445  54.6180487  39.4968128   5.2734113  51.0582924
  39.3070269   5.6707233  50.2083778  40.3799534   4.9164858  50.9639835
  32.8698039  25.0812602  43.9164639  32.3976302  25.0920796  44.7490311
  33.0765271  24.1581440  43.7703323  46.6371163  76.0029157  42.5165584
  47.3688098  76.6153034  42.4401500  46.3029703  75.9163912  41.6237571
   4.8885900  33.3852792  52.4037886   5.3942692  32.8712320  53.0332947
   3.9936915  33.0567670  52.4902058  19.2153955  43.0331993  66.1463547
  19.6718538  43.2343721  66.9633007  19.1286087  42.0799446  66.1489534
  31.0972381  21.2380981  32.6898432  30.6892276  20.4453278  32.3415995
  31.3774014  20.9954262  33.5723686  19.9873662  41.5712881  53.6005163
  20.6269026  41.0906839  54.1261053  19.1987216  41.5916920  54.1426039
  35.4885459  30.5332971  45.4032803  36.0452628  30.9630775  46.0525751
  34.6341896  30.4631305  45.8291721  58.3520028  32.8477534  15.8067062
  58.0199596  31.9539615  15.8910492  59.0367814  32.9126807  16.4723613
  51.1368581  81.7573651   9.1053417  51.8891474  82.0437392   9.6233013
  50.6775757  82.5669821   8.8821628   7.4607253  18.2286656  28.8468766
   6.9563931  17.5477505  29.2921138   8.1790942  17.7573717  28.4249067
  49.8535156   9.2381448  29.4126987  48.9132023   9.4078392  29.3557096
  50.2253914   9.6942568  28.6577821  73.6815521  63.7896498   4.9200752
  73.4609481  64.6694954   4.6143987  73.9709493  63.9155968   5.8237484
  32.8297612  81.5762313  15.2979400  32.5599551  81.0633548  14.5361068
  32.4141198  82.4292096  15.1718452  13.4220111  36.6794062  25.5533743
  12.4943125  36.7507839  25.7781219  13.6121798  35.7433510  25.6155396
  35.1517868  19.8174191  49.7417355  34.3725276  20.2233052  50.1215315
  34.8249221  19.0268719  49.3122864   7.6915532  57.2271395  66.2957478
   7.0948261  56.7472363  65.7214308   8.5559583  57.0965958  65.9058809
  54.0221211  76.2555417   7.7904346  53.3279511  76.3819440   7.1436145
  54.6420285  76.9642313   7.6180866  67.6002976  64.3892153   0.8428791
  67.2800800  64.7868474   0.0332000  68.4823176  64.7447546   0.9518078
  29.7658348   7.2822142  45.1494789  29.4021845   7.4383891  46.0210276
  29.4102359   7.9894447  44.6113300  43.6987981  82.7014717  25.9876659
  44.4312533  82.4383386  25.4304435  42.9311224  82.3019060  25.5787018
  23.9159441  26.8827939  40.7121325  23.6058164  27.3515224  41.4869499
  24.8134971  26.6300726  40.9283781   5.4807660  64.6842345  11.8438080
   6.0076949  65.4418524  12.0979622   5.7260462  64.5162567  10.9339454
  81.8639705  51.5687895  20.9982729  81.8111465  50.9825516  20.2434492
  82.5548092  52.1909428  20.7704544  28.1621623  42.7220297  29.0669441
  27.2890019  43.0849791  28.9183116  28.7528729  43.4675455  28.9597178
  89.2955610  73.4691080   5.3364351  88.9999648  73.0142268   4.5478037
  88.5344860  73.4613307   5.9168937  89.0459175  79.1289646   6.0759050
  89.9011035  79.4809128   5.8288789  89.2026658  78.1951703   6.2162244
  15.4885077  11.7876005  25.0773764  15.8500099  11.1289346  25.6704259
  15.3544343  12.5584972  25.6287146   3.4129074  17.0383418  53.8779640
   3.6370844  17.8657472  54.3038464   4.1407257  16.8724656  53.2787991
  12.0621085  24.7497749  18.6181998  12.2795093  24.1272259  17.9243696
  12.4007237  24.3458104  19.4171894  23.6937618  17.1497679  60.1662874
  24.2286134  17.6571834  59.5557976  23.7988734  17.5972879  61.0058737
  36.4422536  30.6242061  61.1243486  35.7539511  30.7743335  61.7723703
  36.1363173  29.8701715  60.6202984  55.1964944  14.3753273  17.8871753
  54.6785837  13.5778029  17.9965236  54.8775827  14.7578032  17.0697143
  75.6929943  59.5756777  21.5609005  75.8120271  58.8174244  20.9889534
  74.7647687  59.5566102  21.7938354  74.8643009  38.0433822  67.2229242
  74.8478536  37.0876765  67.2738075  74.3820003  38.3328032  67.9974270
   4.4945234  29.0966749  72.9675436   5.2484602  29.4017434  72.4628210
   3.7728837  29.0882730  72.3387384  68.2123705  31.0377725   1.7013481
  68.3109495  31.1926683   0.7619217  68.7212011  31.7357346   2.1138694
  86.5173762  29.3841870   3.1055715  87.0873349  30.1486285   3.0218294
  87.0673840  28.7196524   3.5204389  13.3998609  45.3947544  47.6387501
  13.6398506  46.3213110  47.6501608  12.6525462  45.3482342  47.0424366
   2.2619370  70.9769214  61.6538811   1.4848283  71.4982356  61.8552923
   2.3300794  70.3578855  62.3807764  27.1467543  22.6727986  63.6104822
  26.8755984  22.4200988  64.4930077  26.7520452  22.0128608  63.0404663
  56.9639744  12.0891745   5.8321502  56.0733753  12.1960909   5.4980304
  57.0844155  12.8247721   6.4326694  54.1024351   4.3000227  64.6800852
  53.5796928   3.9702234  63.9491940  54.2320395   5.2276003  64.4825125
   0.9330444  51.1507966  14.4474056   1.8847590  51.0525014  14.4758632
   0.7566433  51.9284924  14.9768379  24.2127943  44.0617514  38.7915611
  23.7913585  43.9215279  39.6394777  24.6508193  44.9083567  38.8788962
   3.9846605  34.9576044  62.7770996   3.3731917  35.4366279  62.2177458
   4.2909890  35.6079865  63.4090757  15.8556533  34.5732164  41.6067410
  15.1267958  34.0052581  41.3568974  16.6374850  34.0463543  41.4412451
  20.3106691  21.5447648  10.4541328  19.9319364  21.0891516  11.2059333
  19.7861244  22.3407204  10.3673008  91.1820870  33.4085298  68.1260395
  90.4584858  33.3318830  68.7479401  90.8320840  33.9473987  67.4165678
   9.7785980  12.7728295  48.3955336  10.7130003  12.5681341  48.4305048
   9.7193933  13.5210872  47.8015327  23.4238958  35.9729743  36.4879465
  23.5582066  36.6571426  35.8321214  23.2448220  36.4498591  37.2983432
  32.1870780  57.3836851  74.1955471  33.0640292  57.0137310  74.2971611
  31.6701508  56.6735506  73.8151217  43.1520414  13.8767648  67.1284199
  42.9660797  14.3827081  66.3374281  42.5837946  13.1094396  67.0610523
  41.2326082  81.7953857   9.4510486  40.6232938  81.4260348   8.8118770
  41.7988726  82.3711761   8.9371994  18.0098867  34.2216921  64.0406990
  18.9361000  34.1966057  64.2809772  17.5882638  33.6140776  64.6483755
  64.2552875  48.9271342  73.4437366  64.2020224  48.5523503  72.5645712
  63.6522459  49.6702312  73.4242646  65.9092614  37.1275451  22.8775051
  64.9951431  37.3834189  23.0005768  66.2365934  36.9746276  23.7639072
  59.6083307  16.6262341  65.0564766  60.4388285  17.0183408  64.7867298
  59.0030956  16.8336558  64.3445063  44.0278673  42.3675632  67.0256329
  44.3122816  41.5985060  67.5194836  44.2548609  43.1095457  67.5861359
  75.2472659  80.3906878   4.9610641  75.3383752  80.5682667   4.0249040
  75.7118722  81.1106332   5.3877428  36.1732697  22.0897579  57.5585699
  35.3276539  21.9059658  57.9676962  35.9670615  22.6889610  56.8411732
  34.9255848   7.0563847  48.0415392  35.1133418   7.6913172  47.3502779
  35.6543612   7.1480244  48.6553144  83.9895720  64.4160248  32.4640965
  84.7336907  64.8388554  32.0354557  84.1740198  64.4977761  33.3997917
  24.5584226  19.1860056  58.2894802  24.8109722  20.0803232  58.5189295
  24.0553236  19.2792761  57.4805164  40.1185322  27.1307158  63.6267233
  40.6677103  27.4395394  62.9061222  40.1383543  26.1767125  63.5511303
  24.6386576  32.5476146  66.8415022  24.5806575  33.4253216  66.4640188
  25.4677963  32.5469041  67.3197937  69.8171469   8.2415660  14.2754772
  69.7004601   8.0798157  13.3392837  70.1572224   9.1350230  14.3236091
  27.5515032  14.8796189  43.5593987  27.2948861  13.9574766  43.5535288
  28.4407854  14.8830187  43.2052803   5.4872173   3.6485153  70.7798576
   4.9595660   4.4195902  70.9878492   5.0403559   3.2463112  70.0350237
  52.5796652  31.0035729  53.5845661  52.0073795  30.9452462  52.8195047
  53.2881355  30.3865504  53.4013176  79.5636150  57.4596044   1.5822342
  79.3880292  57.4434014   0.6414154  80.3074523  56.8682500   1.6972759
  22.7399635  31.5047169  36.0365534  22.4224854  31.2093329  35.1832151
  23.6892843  31.3907433  35.9914827  10.8724023   8.8582308   9.6934822
  11.3573314   8.4706147   8.9648941  10.5612995   8.1080897  10.2001693
  27.6256132  21.3206434  50.0269794  27.2490072  21.2337255  49.1512823
  27.5184917  22.2469974  50.2429056  12.6128006  31.3725901  35.5646801
  12.5044727  31.3804793  36.5156984  11.7192268  31.3844204  35.2217293
  31.1737370  32.9732418  61.1478472  30.2544713  33.1455302  60.9441376
  31.1454463  32.3538709  61.8770981  69.3979502   4.4439214  18.6950159
  69.5866251   3.8501436  17.9683375  68.9255619   3.9041954  19.3288732
  61.3726921   3.6626942   0.2499750  61.7199240   4.2277367   0.9401872
  60.6725117   4.1774209  -0.1513169  53.5155555  65.2639636  11.6434505
  52.6754304  65.1523384  12.0883777  53.2912775  65.6716903  10.8069732
  11.1837876  32.4118042  67.5222445  12.0376062  32.2002602  67.8997040
  10.6056464  32.5116110  68.2785654  52.8089639  38.7992187   6.1103084
  52.3924395  39.3166875   5.4211357  52.2613546  38.0179205   6.1872986
   4.7989589  49.2806721  45.0929785   4.7735912  49.7314787  45.9369898
   4.6352750  48.3621788  45.3070164  33.7115955   8.8224667  39.5709538
  33.4591413   9.5978922  40.0721645  34.2736888   8.3255696  40.1654100
  85.6721373  80.6080676  57.6221657  85.8117337  81.2383525  56.9154215
  84.9904628  81.0040621  58.1650686  16.4626504   0.5416758  10.0918415
  16.3418533   1.4847119   9.9808433  17.1506168   0.4644997  10.7528808
  34.5630074   6.7361343  63.8501024  34.3477607   7.6180047  64.1537523
  33.8600707   6.1857271  64.1953039  88.5572908   9.7133976  56.3506460
  89.4214176  10.0700653  56.5563297  88.3721367  10.0292242  55.4662228
  62.9467532  26.7134102   8.9912822  61.9986936  26.6677376   8.8674667
  63.0654665  26.6943093   9.9409034  46.4740705  26.7187834  59.3714523
  45.5451870  26.5239239  59.4957066  46.5410805  27.6636624  59.5091009
  56.6236277  66.5473259  66.3193417  56.5133460  66.0469616  67.1278620
  57.3869721  67.1012629  66.4827204  83.5474558  61.9610907  57.4586773
  84.1505713  61.6842104  58.1484747  84.1143436  62.1857978  56.7208576
  50.4066992  20.4632998  58.3960724  50.6085920  20.1847672  59.2893171
  49.5682573  20.9189653  58.4710026  60.5548023  29.5672159  61.9659576
  59.8767971  29.4716363  61.2970755  60.9980033  28.7189310  61.9806788
  14.2102507  69.6914042  36.4096618  13.4410504  70.2260948  36.6063046
  14.0173653  68.8404227  36.8031812   7.8881196  62.6131321  26.2199998
   7.2694853  62.2326518  25.5964971   7.9957179  61.9398356  26.8918085
   8.1734637  78.3779115  67.7357149   7.4215845  78.6185564  68.2770109
   7.7923683  77.9206831  66.9860888  54.7148991  15.7516682  63.3165073
  53.8633251  16.1663294  63.1782770  54.6460485  14.9082482  62.8691435
  24.1256928  30.9673572  47.1531963  24.5204878  31.5031505  46.4652348
  24.8221779  30.8574724  47.8005505  25.7723618  12.3277235  50.7808065
  25.6875730  11.6625428  50.0977421  26.3512349  12.9886663  50.4009485
  26.9732332  27.7897286  48.2869005  26.7055225  27.7874684  49.2058992
  27.8418446  27.3875594  48.2894754  43.9935255  21.9494605  30.3820062
  43.1012440  22.0634103  30.7092476  44.4937563  22.6493788  30.8016682
  84.4356317  74.5958532  65.0951862  85.0562520  74.2127086  65.7150745
  84.8760767  75.3808475  64.7695732  54.3860102  32.9060316  73.3223534
  54.6214628  32.4316406  72.5250149  53.6373281  32.4250340  73.6749792
  34.1193056  32.1119690  73.3952713  34.3305516  32.9907894  73.0801773
  33.6882734  31.6885304  72.6528835  58.7313890   4.2496434  71.1987543
  59.4051218   4.7539628  70.7427073  58.3194971   3.7247008  70.5124521
  23.7826681  19.9944425  72.4061728  23.6169982  19.2587149  71.8166876
  23.5280895  19.6709800  73.2703447  39.4399381  14.3300462  21.5197515
  38.6584163  14.4408143  22.0612168  39.4478583  15.0994515  20.9503794
  42.8317261  11.1564255  39.4697070  43.0015898  11.9924843  39.9037409
  42.1103096  10.7707489  39.9667382  66.5142698  58.1692983  58.2525492
  66.5241666  58.9142347  58.8535547  66.2776406  58.5478164  57.4058151
   1.2487653  43.7135649  50.5537653   0.7699549  44.3662500  50.0429106
   1.1555057  42.9026222  50.0538635  87.9148645  80.2574707  53.7829399
  88.8591404  80.2635307  53.6262941  87.6880426  81.1780117  53.9148092
  15.4513729   1.4529678  65.4644537  14.8763978   0.6990467  65.5957460
  15.1059914   2.1231629  66.0541821   1.2616018  77.2820885  67.3485708
   2.2022251  77.3992992  67.2154427   0.8880976  78.1500793  67.1958685
  84.3008790   7.0013702  41.0545683  84.6930776   6.2431425  40.6215525
  83.3619491   6.9109845  40.8918619  26.1084890  17.1611893  63.4942389
  25.3519607  17.5180399  63.0288839  25.8736706  17.2278941  64.4197893
  82.1791744   4.7726819  65.1874971  82.2363567   4.5824674  66.1238623
  81.2453461   4.9088883  65.0273466  74.7250634  10.6807454  36.2335613
  74.9670880  10.6975586  37.1595028  74.1905563  11.4653571  36.1114242
   6.9837248   6.0971546  37.8206396   7.2271740   5.2023017  37.5835681
   7.7555573   6.4450014  38.2673049  78.0528442  21.5096402  43.6982203
  78.4613232  21.3541222  42.8466415  78.7869815  21.6788173  44.2886877
  42.4690819  10.6620932  73.8773775  41.5911818  10.7569814  73.5078907
  42.4923563  11.2861347  74.6028185  27.6055145  23.2643795  53.0617905
  26.9317222  22.8476906  53.5990095  28.4320235  22.9455233  53.4243441
   9.9359703   8.7408566  60.8926439  10.3193867   9.4362205  61.4271450
  10.6716466   8.1644243  60.6859064   7.9833508  24.8531556  55.6158161
   7.7556944  23.9317179  55.4919052   8.4373045  25.0982356  54.8095322
  26.6444707  28.3380771  37.2993970  26.9560099  29.2386961  37.3891854
  26.7075348  28.1551623  36.3619566  28.3661103   2.1735668  47.5395012
  29.2023039   2.0450088  47.0917463  28.4523225   1.6790478  48.3545160
  16.9383713  30.0619741   4.1338422  17.0361051  29.1176089   4.0119579
  17.3939105  30.4484149   3.3859279  51.3043261  28.0697322  60.6768513
  51.3762712  28.1466627  61.6282415  50.6051254  28.6788416  60.4394960
  11.3509895   6.7204411   4.9495199  12.2732450   6.8668921   4.7392204
  11.3662244   6.0788615   5.6597164  17.7963161  52.2189188  31.9892359
  18.0612814  51.9373941  32.8648901  18.2646728  51.6309357  31.3966584
  28.5787702  18.8917828  27.4192119  28.3601499  18.9716244  26.4907384
  27.7488422  19.0356338  27.8739214  25.4947114  10.5364299  34.4984460
  24.6365666  10.2850020  34.1569781  26.1120319   9.9699831  34.0355349
  88.8725326  32.4240899  35.4005289  88.2623429  32.9469776  34.8804450
  89.7379864  32.7502465  35.1538634  82.4028072  34.8938847  54.8561287
  82.5045858  34.9905539  53.9092731  82.8764556  34.0892673  55.0670242
  82.1045522  15.4766834  25.2247381  82.2387168  16.4191723  25.1250076
  82.5967977  15.2467525  26.0128117  11.8818355  21.5517879  59.9063158
  12.7189577  21.1251307  60.0891304  12.1151292  22.4550653  59.6920776
  13.1212580  18.6664987  65.8739328  13.7581527  18.8819706  65.1926374
  13.6457610  18.5624516  66.6678524  87.0154067  40.2199008   1.7392948
  86.3494083  39.8510959   2.3195198  86.9136163  41.1673819   1.8295744
  18.4943616  37.1236134  67.1209908  18.1333220  37.2851276  66.2493277
  17.9355848  37.6312089  67.7095032  45.9139395  55.2509785  74.0676355
  45.9741497  55.6229067  73.1877041  45.5807304  55.9672642  74.6081352
  71.6552591  39.6125507  60.5226088  71.8185520  40.5517483  60.6090641
  72.5223827  39.2119646  60.5847597  53.5190344  44.1250277  49.7233534
  54.4320202  44.0162992  49.4571590  53.5328817  44.0206528  50.6747437
  30.3505707   1.7869525  67.4912500  29.7671461   2.5384605  67.3859644
  29.9325705   1.0870890  66.9895554  77.9887172  75.0216301   9.2537906
  77.5469467  74.2104968   9.5050552  78.5651180  74.7671302   8.5332134
  55.2450848  27.0287013  63.0726624  54.6741295  27.1911263  62.3217583
  54.6450853  26.9175363  63.8101435  90.1044412  64.1299416  34.3656492
  90.0709886  65.0797320  34.2515707  89.5329709  63.7859751  33.6791086
  22.5398254  30.4721379  63.7792635  23.1216002  31.0731554  63.3139133
  21.8767357  30.2315545  63.1322241  37.0957041  21.3949776  44.7112322
  37.7144241  22.1133304  44.8430920  36.9381380  21.3848400  43.7671423
  70.8326435   0.8236451  56.3591146  70.3850698   0.4774501  55.5870676
  70.9821749   0.0574088  56.9129705  73.9404317  53.7718745  11.6271236
  73.2445928  54.4290968  11.6169384  74.7054216  54.2381998  11.9641140
  47.9389048  15.7685935  52.6282167  47.3277426  16.4875495  52.4675512
  47.3834944  14.9915051  52.6905441  12.4448144   2.7372435  37.8741336
  11.8078303   3.4449264  37.9724550  12.0034862   2.0929404  37.3206592
  70.9648125  21.0918028  27.8616645  71.1977034  20.4275258  27.2130230
  70.1761102  20.7495530  28.2824352   4.0147999  57.9570150  54.9557781
   3.0960980  58.2043552  54.8506975   4.0163025  57.3501825  55.6960392
  74.8445082  37.6929951  45.3198004  75.3016138  38.3139873  44.7526503
  74.8286343  36.8776941  44.8185349  44.7085190  48.9266109  63.4097338
  44.7139740  49.5831680  62.7132130  44.7329283  48.0881166  62.9486895
   7.8258318   7.3940825  68.6168051   7.6962328   7.8316700  67.7754068
   8.4126616   7.9749650  69.1009903  54.3098709  61.9609745  12.2922352
  54.1206094  61.1562189  11.8097618  54.6156761  62.5744732  11.6241481
  45.3896284  28.8011169  54.2436218  45.0259876  29.2056966  55.0312185
  45.7053232  29.5375776  53.7199831  36.9366336  29.5713139  70.4351521
  37.8610969  29.8065948  70.5141544  36.8542099  28.7551427  70.9284115
  24.1002059  11.7139220  48.7254858  23.6973190  11.7709172  47.8590775
  23.6543393  12.3855281  49.2416096  13.2838631   0.8600252  62.5734186
  12.9965615   1.5230523  61.9456577  13.2075858   1.2884247  63.4259939
  34.8110938  29.3399858  48.2457352  34.0142155  29.7571445  47.9183292
  35.4615855  30.0420976  48.2573032  42.3395967  36.0968590  53.1411791
  41.7206049  36.8121767  52.9948854  42.9877615  36.4605951  53.7443495
  35.6121659  22.3679733  61.4452934  34.9549913  22.7142382  60.8415890
  36.2074137  23.1018591  61.5980148  39.8386145  11.2198305  57.0696115
  39.8621345  11.4156246  56.1329460  40.4969406  10.5350828  57.1877718
  13.1840098   7.7117258  60.3392315  12.7001691   7.9060513  59.5365047
  13.0227220   6.7814714  60.4968500  47.8709269  35.7560587  67.5952148
  47.2733831  35.1379299  68.0160379  47.3496151  36.5499997  67.4763775
  11.8081272  48.0425406  71.6207552  12.5435734  47.7147293  72.1383381
  11.0776830  47.4689484  71.8524408  66.8484163   2.9494235  47.5161505
  66.0013199   3.1601122  47.1233702  66.9781256   3.6245206  48.1822205
  46.4864254  37.4184752  74.5115900  46.1594772  36.6728950  74.0081549
  47.3499584  37.5983119  74.1398478  -0.0282545  47.6495575   5.9492614
   0.4386597  46.9187447   6.3544014   0.0170307  48.3518668   6.5980652
  37.7397180  12.1681452  60.4535246  38.6059260  12.0767331  60.8504629
  37.8340125  11.7842448  59.5817709  32.9754758  16.1425483  45.8156347
  32.4581075  16.0434055  46.6148424  33.2319808  15.2498984  45.5840921
  20.6421784  82.6757000  68.5277414  20.2927188  83.2251711  67.8261805
  20.3563050  81.7901690  68.3033657   7.5912470  31.0952377  60.6899357
   8.4108663  30.9211731  60.2271652   7.1013772  30.2753687  60.6261158
  51.1825705  34.2544580   9.3893439  51.9537783  34.1472220   9.9460977
  50.4518318  34.3256760  10.0034904  53.7476301  26.7330480  60.7955551
  52.8449011  27.0499444  60.7657719  54.0631866  26.8239999  59.8964548
  12.3498225  38.6312985  66.3448524  13.0251396  38.4649467  67.0025063
  12.1255696  39.5546961  66.4600992  45.0818157  28.7462044  65.3865290
  45.8071375  28.1623363  65.6084299  45.2696037  29.5538759  65.8646870
  41.1931944  48.2998371  66.9705200  41.5351439  47.4095774  66.8884087
  40.7238007  48.3001280  67.8047276  29.9194336  26.6053963  59.0904140
  29.1261244  27.1353292  59.0125370  30.5205750  26.9778872  58.4453440
  53.5307312   8.6156827  58.4685516  54.1543245   8.5199523  59.1884136
  53.2274675   9.5212662  58.5332155  59.3107554  79.3749913   8.0728462
  59.3195673  78.7929829   7.3129585  59.8137208  80.1402625   7.7942493
  51.8416691  37.7286053  64.8251390  51.1233330  37.7736282  65.4561710
  52.6157570  37.9888129  65.3244448  34.7529222   3.4802515   7.4817112
  33.9666034   3.2615216   7.9818084  34.4574930   3.5098679   6.5717247
  60.8963299  39.1561675  68.4676170  60.3115177  38.9268899  67.7453613
  60.6121969  38.5987735  69.1920567  36.0377359  37.1213341  68.7614202
  35.1035500  37.3287487  68.7838936  36.4570451  37.8560209  69.2093563
  55.3653049  47.0593071  50.6031847  55.9552050  47.5619125  50.0413704
  54.4930840  47.2291040  50.2473307  13.0521917  46.1412525  61.9089174
  12.5153577  46.6672516  62.5016737  12.8760219  46.5039158  61.0407734
  27.8571510  19.2690134  63.5943413  27.0867252  18.7198007  63.4492826
  28.5926652  18.7330174  63.2977629  30.8128597  21.0056670   1.0907629
  30.5014564  21.0961659   0.1901653  30.3299810  20.2551587   1.4368799
  25.4260421  51.5763950  65.9279919  25.4202223  52.0639896  66.7516708
  24.8815155  50.8083010  66.1005020  73.4193325  47.8886414  48.2877445
  73.9405394  47.2129869  47.8540707  72.7421045  47.4031734  48.7588215
   0.5191975  85.7019576   2.5786665   1.0933142  86.4671429   2.6119640
   0.9782391  85.0356682   3.0901077  59.1481447  43.2008791  51.7331648
  58.2950974  43.6304188  51.6696739  59.6441412  43.5421848  50.9890318
  81.9933033  38.7006617  51.8649054  81.3076591  39.0489626  52.4348259
  82.8001976  39.1010475  52.1886826  74.1695213  59.4274521  59.1936255
  73.8847542  60.1218796  58.5995626  73.8177776  58.6243963  58.8094330
   2.1600875  47.3018980  56.4987707   2.8083822  47.6494026  55.8862495
   1.5980494  46.7436314  55.9614801  50.4306555  47.0233583  49.7003984
  49.6161890  47.4201393  50.0093365  51.1164856  47.4600315  50.2055597
  51.8656635  52.1300507  59.7486782  51.5092707  51.4885473  60.3632450
  52.6234913  52.5001335  60.2014160  49.5627356  40.1841259  51.1871815
  49.2819738  39.5052743  51.8008280  50.5189753  40.1519966  51.2155485
  44.7464275  60.6321812  73.2155037  44.3554544  61.2427521  73.8404655
  44.2443848  59.8244238  73.3237457  17.3184015  10.5530961  34.3230465
  18.0731536  10.0797446  33.9730194  17.0367576  10.0322230  35.0751140
  10.8763601   6.5560372  19.4519642  11.4970924   5.8495553  19.6303108
  10.5877210   6.8454392  20.3175094  44.5444824  45.7236321   2.2601440
  44.1019775  46.5677483   2.1712663  45.0777103  45.6482441   1.4688041
  66.2386608  51.7768240  54.5270967  67.0778227  51.6502523  54.9698353
  65.5836010  51.5339899  55.1814365  54.3690777  56.5615416  72.0679188
  54.7721624  57.1121550  72.7391720  53.9941454  55.8270931  72.5539684
  60.0671148  81.1167908  63.6539459  60.8450413  81.5909576  63.9475965
  60.0100470  80.3631496  64.2413139  31.2277271  14.8750908  20.0248840
  30.8026935  15.3868515  20.7131221  32.1552326  15.1003869  20.0970390
  42.0256330  55.6588776   6.3753345  42.4987604  56.4316399   6.0667637
  41.3043548  56.0118420   6.8963077  53.0962610  64.9248075  31.8493199
  53.6654663  65.6183386  32.1828723  53.4466696  64.7240305  30.9814858
  74.4686937  48.7357903  73.4761143  74.7584295  49.5706558  73.1083012
  74.3382788  48.1708860  72.7144718  61.9356441  54.6689272  74.3413687
  62.5916672  54.6958590  73.6448479  62.3613262  54.1907263  75.0529528
   2.6075228  82.6789284  50.6336117   3.0910166  81.9258690  50.2939510
   2.8405150  83.3979034  50.0462246   6.3853129  70.0937510  48.0168676
   6.7781218  70.7806396  48.5554934   5.5782756  69.8613739  48.4761333
  80.0178051  52.2358799  36.5882421  79.2340803  52.0730114  37.1130991
  79.7921371  51.9153357  35.7149959  41.8938114   0.1872570  18.3193329
  41.4398338   0.2906926  19.1556575  42.4880554   0.9363587  18.2751205
  80.5913183   2.5441240  58.1813765  80.6060907   1.6750216  57.7805424
  79.7502681   2.5836252  58.6366892  60.5256653  70.0084305  50.3986073
  59.8718119  69.3801498  50.7051563  60.1358414  70.3968906  49.6154308
  54.4357634  73.0255032  66.3873005  53.9814854  73.3352089  67.1708441
  53.8677025  72.3396063  66.0364628  91.1077615  19.6385931  58.8076591
  91.7346832  19.6860670  58.0858946  90.5352613  20.3946375  58.6777544
  15.5350189   5.0221705  59.1081429  14.6918850   4.5690226  59.1048622
  15.7860355   5.0677275  58.1855631  18.6193495  15.4685854  40.8926916
  17.7377920  15.8303808  40.8021450  19.1827660  16.2348150  41.0008478
  65.3900909  49.4601727  58.3251905  64.9658060  50.1394558  58.8494015
  65.5646229  48.7526941  58.9458752  58.7474918  72.5252295  52.7505636
  59.5118904  72.0086288  52.4954987  58.8255072  72.6155329  53.7002945
  78.0105925  56.9415474  49.8560381  78.5276604  57.2463512  50.6016731
  77.1014500  57.0384169  50.1394224  -0.1690884  10.9719442  56.8013382
   0.4067116  10.2095675  56.8602085  -0.0533123  11.2909864  55.9063292
  63.5612297  67.1680212  33.4377003  64.0421581  66.5200424  32.9228568
  64.2406654  67.6586008  33.9002347  71.4316177  75.7486868  54.2073536
  71.3305283  76.2956905  53.4283781  71.4259148  76.3679314  54.9372387
  59.6675444  74.7290039  57.6543427  59.3792868  75.6391478  57.5852394
  59.0381718  74.3230343  58.2504225  71.7152262  79.9443150  58.8507462
  71.2619352  79.7503567  59.6712017  72.3937654  79.2721605  58.7872982
  27.4614049  29.1835387  41.9072750  27.7461435  29.5179398  41.0567882
  26.6904022  29.7074730  42.1247127  43.8391685  75.0279236  60.5581713
  44.1826487  75.0442219  61.4514732  44.2610168  75.7704258  60.1257753
  56.3354588  73.7086153  26.1674809  55.7475281  73.0162907  26.4695668
  56.8625641  73.9274359  26.9359255  55.6662532   0.7597422  34.4853067
  55.3757378   1.6536688  34.3043900  54.9351713   0.2090048  34.2052484
  84.9755192  31.1447358  34.5751023  84.8960590  30.3158712  35.0472236
  85.1300049  31.7961836  35.2591968   8.1146460  10.7291197  20.3729725
   7.3487454  10.7039713  20.9465551   8.0820875  11.5957235  19.9677920
  52.8598738  77.0221329  65.2952051  52.2142601  77.6700354  65.5774069
  53.4039450  77.4872446  64.6596861  58.1913377   9.4015057  13.9417484
  58.9906980   9.8966916  13.7627056  57.8056623   9.8361332  14.7023895
  73.0442592  28.2911657  42.5671911  72.9224464  28.4620165  41.6332722
  72.2892829  27.7567171  42.8133774  56.8466093  27.2702963   2.3786237
  57.3445035  28.0860503   2.4323538  55.9319879  27.5425799   2.4531963
  74.4747019  57.1604443  42.4810600  74.9041176  58.0119038  42.3983049
  74.3097067  56.8867016  41.5787983  41.2227440  70.4069281  48.6887217
  41.4549637  69.7364092  48.0462980  40.2700281  70.3494406  48.7612057
  72.5576162  48.3971691  51.9495440  72.2204018  49.2447853  51.6596031
  73.2267761  48.6148739  52.5984335  19.0970375  24.6121199  20.4792335
  18.3401109  25.1681979  20.6638076  18.7962200  23.7250073  20.6761482
  82.0147610  58.9382982  66.0328531  82.7379704  59.5573473  65.9329462
  81.2483692  59.4108629  65.7079554  26.4961891   2.2248148  50.4703951
  26.7083244   2.2498106  51.4034605  27.1758061   1.6717981  50.0849962
  67.5730848  83.0616760  59.2472315  67.7301359  82.8166866  60.1591206
  66.8073463  83.6349869  59.2817211  25.6932855  80.3191662  64.0063095
  26.2852502  81.0606766  63.8799000  25.0280213  80.4251671  63.3262920
  90.7062265  -0.2715422  41.5734482  89.8253223  -0.0254370  41.8557167
  91.1791774   0.5584883  41.5135241   5.8397349  69.6649170  14.7348583
   6.3204440  69.7027969  15.5617321   6.0140475  70.5085707  14.3176103
  23.2063390  38.1309731   1.7169025  22.2729780  38.3423264   1.7369821
  23.2672502  37.2749646   2.1408918  81.5408155  10.2257513  39.7218585
  82.3683044  10.2791475  40.2000284  81.7954227  10.0012754  38.8268638
  22.5736694  11.3956713  34.4467497  22.9850845  11.3751864  33.5827184
  23.3028202  11.5081572  35.0566101  48.1221485  71.5860081  68.2122803
  48.5789680  72.3646259  67.8939962  47.2054911  71.8546200  68.2740593
  83.5724660  80.2783926   1.8097046  82.9453393  80.2560624   1.0868957
  83.6374208  79.3681582   2.0986440  82.0292875   2.9424738  55.3271437
  82.7036687   2.8059649  54.6617031  81.6677925   3.8061594  55.1281404
  63.3069707  49.0776761   1.4483526  63.4401037  49.5488293   0.6258419
  62.6825811  49.6162064   1.9345071  63.9059830  72.2293377  69.4581604
  63.6375618  73.1259537  69.2575073  64.6433878  72.3291397  70.0602436
  65.2860880  71.4154816  71.8594551  65.8022976  70.6792164  71.5313244
  65.4062796  71.3880825  72.8086853  90.6844589  11.8173574  51.6846085
  90.9754869  12.2919725  52.4632454  91.2960693  11.0850500  51.6079426
   8.5324650  15.0163816  58.7982225   8.7239580  15.1123880  59.7311449
   9.3894844  15.0493406  58.3731747  20.4275991  42.8682930   5.0377872
  20.7759954  42.4610932   4.2446687  20.7863475  43.7556775   5.0288370
  46.3967276  67.6346111  41.3831806  46.1220741  66.8539858  40.9021187
  47.2228861  67.8904104  40.9729815  77.0369005  72.2580242  60.8296490
  77.0640755  72.2057819  61.7850351  76.7996359  71.3744688  60.5481148
  57.7316380  72.1640825  61.9978905  57.7646732  72.8316402  61.3126850
  58.6364269  72.0864582  62.3004770  56.3982870   8.5140879  31.9060543
  56.6703130   7.8869612  31.2360313  55.5038167   8.2550366  32.1275356
  90.3704071  80.6825447  55.5417728  90.4123783  81.6378117  55.4977608
  91.2833691  80.4060841  55.6211042  23.3621578   6.3145517  49.2534494
  23.4632855   5.3694510  49.1403961  22.6444130   6.5506243  48.6658049
  66.2499237  76.1389637  34.5732450  66.6162968  77.0231771  34.5603085
  65.7377577  76.0800982  33.7667394  14.5639210  32.1592402  49.1825628
  14.2972450  32.3935293  50.0715065  13.8978844  31.5377592  48.8886547
  13.9271315  56.1090946  55.7592535  14.6011695  56.3538218  56.3932943
  13.3753737  55.4817343  56.2263870  68.6068916  78.5382891  56.8562126
  67.9674530  79.0023422  57.3965883  68.1308174  77.7785158  56.5210629
  24.6020775  70.1849731   7.2787311  24.2399006  69.3586167   6.9590404
  24.0907459  70.3829773   8.0633094   4.5381983  49.7223711  57.6994896
   4.4544181  49.7057343  56.7461061   5.2915438  50.2895498  57.8638649
   5.0761279  51.7173338  49.6710014   4.7608622  52.3814201  50.2840471
   5.9644660  51.9974232  49.4504595  76.7501926  73.2787085  20.0528884
  76.4227629  72.3810244  20.1093316  77.5763273  73.2631540  20.5360937
   9.5509653  81.7553957   5.3941086   9.2237406  81.5776213   6.2758949
   9.6591454  80.8899315   4.9997738  69.9006224  61.0447121  37.5269175
  70.3319359  61.2038755  38.3664823  69.3604088  60.2691746  37.6783967
  70.8467388  58.6754990  46.7404795  70.7345724  57.7709150  47.0326805
  71.7503548  58.7157297  46.4272928  56.8427278  22.5316508  30.5357959
  57.5386621  22.9406054  31.0502556  56.0388662  22.7403529  31.0116985
  71.7671490  71.6492224  19.9512696  72.5947666  71.2702703  20.2473736
  71.2864828  71.8347788  20.7579660  61.5210104  69.6324158  26.5662169
  61.7368174  69.1888857  27.3865438  60.9846592  70.3794432  26.8317461
  24.8764062  79.5820236  56.1982059  25.4396176  79.6903992  56.9645452
  25.0390649  78.6850309  55.9063530  59.3194963   7.7450974   7.1176460
  60.2705957   7.7976019   7.2118881  59.0838434   8.5313017   6.6251209
  74.0126276  78.7665367  47.8983402  74.7024441  79.2339611  48.3693933
  74.2961597  78.7788773  46.9841814   2.4742986  54.2328770   6.8225696
   1.6914131  53.6868889   6.7503288   3.1835820  53.6131699   6.9931820
   0.2953013  40.3743076  65.8107424  -0.0752202  41.2439108  65.9615421
   0.8236655  40.4731417  65.0187254  35.8237152  15.3528570  61.0437870
  36.5872173  15.0200914  60.5720234  35.2861862  15.7662653  60.3682184
  38.0710697  78.8165522  33.6584616  38.7078071  79.0711737  34.3262672
  38.1983089  79.4500780  32.9522848  49.7330141  73.7196445  52.4640894
  50.2811289  73.8173962  53.2427073  48.8678455  73.4954929  52.8068304
  34.0576029  76.9888687  20.7609701  33.2111263  77.4057770  20.9218979
  33.9167762  76.4548016  19.9791944  73.2764816  74.9472904  72.2478628
  72.9526424  75.8236599  72.0396948  73.1570482  74.8663235  73.1941223
   8.1412726  12.9368662  27.7458262   7.2405605  12.6974081  27.9640198
   8.5123758  13.2500242  28.5707188  60.8911018  76.8404706  17.8145816
  61.1306648  76.5550812  16.9328811  61.7227154  77.0821484  18.2223251
  72.0184088  53.6625910  60.2536583  71.8963289  53.3979416  61.1654091
  71.3246536  54.3027592  60.0951385  20.1518040  12.4058985  56.1132288
  20.7359009  12.9124903  55.5489397  19.2795162  12.7547525  55.9297991
  40.8599898  42.2278952  64.6235847  40.0560393  41.7094969  64.5895624
  40.5927321  43.1030535  64.3426800   9.4500713   9.1627192  37.1276283
   9.2733030   9.3609308  38.0472469   8.6271935   9.3560385  36.6784859
  51.9787312  74.7366619  59.8888683  51.4383078  75.1279402  59.2025232
  51.3547802  74.4799709  60.5678606  25.4642086   9.4990324  30.5892015
  25.4987316   8.5482954  30.6946635  25.6040268   9.6414064  29.6530318
  55.0635767  59.3912458  73.2516575  54.7917795  60.2785826  73.4861660
  55.7434130  59.5161104  72.5894976   3.4861021  20.6006311  47.3893452
   4.0957813  19.8928904  47.5982141   2.6929693  20.1539492  47.0932961
   4.2533358  76.8531322  55.3663301   4.3147906  76.0006094  55.7972097
   5.1479586  77.0441103  55.0845194  19.8972274  23.0752499   2.3613289
  19.3144895  22.4413664   1.9431951  20.2166606  22.6267798   3.1443145
  59.7313882  31.2603743   4.4158247  59.3041040  31.4021332   5.2605465
  60.4399206  30.6455214   4.6059969  52.7664185  71.3724566  60.3800154
  52.4609756  72.2539902  60.5941153  53.2420683  71.0876799  61.1603260
  72.9583951  24.6567797  66.1683941  73.0361911  24.9522661  67.0755148
  72.3668548  25.2891230  65.7604074  27.7085401  67.2557290   0.4376342
  26.9392683  67.7137406   0.0989988  28.4034921  67.9138596   0.4260805
  50.7212811  12.3800444  38.9054918  49.9092846  12.7064871  39.2932105
  51.2195664  12.0364546  39.6470380  20.5138930  69.9370813  34.2043543
  19.8456248  70.4831648  33.7902951  21.3430174  70.2759314  33.8667703
  14.3846159  12.8545546   3.5040772  14.9491339  12.7932428   4.2746547
  14.7666197  13.5607122   2.9828882  83.8288661  38.8270735  59.2230463
  83.0144092  38.3917688  58.9712286  84.5191022  38.2739901  58.8571167
   7.5594883   4.7068571  66.7440128   7.3478346   5.4731726  67.2771120
   7.5457935   5.0305056  65.8432913  15.5617674  76.2264252  58.8578939
  16.2522563  75.6288290  59.1448402  14.9312361  76.2273216  59.5780754
  46.9275810  30.3506787   5.6447723  47.3452712  29.5808012   6.0308483
  47.6375438  30.9854634   5.5486896  42.6015760  69.0766365  15.4724815
  42.2267772  69.2037423  14.6009281  43.3605052  68.5118039  15.3267887
  80.0846291  31.5358734  71.2976742  79.3602896  31.1329985  71.7764807
  80.7366276  31.7322254  71.9704151  58.1680490  43.3448441   1.7778709
  57.3491289  42.8503830   1.7443159  58.4310056  43.3105881   2.6976040
  76.9156361  80.5858707  64.8893595  77.8547478  80.6772900  65.0504255
  76.5619135  81.4641476  65.0298834  88.0681705  64.5042133  30.4033971
  87.4452877  64.6493578  29.6912265  87.8476906  65.1707983  31.0540009
   9.8538305  44.8046143  25.0047424   9.2554785  44.7990639  24.2576339
  10.4752876  44.1006501  24.8191192  75.4828024  78.0013704  60.1936913
  75.0215149  77.4961138  60.8631420  76.4074278  77.7979755  60.3348398
   4.8323183  12.5440096  52.7661800   4.1444092  11.9876360  53.1314993
   5.3131275  12.8630518  53.5299015  87.3852226  12.5488829  48.3708096
  87.5935003  13.1251596  47.6354504  87.1637031  11.7114424  47.9635620
   7.3282938  14.5594954  55.0969410   8.0809193  14.0480875  55.3940010
   6.8512039  14.7716688  55.8991909   5.7683353  22.5819468  41.0732508
   4.9905901  22.0867895  40.8160353   5.7483273  22.5792669  42.0302343
  57.1549555  17.6137709  63.3037233  56.6213032  16.8192076  63.2932663
  57.5356552  17.6581644  62.4266052  42.9967289   0.8692526  48.5494947
  43.8471966   1.2009596  48.8374424  42.4483566   1.6501116  48.4734201
  25.7703687  29.1410859  19.4177845  26.1902858  28.8166268  20.2144268
  26.3226510  28.8163407  18.7066200  88.9723083   6.5901732  65.8039522
  88.1278488   6.2534498  66.1035204  89.0036794   6.3651251  64.8741150
  14.9390365  31.0948260  11.5471962  15.5594827  30.7742627  10.8925846
  14.0918161  31.0793574  11.1019924  25.1737766  14.8854040  65.2332163
  25.9735375  14.9960493  65.7473850  24.4737892  15.1904272  65.8104658
  71.0154200  77.1041822  56.7131758  70.1689672  77.5107718  56.8987417
  71.6345358  77.8341198  56.7024279  37.5436139  84.5471478  56.2718821
  36.8980956  85.2355194  56.4321470  37.3432159  84.2313194  55.3907919
  32.8660755  11.3421415  49.1283703  32.9994946  10.5313658  48.6373758
  33.4020023  11.9900774  48.6709881  88.2097912  79.1995049  63.5963869
  88.2558823  78.3931160  63.0827284  88.7834072  79.8108721  63.1344080
  62.8009416  72.4976094   8.7494877  62.1868898  72.8461392   8.1031921
  62.9093553  71.5784008   8.5055092  72.1184874  83.7895775  49.9553251
  72.2233963  84.3928814  50.6910229  72.1381998  84.3511200  49.1803980
  89.7856685  46.4098619  32.1437573  90.5595228  46.1617922  32.6495624
  89.1272231  46.6261839  32.8039742  30.9819557  19.7310812  22.6247909
  31.8784715  19.4274886  22.7673462  31.0702278  20.6700404  22.4610832
  78.4270545   5.6838869  39.8782921  77.9833146   5.8541273  39.0474224
  78.4451648   6.5335821  40.3186464  79.4832754  54.1605711  59.4899130
  79.4032383  54.7016716  58.7043953  80.2703476  54.4867086  59.9262381
  80.7957336   0.5015444  56.2107038  80.7991763   1.3715815  55.8116150
  81.7170354   0.3192209  56.3956308  49.4436693  55.3420591  20.9930205
  50.1206732  54.7767496  21.3649368  49.9207115  55.9410095  20.4186296
  58.1613445  82.7066708  68.1840849  58.2313824  82.9429340  67.2591496
  58.4179783  83.5000801  68.6540556  63.0840445  60.0470877  74.0159941
  63.1833839  60.7637596  74.6426868  62.1776867  59.7587061  74.1236258
  33.6590462   6.0942625  42.0277452  33.6455135   5.2678179  41.5450096
  32.8052502   6.1339449  42.4586630   2.6770838  54.7832346  31.8820882
   3.3894690  54.6538258  31.2559986   1.8834361  54.5791626  31.3874078
  77.4418736  85.7058144  18.2972348  77.0060301  86.3410759  18.8653183
  77.0853281  84.8593426  18.5666776  14.4254522  11.7828535  61.6441298
  14.4596415  11.6433214  60.6977701  15.3430300  11.8150782  61.9147825
  48.6143951  12.8068041  47.2901773  48.9831905  13.6295103  46.9686604
  49.2160111  12.1339201  46.9715452  32.2581729  84.8644638  54.2098618
  32.8239783  85.6365204  54.2057276  31.8586119  84.8556805  53.3400869
  70.1933289  67.8300571  52.9950190  70.0460529  66.8850088  53.0327940
  69.9957275  68.1387901  53.8792515  12.6494865  12.2759699  32.8685141
  12.8265743  12.1265291  33.7972426  12.6418524  13.2287001  32.7764177
  25.1824455   4.1859411  72.9824829  25.9683495   4.0597414  72.4508238
  25.4336147   3.8861727  73.8561440  76.2569809  69.9771214  39.4384050
  76.5159273  69.2024136  38.9393973  76.4203167  69.7396994  40.3511953
  45.6090213  68.9931614  15.0539138  45.4995538  69.8455269  15.4754760
  45.5507804  68.3619721  15.7711532  39.8854305  47.3503334   8.0084160
  39.5354225  47.9056485   8.7050941  40.4864837  47.9194386   7.5276878
  26.9718226  82.6785755  49.1916275  26.4212474  82.6355171  48.4098053
  26.8894919  81.8123722  49.5905495  64.2539215  54.5090342  73.0685806
  64.6276617  54.0937471  73.8458109  64.9014044  55.1662111  72.8133965
   8.4445887  22.5834440  22.7426863   8.0449944  22.8002619  21.9003391
   7.7026062  22.4504541  23.3326054  71.7349339  69.1244555  62.1723080
  71.9910955  68.9874887  61.2602472  70.9837294  69.7157097  62.1238995
  66.2871504  66.5333605  57.5008345  66.7498064  66.9394398  56.7678404
  66.4248657  67.1340084  58.2332897  68.4097338  84.1014862  69.9851847
  68.4641457  84.0170193  70.9370947  67.7475262  83.4610081  69.7253609
  54.7262335  62.1646214  70.2046156  55.4480600  62.2444439  70.8281803
  53.9391661  62.3111820  70.7292843  21.6544057  22.8675635   7.8646209
  22.4536993  22.7465708   8.3771923  21.0182573  23.2130129   8.4908893
  15.8184080   8.0811571  53.8448572  15.3636770   8.3398413  53.0432749
  15.3460960   8.5325026  54.5444632  58.7244654  79.8971510  58.1185579
  58.1058311  80.3675842  57.5597954  59.3014669  79.4410086  57.5059938
   2.7981453  33.2693743  47.2152948   3.5017614  33.9181494  47.2310543
   3.0044727  32.7104353  46.4661312  72.6649189  71.9601679  58.3464432
  71.8375492  72.0958900  57.8846359  73.3024502  71.7943668  57.6519680
  80.5317116  51.6340494  50.8430958  81.4711761  51.7950058  50.9310675
  80.2163029  52.3512411  50.2931976  89.6216413   1.0014891  28.3752036
  88.9357969   1.5162729  28.8004732  90.3609582   1.0398554  28.9819741
  77.5847340  69.4775772  65.2161407  76.8412352  69.5283508  65.8168602
  78.0048323  68.6432266  65.4249716   0.9511833  14.8496603  48.0828142
   0.9720831  13.9107107  48.2676411   0.2012758  15.1751493  48.5807419
  53.3207132  34.1755469   4.4098785  52.4030115  34.2531998   4.1490581
  53.3252431  33.4779007   5.0652387  20.6905414  44.9896653  19.7907474
  20.1521160  44.2032082  19.8792007  20.9573795  44.9951012  18.8715103
  14.2907103  75.5922604  56.6174221  14.6253832  75.8584738  57.4737835
  14.0315684  74.6783495  56.7350817  41.4436722  61.4883709  20.3976822
  41.3324213  62.0208836  19.6101010  41.8033266  60.6607580  20.0783944
  72.1333294  14.8387789  72.7635622  72.4085693  14.9180292  71.8502188
  72.1303158  15.7379698  73.0916929  42.1441059   1.5716051  51.3138771
  42.5725536   0.7599615  51.5856981  41.2863331   1.2936853  50.9926081
  27.5938492  14.7304892  46.2665796  28.3405857  15.3260588  46.2040472
  27.1893959  14.7616362  45.3995895  36.6396666  50.9161615  29.9040842
  36.6959548  51.6684198  29.3148732  37.4188542  50.9851933  30.4557490
  17.4071388   6.0161661  54.8002958  18.1673698   6.4294504  55.2095270
  17.0432215   6.6943525  54.2312145  85.1999875  24.9253820  39.8974609
  85.9032651  24.4767546  39.4280267  84.8637363  25.5655550  39.2702866
   3.9300757  24.4546770  54.7658253   4.3659287  24.3424295  53.9210367
   3.9738302  23.5902761  55.1746368  46.3361598  72.3651059  12.9598358
  47.0800878  72.5771363  12.3960521  46.6958286  71.7692692  13.6169937
  26.8958310  70.6872407  68.1410310  26.3618783  70.1378862  67.5671581
  27.7506379  70.2567998  68.1572381  70.7946777  60.9870481  51.1684132
  71.5856123  60.4577923  51.2710905  70.0991440  60.4560661  51.5563869
  36.1172466  11.5564608  70.5382538  35.4007988  11.2898230  71.1143017
  36.1185150  10.9026026  69.8391819  65.6614113  82.1120834  56.8121004
  66.2889528  82.7832317  56.5437984  64.9773979  82.1426582  56.1432028
  83.4152412  69.1759109  12.1649766  84.2178440  69.5055294  11.7607367
  83.7186718  68.6419487  12.8991759  77.0128536  39.6791077  60.4165363
  77.5900841  40.4377937  60.5027294  76.8807840  39.5845771  59.4732189
  41.0126020  53.8662465   4.1725042  40.5899383  54.0770562   5.0050571
  41.3946201  54.6942360   3.8814237  90.7223701  64.1579151  30.9479165
  89.8283482  64.3957710  30.7022071  90.7102776  63.2021999  30.9998322
  11.9100313   2.9053282  61.1332560  10.9989529   2.9273581  60.8405447
  11.8647318   3.0899309  62.0713949  20.4680328  19.8151182  26.4730239
  20.6964569  18.9231943  26.2112737  20.6304340  20.3431486  25.6913328
  76.6299438  82.3934650  56.8098688  76.0001898  82.6786232  56.1478090
  76.1507988  81.7534924  57.3362684  38.2302429  72.1697075  24.5714882
  38.6267187  72.7757676  25.1973751  37.8708078  72.7337487  23.8867214
  25.9130268   2.8863405  34.9547553  25.4364948   3.7112593  35.0478721
  25.4133205   2.2605680  35.4790950  42.2689201  14.0255196   8.7944629
  42.8622104  14.7655613   8.6657074  42.8090288  13.2534153   8.6260441
  72.3245621  52.5047541  51.7266130  71.6000652  52.1900845  51.1859417
  72.3957443  51.8599987  52.4305010  79.8821211  53.4579754  49.0471411
  79.1130304  53.8650179  48.6483431  80.6098366  54.0293550  48.8018036
  22.7674651  80.7838440  63.1150293  22.2906017  80.8664513  63.9408684
  22.2551012  80.1570892  62.6042604  68.2318306  69.1743088  58.1033945
  68.7301636  69.7356081  58.6974001  67.4764347  69.7047520  57.8499317
  54.7431803  75.1052332  45.7437277  54.5918703  74.7970772  46.6372442
  54.4347000  76.0113573  45.7474089  44.1841106   0.8202337  40.5308962
  44.9162178   0.2150797  40.6493664  44.4880371   1.4362597  39.8642778
  66.1800766  55.8779335  44.7765684  66.5346575  56.6529655  44.3408728
  66.6098356  55.1412344  44.3420362  76.6847563  70.7115173  17.5206244
  76.5538692  71.4647675  16.9446754  75.8005095  70.3955603  17.7064061
  76.3757706  74.7037888  59.5653439  76.3052750  73.8102818  59.9013567
  76.3407612  75.2566862  60.3459311   9.7018202  53.1524134  60.4341269
  10.1114806  53.9527130  60.7626677   9.2420062  53.4270048  59.6407795
  54.7674085  73.6355717   7.5104549  55.5422212  73.4513791   8.0414703
  54.6020128  74.5688946   7.6437786  78.2201311  11.4294409  68.6537361
  77.2999545  11.6895842  68.6964655  78.6998245  12.1916269  68.9780760
  41.5919190  12.4108480  45.0552654  41.9653683  11.6853498  45.5556822
  42.1850853  13.1443094  45.2178097  46.5288162  65.8938837  55.1226950
  46.0881424  65.4489613  54.3987608  46.9151354  66.6740322  54.7247553
  87.5951501   0.6956076  34.8165774  86.7147466   0.3200411  34.8249412
  87.9418441   0.5127882  35.6898546  82.7282143  53.8395309  62.7068615
  82.3994923  54.4175386  62.0183229  82.3389626  54.1806841  63.5120487
  73.4201241  62.4861717  22.7547359  73.0358076  62.4926329  21.8780971
  73.9889336  61.7163372  22.7612209  78.7388325  79.3630934  57.9056978
  78.6053848  78.4245682  57.7730846  77.9286957  79.7665930  57.5940800
  46.3368750  78.7808037  38.8211799  45.7823277  79.1820574  38.1520700
  45.7595682  78.6717129  39.5768571  43.3648826  35.8088047  11.1024311
  44.2339279  36.1152203  10.8433941  42.7758695  36.1720927  10.4411247
  21.7464809   6.8543695  47.0046711  21.1508446   6.4031576  46.4064646
  21.2633781   7.6328920  47.2817278  18.6553221   3.5018801  40.9803057
  18.5806541   2.8485750  40.2847099  19.1473370   3.0598520  41.6722345
  44.8973896  78.8496621   2.3170736  44.8575880  79.8060257   2.3212698
  45.3025199  78.6231263   3.1542041  89.6187660   6.2366652  55.0208330
  88.7721940   5.9088778  54.7173643  90.1978847   6.1403345  54.2648077
  72.2758484  82.7308369  64.5231390  71.4101601  83.1189537  64.6503353
  72.6996517  82.8052044  65.3781796  81.1241627  72.7639389  58.4538126
  80.2029514  72.5055456  58.4828901  81.2052631  73.2711554  57.6461124
  42.0074369  45.0285561   6.9065883  41.5861989  45.8212788   7.2388199
  42.4746658  45.3163273   6.1222961  24.7707368  68.0880482   0.7261875
  24.8501350  68.4855492   1.5933159  24.4193222  67.2137864   0.8947494
   8.4153081  27.4227936  19.2594364   7.6745678  27.7030022  18.7218406
   9.0411164  28.1446249  19.1998508  57.1513176  78.5278606  44.2155361
  57.6584721  78.7722111  44.9896908  57.4347067  77.6357603  44.0153217
  80.0722694  36.6174173  71.8944454  79.9496603  36.7058492  72.8396320
  81.0052490  36.4304423  71.7904091  64.4191313  70.9276533  61.6926527
  64.1747236  71.1660957  60.7984257  65.3266954  71.2194443  61.7787838
  90.2346536  26.7735743  21.6165137  89.7710439  27.3086809  22.2606802
  91.0943958  26.6188978  22.0078611  74.3176126  53.7310076  55.7333851
  73.5999632  54.2851067  55.4264879  73.9381933  53.2230139  56.4504766
  22.8517132  31.3613676  53.2302141  22.3345356  32.0959066  53.5606813
  22.9939060  30.8048700  53.9959288  79.0234014   9.1412996  58.7547541
  79.9733468   9.0535425  58.8330603  78.6732551   8.3882212  59.2306757
  72.2852373  80.5257416  68.1855154  73.1435156  80.6349945  68.5949755
  71.6689157  80.5242348  68.9178896  84.6857854   8.3227896  71.0103226
  84.0379735   7.9423880  71.6035080  85.2641794   8.8294481  71.5804005
  36.7697887  14.5805525  36.1933494  37.5057869  14.9274992  36.6975021
  36.1741715  15.3236078  36.0967636  77.3198530  21.1522841  51.1963511
  77.8099176  20.5157732  50.6758547  76.4898654  20.7160448  51.3888359
  12.8705006  21.0158896  49.9953985  13.5139542  21.5624022  49.5442581
  12.1279602  21.5994333  50.1514101  59.0677834  78.6941862  52.5355577
  58.5720396  79.3401766  52.0323992  58.5826397  77.8771400  52.4202013
  58.4518433  68.2499456  61.9710302  59.1320801  68.7630844  62.4071455
  57.9201174  68.8992548  61.5107107  79.4787836  46.0643768  26.6704822
  78.8559580  45.8296394  27.3583889  80.3210926  45.7400417  26.9891596
  74.1242886  56.4603090  53.3037090  74.5927572  57.0206308  53.9224243
  73.3874607  56.1125040  53.8060522  78.7300634  69.2998695  71.1961842
  78.4705448  69.9952078  70.5917120  79.0055561  68.5798025  70.6288719
  74.2248126  21.2562441  46.4445829  73.9313671  21.7019819  47.2392130
  75.0694486  20.8738493  46.6824770  36.9942646   2.7317308  71.7445040
  37.5019436   3.5010027  72.0028019  36.0877876   2.9644846  71.9453907
  65.0396444  44.8827965   3.8640573  64.9102785  44.7845395   4.8073700
  64.1731645  44.7315819   3.4864452  83.5215092  85.0898361  63.8596296
  83.5474014  86.0426998  63.7723637  82.5952148  84.8862743  63.9891481
  40.1123716  46.4499505   1.8000772  40.1877357  45.8750184   2.5616529
  39.2034246  46.7496426   1.8152359  51.2767267  71.0535812  38.4231424
  51.6880655  71.8099976  38.8413119  51.6857529  71.0057592  37.5590563
  29.4628954  60.8689785  56.0715866  29.6059656  61.0173559  55.1368427
  29.6777225  61.7062998  56.4826488  63.2109118  66.6396093  69.4540691
  63.1891346  65.8312893  68.9418411  63.3445168  66.3481045  70.3559637
   6.0950451   4.3007349  10.5737448   5.6511622   3.5943388  10.1044893
   6.1920004   3.9709257  11.4670837  24.3642502   8.2221579  62.0761728
  24.7043400   9.1154360  62.1274233  23.4269791   8.3315634  61.9156027
  45.4429703  17.2679972  71.9255257  45.7121162  17.5213121  71.0425615
  44.7214203  16.6540216  71.7890882  77.6347494  61.2469482  60.6114578
  77.4735880  60.3989697  60.1977110  78.2266045  61.0505009  61.3376522
   0.6395491  72.1086073  50.5063152   0.8995398  71.2469912  50.1803541
   1.4091166  72.6601458  50.3656006  85.5990887  49.9224949  44.9278879
  84.8627377  49.5373535  44.4528246  86.2276649  49.2061234  45.0169706
   2.5216635  74.6674585  58.0796480   2.9313048  74.8330784  58.9287710
   1.5944251  74.8595142  58.2195187  63.7391376  82.5334644  59.1254330
  64.2483664  82.3026752  58.3484793  62.8713846  82.7533150  58.7864637
   0.4252776  59.2384815  32.0006514   0.4304942  59.3518209  31.0501981
  -0.4940740  59.3364477  32.2484946  67.0139885  44.8088598  56.6938782
  67.1048784  44.9699831  57.6330328  66.2431574  45.3151417  56.4375067
  38.2622147  67.2914028  39.0801239  38.8088679  67.6042175  39.8009229
  37.4443984  67.0228863  39.4988203  14.2406826  13.5186361  67.3904181
  13.4896212  13.8860106  66.9244003  14.0061884  12.6024126  67.5380087
  39.7661374   3.3447749   1.9820192  40.7104323   3.3693224   2.1367242
  39.6551488   3.7359244   1.1154678  85.1894781  13.5883211  43.1247807
  84.9242994  14.2096399  42.4466372  84.4228479  13.0290674  43.2502508
   6.5784796  82.1643925  60.4411936   6.0385855  81.4024639  60.6514406
   6.4112242  82.7805805  61.1543322  56.7786312  74.2049885  43.6985445
  56.6779184  73.4542370  44.2837429  55.9147501  74.6170568  43.6867428
  25.3321910  18.3253860  36.1709118  25.0805807  17.8725040  35.3660369
  26.1978626  17.9756498  36.3819218  68.9778621  70.5030573  53.5972071
  69.5403297  70.1583732  52.9036236  69.4126607  71.3073147  53.8806725
  75.5429048  59.9798513  40.4771805  75.7271440  60.2235247  41.3843250
  74.6602399  60.3124643  40.3143787  85.4298277  75.1065637  61.0421515
  84.6932716  75.4108990  61.5723324  85.1760049  75.3080154  60.1414728
  76.3775781  33.0478454  60.0662327  76.1963681  32.1079540  60.0673056
  77.0924310  33.1546593  60.6937742  39.4688034  11.7142844  26.6461992
  38.6890650  11.4890635  27.1536613  40.1356602  11.0958230  26.9445920
   4.5479301  82.3213447  40.2007198   3.9392952  81.6455082  40.4991150
   4.2785839  82.5058551  39.3009186  11.9637898  80.2644528  24.0814376
  12.6029900  79.7122283  23.6312079  11.1193732  79.9995584  23.7167168
  67.8030014  12.1896446  11.8179715  67.9086018  12.9040396  12.4462378
  68.4262276  11.5228748  12.1064854  21.4847401  80.9472913  49.6070910
  20.9411219  81.5393979  49.0873623  22.2616223  81.4630336  49.8231792
  27.4179769  21.9709826  43.4685087  26.8834496  21.1787868  43.5226870
  27.2793651  22.4112582  44.3070650   3.2811836  74.3436552  45.7749748
   4.0706304  73.8039852  45.7329893   3.3079270  74.8697699  44.9757767
  24.5287779  39.4646383  37.6663995  25.2323512  39.9660803  38.0784321
  23.8974169  40.1260067  37.3831987  57.2297812  11.0086524  23.9045739
  57.4229288  11.5940309  23.1722784  58.0883312  10.7760584  24.2581630
  50.8632968  36.0631590  51.3158486  51.6578983  36.1055170  51.8478677
  50.2873968  36.7287641  51.6920683  31.6255164   7.6926202  58.1819677
  32.4475956   8.1705487  58.0724239  31.4607143   7.2999096  57.3247337
   9.4390873  46.0204960  34.2659974  10.2206496  45.5343748  34.5288277
   9.1463283  45.5877853  33.4639478  37.6472402  -0.3064967  51.1659813
  36.9555426   0.3456064  51.0539627  38.4039569   0.0669815  50.7141829
   8.9810401   3.2175541  60.2897310   9.2897409   2.7382112  59.5208549
   8.5369635   3.9857471  59.9306917  76.6869767  78.9579637  25.3769135
  76.5150471  79.5886845  24.6777248  77.1638734  79.4584198  26.0389900
  46.8961716   8.6968821  16.1061239  47.8464651   8.5931581  16.1552262
  46.6401339   8.1950766  15.3322589   5.7732910  32.1115685  -0.0778363
   5.6181741  32.4193764   0.8151501   5.0854582  32.5276256  -0.5974649
   5.9630517  72.6614929  53.1993961   6.0322217  71.9695760  53.8571930
   5.0273827  72.7139736  53.0044603  80.9755821  62.7592684  56.8900824
  81.1095161  63.3052779  56.1153793  81.8427725  62.4044896  57.0858955
  16.1212683   6.2897193  18.1857622  16.3757527   5.4673719  17.7671754
  16.5406168   6.9678646  17.6561415  82.1302290  76.7966468  53.4253311
  83.0427785  76.8952466  53.6969328  81.6267724  77.2263486  54.1167927
  38.8512754  10.8774996  51.3319921  37.9055405  10.7875383  51.4491367
  38.9573979  11.7093503  50.8704805  86.6386933  72.5660885  60.7643557
  86.2560768  73.4188021  60.5576801  85.8866281  71.9796611  60.8464146
  79.9911578  65.8003212  22.5402904  79.3500693  65.0915385  22.5938106
  79.8567636  66.3058675  23.3419085  15.1723603  75.7618357  36.3443947
  16.1050681  75.5654443  36.4322519  15.1073912  76.7001511  36.5220904
  24.5320249  27.9800487  61.2533951  23.5894322  27.8198481  61.2076998
  24.9261093  27.1098924  61.1920977  37.6606727  20.5827165  25.2941346
  38.1462383  20.9638405  26.0257101  37.8233361  21.1781883  24.5625710
  11.0056520   2.3600505  30.2980137  11.1879385   1.6900939  29.6391034
  10.8297384   3.1528082  29.7912383  64.1162392  28.8809486  16.9357517
  64.3411013  29.3962379  17.7104404  63.3551594  29.3268927  16.5640953
  24.7421101  66.5010024  62.0138454  24.0413550  66.6727425  61.3848162
  25.1315716  67.3596717  62.1788836  82.9191155  67.0612217  26.2161303
  82.4957604  66.3729800  26.7292833  82.2819824  67.7754224  26.2016106
  47.3636341   0.4064145  67.2298193  47.4803209   1.3501495  67.1203661
  46.8341970   0.1417007  66.4775848  67.7489659  36.1421069  17.0452812
  67.5619694  37.0756968  16.9469192  68.6376187  36.0386779  16.7049434
  89.6542834   2.6338762  41.0165787  90.4578814   2.7612191  40.5123520
  89.2906944   3.5139513  41.1140585  40.5027580  10.5181468  59.9742365
  41.0453749  10.2302027  60.7083273  41.1239719  10.8925462  59.3496084
  71.2873840  16.7482722  48.8867378  70.5450630  17.3489082  48.8202143
  71.1926556  16.3450801  49.7496986  76.9255637   4.6057408  68.9527098
  75.9926365   4.8159044  68.9113066  76.9673728   3.6657946  68.7766871
  31.0617614  31.3666821  34.6711659  31.2743115  32.1722770  34.1999197
  30.1103449  31.2906814  34.5986104  87.1037455  69.1238535  64.6140957
  87.4267120  69.9029983  64.1614819  86.1729975  69.2972876  64.7550344
  77.0938773  81.7042602  72.3069572  76.1513801  81.8189056  72.4285555
  77.4170597  82.5811137  72.0998001  11.1715678  72.1225441  58.0901766
  10.6142310  71.9760586  58.8544750  11.1661223  71.2855388  57.6258230
  82.6960177  75.8211018  45.3088808  81.8162317  76.1164350  45.5433750
  83.0032344  75.3466488  46.0813713  35.0536561  16.1282372  51.5763283
  35.1191998  17.0641589  51.3866329  35.9583378  15.8161056  51.5574980
  56.0042763   1.0545283  27.2111297  55.0997114   1.1494467  27.5094461
  56.4462471   1.8403080  27.5327516  75.3325851  58.3312727  25.6633139
  74.4148571  58.4842063  25.8882976  75.7108791  59.2076279  25.5916882
  75.4059024  65.7842351  44.4752455  75.8027561  64.9946881  44.8431540
  74.5998521  65.9035064  44.9775314  86.8229531  42.6743046  73.3470241
  86.9243811  41.7968905  73.7159264  86.5780114  43.2211297  74.0934949
   5.9406764  21.1389129  45.6968710   5.1943166  21.0221856  46.2847111
   5.5572326  21.4748900  44.8867342  35.0352597  28.0460477  55.1183605
  35.5106282  28.7028122  55.6271982  35.7202172  27.4984193  54.7347307
  72.5147576  59.2968989  36.2802815  71.6820772  59.5271541  35.8681440
  72.2702904  58.7395931  37.0191193  73.2417412  61.1638928  46.8375349
  72.6714320  60.4851676  47.1985197  73.5878463  61.6191102  47.6051426
  78.2932002  84.6542407  62.6056671  77.6932604  84.1259054  62.0792007
  78.8477273  85.0979663  61.9639206  74.4540215   2.0686752  35.0175500
  73.5876751   2.4426486  34.8568559  74.4640732   1.2593496  34.5065475
  66.6450214  33.2144761   6.7363316  66.2948847  33.7441325   7.4526423
  66.3583279  32.3231363   6.9352156  39.7336173  27.8061628  29.6557927
  40.1637411  27.2789645  30.3290582  38.8199735  27.5214219  29.6760011
  26.6956118  79.3576897  58.4408617  26.6925601  80.1564820  58.9682627
  27.4050025  78.8306213  58.8085556  44.2982721   3.2456335   0.2452546
  44.8053312   3.6017692   0.9748396  44.1532040   3.9941072  -0.3335145
   5.4255847  77.7290303  13.4434855   5.4309753  78.6805744  13.3397210
   6.2790040  77.5249631  13.8259292  48.7719059   5.8872068  42.3530483
  49.6112156   5.7754511  41.9066191  48.6861706   5.1068747  42.9007387
  84.3847248  63.6866578   3.7674024  84.0204784  64.1488322   4.5223501
  83.6574766  63.6298212   3.1476381  43.6047220   6.7500275  44.3190670
  43.4918785   5.8898735  43.9145470  44.5266581   6.9633573  44.1750145
  44.1499329   0.4152449  69.7037506  45.0591946   0.5453887  69.9730825
  44.2064285   0.1704626  68.7801027  68.6949069  70.2897681  47.4532557
  68.4757883  70.6347550  48.3188200  68.8648016  69.3596054  47.6021290
  76.8887134  63.8735271  59.3277025  76.7663009  62.9680992  59.6130943
  77.3454530  63.8008262  58.4896469   9.4543413  75.7928766  44.7701025
   9.7470168  76.6825874  44.9675608   9.8370293  75.2554048  45.4635763
  19.0776185  66.9598080  50.7740498  18.4732035  66.3864184  50.3027344
  19.5553521  67.4221254  50.0853777  72.2905476  64.5738150  70.4490042
  72.7634902  65.0960637  69.8010731  71.5035672  65.0842048  70.6397867
  52.8149414  18.2743359  45.2813578  53.6087084  18.0934811  44.7779083
  52.2698832  18.7941360  44.6906376   0.6263617  76.4020408  36.6340375
   1.1627654  75.8260287  36.0893250   1.1836389  77.1624858  36.7995572
  21.6293025   9.0172315  22.6204491  21.7393541   9.9565852  22.7678776
  21.6876960   8.6292952  23.4935641  78.1780536  69.2979146  46.1260319
  78.1060715  69.9388028  45.4187059  78.1214256  68.4492434  45.6869602
  90.5395074  85.2519997  63.0600023  90.5011196  84.7775472  62.2295475
  91.4659662  85.2396193  63.3003139  34.2468527  77.2771574  33.1566501
  33.4811858  77.0036758  32.6514912  34.4869355  76.5029366  33.6657429
   1.7247585  56.1786700  41.8984699   1.8137363  55.4862810  41.2435532
   2.2014550  56.9214655  41.5279961  29.1635776  18.3645117  74.2168379
  29.6524215  17.5616372  74.0361214  29.8172975  18.9689898  74.5682478
  50.2461195  79.1268620  15.2510574  50.1921082  79.6318135  16.0624340
  51.1777496  78.9302668  15.1528671  86.0565729  45.5349518  49.8569584
  85.5346651  46.1541511  49.3466330  86.8204613  46.0392738  50.1368952
  10.5228834  20.9628995   8.5100010   9.6437149  21.3381513   8.4602001
  10.6512575  20.7761439   9.4399860  64.5119913  45.1576258  19.8764277
  63.9732127  45.9381987  19.7473788  64.1995950  44.5391155  19.2160594
  26.8364000  13.4812903  67.0817137  27.2828913  12.7685404  67.5387335
  26.0827565  13.6857879  67.6352835  30.5992007  27.2426486  52.7964783
  30.7659817  27.8604460  52.0846224  31.4482498  27.1367955  53.2255983
  69.9798037  85.3912337  37.4610877  70.4419817  86.1094121  37.8933406
  69.9371726  85.6530012  36.5413642  55.7313032  71.7235554  33.6135125
  55.0843049  72.3082055  33.2187867  55.9998943  71.1461652  32.8988719
   7.9411703   8.9163905   7.4008006   7.9713130   8.3701944   8.1862897
   8.4774697   9.6787751   7.6184809  65.3756813  70.4684187  65.9301281
  64.8430372  70.7168127  66.6856527  65.4195360  71.2619925  65.3966951
   5.3131941  80.9802426  46.4062309   5.2611760  80.0307054  46.5153456
   6.1776212  81.2132500  46.7449093  46.7999887  16.1839330  31.6745710
  47.6822519  16.5019703  31.8661356  46.9328213  15.4706514  31.0502195
   9.4223589  16.6247678  19.4784629   9.3165451  16.2512076  18.6035419
   8.5694385  16.5031791  19.8955655  37.1990899  56.5784837  24.4161057
  36.9771746  56.8342710  25.3114057  36.3759211  56.2577845  24.0476251
  39.6855378  38.3554626  58.0549479  40.1118565  38.3960009  58.9110088
  38.9309955  37.7821875  58.1900501  63.3562781  80.1656617  54.3874454
  63.0849371  79.4841439  55.0023746  64.1283585  79.8028923  53.9532518
  64.5664024   5.8390754  34.3069482  64.9549150   4.9649757  34.2717290
  65.2822876   6.4081597  34.5895815  64.6748754  44.5758457  11.9529751
  64.3640133  44.8086905  12.8278282  64.5496150  43.6284380  11.8985584
  87.6050801  79.8148442   9.1223556  86.8522377  79.3769921   8.7251824
  87.4607558  79.7315831  10.0649428  34.8340654  23.9276171  72.3590422
  34.4712019  24.6451449  71.8396997  34.9022079  24.2837477  73.2449102
  46.1186123  19.4397449  49.3822002  45.6180429  19.9563622  50.0136852
  46.8543243  19.0924072  49.8864985   7.3517013  44.8088884  51.5420437
   6.6817945  44.1659927  51.3093615   6.9520384  45.3298712  52.2385216
  71.4624996  50.9839607  25.5375242  71.5756733  50.8166123  26.4731622
  71.7068751  50.1602531  25.1156044  73.9732988  76.2031240  52.1151447
  73.8547332  75.5845452  52.8359318  74.9208672  76.2403865  51.9849205
  89.6363743  35.0870252  61.9529390  90.0676688  35.0919938  62.8074503
  90.3131752  34.7898579  61.3447714  68.3800602  33.0274773  65.2840662
  68.8974571  32.5051641  64.6711111  68.6741877  33.9268970  65.1399517
  16.4769840  22.1551728  41.9633579  16.1347950  22.8392458  41.3878727
  15.7222056  21.8804932  42.4840260  40.4952860   8.9506203  48.1079721
  39.9900699   9.7625023  48.1508303  41.1223841   9.0204680  48.8277626
  35.2920675  22.1137357  27.6400137  35.9566641  22.0549750  28.3263755
  34.4646835  22.1962500  28.1142044  59.0025861  78.6488635  73.7995195
  58.6622011  77.8030778  74.0910959  58.8360680  79.2400403  74.5336962
  90.4664843  24.3221760  50.0696802  91.2976468  24.0755320  49.6640110
  90.6899588  25.0494432  50.6505156  84.2821927  82.4463699  51.2895203
  84.2848821  81.4928580  51.3734245  84.4725962  82.7649845  52.1718264
  70.2782679  27.2833157  55.0159168  70.5628204  26.9803524  55.8781624
  69.5445347  27.8703094  55.1984167  32.9393911  24.6948481  56.8895912
  33.6038804  24.9241781  57.5392771  32.9240441  25.4402542  56.2892914
  22.7590541  68.4315778  38.2202172  23.0365685  67.8663171  38.9411163
  21.8137911  68.5244645  38.3389187  45.2010822  15.3991163  35.5706668
  44.7986841  15.9126747  34.8702621  45.1806355  14.4978499  35.2489018
  23.5492209  66.4630700  49.2994976  24.2453841  65.9484769  49.7078943
  23.6470917  66.2969054  48.3619261   4.4677988  14.4514215  56.7910957
   4.8715359  14.3351924  57.6511621   4.5909178  13.6093438  56.3529396
  82.4734095  23.3621144  45.8239937  81.5256605  23.2287240  45.8094740
  82.8048465  22.8023815  45.1217937  86.6609342   6.7157006  44.5344305
  85.9479091   6.5327179  45.1462698  87.0018393   5.8528203  44.2989445
  67.1651806  46.6817142  19.1403258  66.3644232  46.2695671  18.8160491
  67.8284932  46.4646412  18.4852469  42.5558885  65.6927832   6.0007885
  43.1489881  66.0108813   5.3201416  42.9624638  65.9704431   6.8216541
  10.8819842  16.5746784  33.5847926  11.8324912  16.6537249  33.5040402
  10.7535505  15.9045315  34.2560911  44.7482852  81.4690260  50.3106308
  44.5388058  81.8567527  49.4609165  45.4677132  80.8648134  50.1273823
  39.4304729  18.0883300  29.0894747  39.1330481  18.0403924  28.1809187
  40.1276636  18.7441087  29.0789747   5.0571340   5.0128573  56.7918110
   4.8639986   5.0455725  57.7287531   4.7401178   4.1541952  56.5117550
  90.8391924  74.3293239  38.0111456  89.9112911  74.5468939  37.9223061
  91.2900658  74.9775804  37.4701190   5.3889513  25.3396320  21.7836881
   6.1659968  25.8920956  21.6987491   4.8427835  25.5776572  21.0345054
  24.0440014  75.4251982  63.1890440  23.0964688  75.3729392  63.3142757
  24.3088416  76.1996520  63.6853456  52.2874355  16.8423998  32.9441547
  51.9904566  17.6129282  32.4600863  52.1640444  17.0753884  33.8643312
  39.5599055  21.2342787  49.8377037  39.7584081  21.0067081  48.9293861
  38.9921021  22.0022130  49.7736168  10.9393338  81.6405264  35.5501795
  11.1430815  82.4190090  35.0318313  10.5435923  81.9831938  36.3515520
  90.3278624  11.4980829  13.2338572  89.7915185  11.3980699  14.0203464
  90.9832618  12.1535659  13.4726596  50.1721859  16.5897465  55.0253057
  49.8167992  16.4873445  54.1424417  50.2267885  15.6971049  55.3665400
   8.6970145  14.4459140  40.7240248   9.6148801  14.2306447  40.5584526
   8.4048390  13.7835205  41.3502026  32.6977468   8.4828675  66.1612749
  31.8165517   8.1151211  66.0942411  32.8258014   8.9499342  65.3356314
  20.6591109  71.0055173  65.0010252  20.0677994  70.5911387  65.6294155
  20.9780005  71.7873777  65.4518414  61.6225241   1.7142122  72.4209880
  61.6758369   1.9290226  71.4897269  61.8885802   0.7960718  72.4706208
  76.4865736   8.4978735  54.2048454  76.2782685   9.2947632  53.7171888
  77.2703174   8.7220687  54.7065544  90.5418320  75.7283510  49.0429354
  90.5559368  75.2672196  49.8816204  90.3175683  76.6308845  49.2695856
  22.3036173  54.5477081  20.2332497  23.2311610  54.5793129  19.9989510
  21.9857768  53.7332202  19.8436117  38.1001210   3.2002586  63.9483356
  37.2223926   2.8302866  64.0429068  38.0323195   4.0772745  64.3257952
  85.4061432  77.9667176  42.4957371  85.8892603  78.5277457  43.1024313
  85.2513547  77.1599866  42.9871225  88.6504814  34.5429262  20.2861526
  88.6115810  35.4980036  20.2356937  87.9808971  34.2431297  19.6713283
  17.6914990  41.8071413  55.0407743  17.5954461  42.7258205  54.7897053
  16.9489205  41.3669252  54.6272326  89.2529657  11.2422884  41.8891382
  89.0770861  10.8431685  41.0370827  89.4679756  10.5042756  42.4595261
  30.3100157   2.3699118   5.1616448  29.5307446   2.0530435   5.6183314
  31.0210538   1.8207242   5.4918718  72.0991464  82.2385151  39.8341537
  71.7388756  81.5837581  39.2360473  73.0061371  82.3498935  39.5492077
  12.0794228  77.2379644  46.0153437  11.3438395  77.7954734  45.7617092
  12.6424864  77.2176136  45.2415371  25.5025101  16.1263883  52.5191212
  25.9270859  16.7799854  51.9634438  26.1701345  15.8890986  53.1627083
  72.4059296   4.7588620   5.4086041  71.5624762   4.8095459   5.8583200
  73.0109549   5.2314508   5.9802991  78.2712479  66.4215566  63.5868454
  78.2964261  65.5503679  63.1910849  77.3604126  66.5350355  63.8583899
  81.1403794  79.7796495  59.3962097  80.2191276  79.8116452  59.1383362
  81.4788456  78.9880253  58.9778757  89.9171300  73.8997389  51.6936398
  90.6271453  73.2982446  51.4693356  90.3426285  74.5971573  52.1924257
  16.1332635  81.6594602  72.1719933  16.8618373  81.9946773  71.6494656
  15.4853514  81.3773359  71.5263557  30.3338983  75.3819068   3.1096580
  30.9346154  76.0195859   3.4953191  29.7761626  75.1075443   3.8375929
  52.7194691  23.4261274  61.5517521  53.1108141  23.3798814  60.6794310
  53.4669018  23.4294295  62.1497154   4.8213652  71.4112950   8.3991104
   5.2759651  71.1493445   9.1997063   4.7871188  70.6135775   7.8711855
  27.1119308   2.2263654  66.0572529  26.6492891   2.6579154  65.3389502
  26.5207291   2.3071089  66.8057108  52.7526852  19.8052557  22.4803951
  53.5199496  19.3300088  22.7992656  52.9460355  19.9821075  21.5597656
   8.2326535  73.2354201  61.6705990   7.4739746  73.4475816  61.1268806
   8.7316803  74.0510798  61.7142105   7.1859695   4.3979294  26.0242107
   7.9782416   4.8439581  25.7248905   7.3539354   4.2045004  26.9464996
   8.7936378   7.9260492  29.1595459   8.2488143   7.1402955  29.2041659
   8.2033646   8.6406744  29.3985462  77.4862714  50.0174428  42.9550171
  77.5368781  49.1525842  42.5479650  77.5805254  50.6309844  42.2263765
  88.2947464  62.7048565  32.8091502  88.8727231  61.9772268  32.5795245
  87.8735895  62.9457880  31.9840384  80.0103385  46.6287971  40.8533001
  80.1275535  46.5734554  39.9049163  79.1298099  46.2859918  41.0062122
  51.5523148   3.8835135  58.3285618  50.6475019   4.1749144  58.4409475
  51.7692089   4.1182080  57.4262857  38.3926392   0.7183308  61.2446976
  39.0911078   1.3714279  61.2875652  37.9588723   0.8861108  60.4080820
  36.4657116  18.8182056  62.7403641  36.1432838  17.9235423  62.8492165
  35.6747055  19.3567312  62.7173471  22.4898458  13.1512725  50.5702543
  21.7272615  13.2391846  49.9984407  22.1654391  12.6667202  51.3293314
  70.3467114  64.7624184  31.4732456  70.3854300  65.6442977  31.1030793
  70.0060828  64.8891021  32.3587704  23.8946438  22.1933651  51.7620707
  23.1798482  21.8959022  51.1992073  23.6590910  23.0917382  51.9937468
  22.9100064  75.0801362  44.1794300  22.2157076  75.3320814  44.7882843
  23.6636284  74.8937620  44.7393894  60.0605285  71.9579280  27.8753328
  59.2566809  72.4711550  27.7937317  60.7216876  72.5911964  28.1547451
  23.8086108  60.0109673  51.7807388  24.5475510  60.4398085  51.3491249
  23.9693431  59.0754319  51.6575670  76.2563610  23.9297748  64.4568062
  75.8867407  24.7653842  64.7420645  77.0128870  23.7951994  65.0275898
  42.0667505  15.1354456  21.7910314  42.1247482  15.9720731  21.3295937
  41.2187195  14.7762907  21.5301061   5.2941823  11.1009717  36.7773509
   4.7236282  10.3456843  36.9196177   6.0535514  10.7440996  36.3166618
  55.6749530  80.0565124  30.6349564  56.4015062  79.7552247  31.1804628
  55.3023363  80.7939459  31.1182594  84.1332979  63.1251789  24.6102357
  84.7495861  62.7442194  23.9847040  83.8755531  63.9582206  24.2154694
  32.4863052  24.5855141  50.1132298  33.2593560  25.0590205  49.8059559
  31.8041158  24.8028040  49.4779062  52.6203532  75.0237108  53.6764240
  53.0247678  74.4093646  53.0638409  52.6326395  74.5665241  54.5172930
  36.4264607  26.9208741  50.9005404  36.9202709  26.6435480  51.6722059
  36.8070245  26.4192033  50.1796150   4.8633579  77.9136009  47.2572947
   5.2123932  77.3719896  46.5494347   4.0747408  77.4533428  47.5444794
  42.8234482  12.1340013  59.8266697  43.2556295  12.1807194  60.6794691
  43.4412909  11.6591990  59.2707348  48.7308598   5.6686205  49.9118710
  47.8557491   5.9540659  49.6493149  48.7064600   4.7152486  49.8299074
  37.6500607   3.9261633  43.5992575  36.8083930   4.1852999  43.9743280
  37.4584246   3.1252867  43.1112957  18.2092774   8.0111575  12.2606301
  17.5251102   8.3752513  11.6988635  17.8243220   7.2115433  12.6193202
  38.5261420  84.1737399  47.2003365  38.4819153  84.5289297  46.3125753
  38.2059888  84.8826534  47.7581644  88.9302921   3.6802968  36.0964870
  89.0707016   4.6101922  36.2748528  89.4229889   3.5134876  35.2929592
  81.2869378  38.1426173  10.4812935  81.2109300  37.2486546  10.1476982
  82.2212192  38.2539879  10.6572178  30.6428555  41.9361092   0.5749001
  31.2107876  41.2307192   0.8849117  31.0668257  42.2517515  -0.2231285
  12.2344291  14.2658806  25.6944323  13.0351853  14.7902715  25.6884193
  12.2775471  13.7722361  26.5133882  32.4973154   2.3777826  37.2467184
  32.8547668   3.2542804  37.1045446  32.8734159   1.8487294  36.5432382
  43.2593393  12.2298515  26.1540914  42.3429823  12.1764898  26.4255190
  43.2225847  12.5176787  25.2419329  20.4995179   8.4486657  69.8137045
  20.9662366   8.5655028  68.9862013  20.3851366   7.5015986  69.8925257
  69.8357199  15.3206747  65.3899655  69.9815987  15.9443467  66.1012915
  69.0619730  15.6530612  64.9349180  36.1718416  50.2898026   7.8506017
  36.6458845  50.7829428   7.1810287  35.8322597  50.9586620   8.4451967
  27.0605874   9.6809649  59.6932459  27.9182744   9.2930567  59.8668289
  26.7773485  10.0248444  60.5404472  31.3667464   2.4125668  50.9247923
  30.7784319   2.1928445  51.6471767  31.2114859   3.3433181  50.7640791
  39.8818159   7.0601541  43.9052629  40.4510450   6.3197339  44.1149855
  40.1248360   7.7358919  44.5381498  39.1290212  26.5976357   8.9210629
  38.4031868  27.0891047   8.5365456  39.4271636  26.0210657   8.2175642
  36.2042645  81.2144772  55.3010130  36.7775801  81.4151267  54.5612288
  36.3369635  81.9404046  55.9106445   7.1991352  67.7042461  28.8647342
   7.2329262  68.5832358  29.2421842   6.7203048  67.1845711  29.5104051
  70.5140305   7.1726084  57.6770306  70.0900698   6.7494780  56.9304037
  69.9394655   7.9067034  57.8943205  44.4417620  23.8168263  51.7699337
  43.8964462  24.4231462  52.2711706  45.0703621  24.3787074  51.3167429
  59.0074492  41.8610287  66.4605618  58.9310217  41.7076349  65.5188274
  58.8613462  42.8014851  66.5626764   0.0041226  78.2441671  52.7451372
   0.3181223  79.1037703  53.0257034   0.4516462  78.0852468  51.9140530
  16.6659296  26.3448024  64.7662497  16.4222789  26.7511225  63.9345217
  15.8512402  25.9645891  65.0948095  60.3792048  24.5764041  67.3540497
  60.4784346  23.8571811  67.9778337  59.5941353  25.0398660  67.6457787
  11.4378861  83.1509090  58.4290504  10.6187037  83.2206673  58.9192581
  11.7296628  82.2513420  58.5769653  44.3064451  19.1603065  66.8570232
  44.5514727  18.3784902  66.3620949  44.3397045  19.8700261  66.2156010
  22.5096921  79.3402863  41.1088800  22.6320628  78.5136057  41.5756321
  21.5661648  79.4976623  41.1437988  37.5252175  17.1626866  57.5659132
  36.9767785  17.3706603  56.8094778  38.3190751  16.7831826  57.1890831
  52.3275852  15.9923267  43.2204437  53.2599163  15.8271992  43.3608866
  51.9758701  16.1413562  44.0981245  77.8739282  41.1270854   6.2518242
  78.1244346  41.2179377   5.3324630  76.9175025  41.0914666   6.2370708
  59.3955660   5.3121823  52.0606470  58.7143517   4.6458840  52.1513414
  58.9278889   6.0946786  51.7687416   8.0432514  64.1310550  39.4334078
   7.6653198  64.6464778  38.7208486   8.5448459  64.7641469  39.9470520
  71.6190345  76.9474978   9.7495520  72.2324748  77.6536263   9.5463157
  71.6140981  76.4009447   8.9637482  65.3430128  31.5576220  21.7319369
  64.9534273  32.0742631  22.4372983  65.8260393  32.1954656  21.2065101
  17.7666473  41.0303783  28.5706449  17.0995295  41.4177990  28.0039930
  18.4297597  41.7145634  28.6623263  85.1182170  55.9445883  13.6546040
  85.8683128  55.9816147  13.0611277  85.5001445  56.0248280  14.5286322
  65.6093550  11.5887272  30.6018496  65.5944633  11.4189363  31.5437531
  65.2111053  12.4540889  30.5081463  57.4338818   9.6546453  64.5152521
  57.9969406   8.8806301  64.5052290  56.9149160   9.5836997  63.7140846
   1.1567310  72.5852884  45.9553003   2.0777539  72.8264535  46.0542297
   0.6739405  73.3431102  46.2852287  24.6990323   7.8497958  43.9282131
  24.5908427   7.8609395  44.8792124  25.3365874   7.1540731  43.7678242
  35.9816551  11.6824412  40.8053589  35.2561808  12.2985876  40.9067631
  36.0002470  11.4864135  39.8686290  89.1086265  42.9659071   2.9789379
  88.1696006  43.1242476   2.8820303  89.2079040  42.0236117   2.8430870
   4.8453311  78.5735417  28.7748981   4.8011449  78.3337838  27.8492641
   4.7273139  79.5234109  28.7821746  64.8512697   5.2075160  40.1004887
  64.4463778   6.0146725  39.7830129  65.6021357   5.5027241  40.6155491
  81.7996664  85.3075259  24.7237802  80.9162350  85.4811064  25.0488210
  82.1594996  86.1739241  24.5337653  64.1858482  26.7945957  20.3848720
  64.4814634  27.6288819  20.7493019  64.4892025  26.8088293  19.4771242
   4.9481538  67.2590066  57.0112228   4.4684914  67.3053540  56.1841774
   5.8503893  67.0685185  56.7544842  14.1861704  73.4757126  51.1878109
  13.5262946  72.8677798  51.5212965  13.8048771  74.3426932  51.3263464
  14.5226014   4.2627245  27.2522020  15.0605798   4.4623020  28.0183482
  13.6716175   4.6545780  27.4484396  12.5885228  77.5445450  71.6167784
  11.7657307  77.6477427  71.1386681  12.7798775  78.4190286  71.9557381
  12.4487189  75.8230842  24.8497558  11.8877438  76.0127915  24.0977216
  13.3274869  75.7428730  24.4788671  16.3349274  80.4103131  38.1240153
  16.7827872  79.6926839  38.5719657  16.5453271  80.2836032  37.1988630
  63.0182811  51.7563494   9.5429733  63.7400290  52.0925744   9.0116909
  63.3469840  50.9306397   9.8984840  24.4357395  11.0848916  16.5565836
  24.1369557  10.1763678  16.5172982  25.2547574  11.0893083  16.0611820
  49.0212107  17.9924631  43.1444359  49.7993755  18.4518111  42.8286982
  48.4344435  18.6893272  43.4382343  54.8344374   8.6151773  43.0471516
  55.6611156   9.0709972  42.8888273  55.0872707   7.8114504  43.5013866
  72.5859499   5.2492374  57.3289680  72.2756290   4.9642444  58.1884527
  72.0612478   6.0246670  57.1299028  30.8977652   4.7193706  48.0010462
  30.0059652   4.9872744  47.7793407  30.9919834   3.8517934  47.6077747
  46.4596796  26.5298438  54.9369764  47.2371101  26.7245555  55.4603481
  46.1167336  27.3883891  54.6889496   6.0654342   9.3668449  64.4498444
   5.2165908   8.9733338  64.6519470   6.0867316   9.4125861  63.4939766
   7.2727811  33.8887525  43.0605888   6.7852664  34.6962261  42.8976631
   7.9752040  33.8977242  42.4103928  55.8178088  78.6373909   7.8340557
  55.7239958  79.5898899   7.8472068  56.4579030  78.4502610   8.5207107
  55.2512217  11.3049996  40.3119564  54.9155378  11.8366539  39.5902276
  55.9096718  11.8588698  40.7313633  47.6324654  27.4549484  66.0039902
  48.0772734  26.8247485  66.5707541  47.8382921  27.1648145  65.1153421
  36.5842485  24.7312498  42.1317005  35.6904745  24.4628859  41.9186640
  36.8080902  25.3741884  41.4588308  79.4368954  55.5587603  56.8941355
  79.9548669  55.6459690  56.0939312  79.5329864  56.4030195  57.3348475
  21.0179472  54.6015978  16.1741698  20.1188898  54.5190096  15.8561945
  21.2319469  53.7333441  16.5155959  45.2625513  26.4103508  71.6465473
  44.5417547  25.7853508  71.7243910  45.6927729  26.3874722  72.5013113
  23.9833641  42.3617792  26.8000722  24.3711448  41.5223312  26.5527034
  24.6874690  42.8270531  27.2517204   6.1088270   8.6244345  23.9654660
   5.9198791   9.5616090  24.0127397   7.0612592   8.5679495  24.0423703
  18.9728665   1.1137059  35.6236434  19.0732753   0.1660514  35.7136464
  18.2371771   1.2204107  35.0206470  80.1395137  77.1976138  32.3194361
  79.7615094  76.3223017  32.4041319  80.9094186  77.1820612  32.8879762
  53.9700222  11.9281948  46.7594624  53.9653254  11.5618980  47.6437902
  53.7490368  12.8515077  46.8814850  38.8641548   4.5323050  17.7511430
  38.0193353   4.4545260  17.3078990  38.6710238   4.3439257  18.6695361
  57.2391224  20.6057906  28.3147645  57.0500660  21.1417627  29.0849733
  56.4836788  20.0231171  28.2371402  17.9934514  34.5349693  12.2142029
  18.4104252  35.1858139  12.7787971  18.1629133  34.8456621  11.3248301
  45.2431393  29.1652727  19.1442311  44.6888161  29.7549057  18.6330676
  45.7534456  29.7457409  19.7089267  82.5958007   7.2249920   2.6195457
  82.5884311   8.1736166   2.7471807  83.3178370   7.0708973   2.0103243
  16.5708092  70.5835236  53.5746861  16.8155602  69.9186839  54.2183590
  17.2923640  71.2122012  53.5934973  25.4858140  72.9737199  63.7874460
  24.8870686  72.2396530  63.9248514  25.0434188  73.5262681  63.1430817
  36.8568659   4.1920677   4.6534351  37.4981976   4.0997419   5.3579944
  37.2812319   3.7998223   3.8903564  30.5295134  22.9740262  22.4078274
  29.7012615  22.9598522  22.8874397  30.6298614  23.8845110  22.1300149
   5.1590804  82.6434142  56.2682295   5.1573208  81.7176215  56.0250473
   4.3729404  83.0009667  55.8554649  86.1474201  69.8933800  21.8472889
  85.5319044  69.2051753  21.5948036  86.8567058  69.4290718  22.2917679
  44.4162846  31.8435645  64.1822195  43.7330961  31.7936778  64.8508024
  45.1349592  32.3104739  64.6085262  26.5887192  68.2007862  29.4483352
  25.7290152  67.7817632  29.4878483  26.7115286  68.4086038  28.5220718
  29.5217586  23.4120321  13.7792158  30.0461555  23.1625175  13.0183077
  29.7473216  22.7654362  14.4479966  45.9068891  31.0161003   1.8517711
  45.6624075  30.4326971   1.1333683  46.7214199  30.6471570   2.1933105
  63.6255614   4.9190816  30.7760191  63.8114253   5.0914198  31.6990495
  63.8558427   5.7336599  30.3291821  72.7967501   1.8972932  41.6205597
  73.3518648   1.2698993  41.1574650  72.8917217   1.6649391  42.5442600
  42.0630455  19.7546935  52.5934076  41.6400337  19.1466582  53.1996965
  42.9782867  19.7738492  52.8730536  70.2978894   6.3479908  11.9356468
  69.3611070   6.1899837  12.0527198  70.6321641   5.5355414  11.5556266
   2.9088262  59.9592758  72.4725533   2.9350904  60.7854296  71.9898415
   3.4769085  60.1056481  73.2289171   5.4871118   4.5009094  14.0342438
   5.9322798   5.2452958  14.4391465   4.5568824   4.7200674  14.0878606
  33.9845777   8.7919581  35.4085851  33.3622289   8.0647069  35.4130006
  33.5904884   9.4479334  35.9835815  31.2093663   5.0103658  40.1734972
  30.8925152   5.7461166  39.6495605  30.4959488   4.8267719  40.7846928
  37.4129323  76.6643781  27.9876924  37.7550391  76.7261202  27.0958495
  37.1837882  75.7409883  28.0929303  90.1184673  67.0891703  26.6416502
  89.2712660  66.8972493  27.0437026  90.7431288  66.5557648  27.1330833
   2.6609877  84.5023834  58.3088207   3.6167935  84.4881665  58.3584785
   2.4148801  83.5882459  58.1673431  33.3305958  86.2165829  42.9494524
  33.8787154  85.9089120  42.2275591  32.6202420  85.5770159  43.0002594
  11.1468819  85.6612174  24.5989633  11.0928134  85.3809078  23.6853242
  11.9720152  86.1433440  24.6531439  22.9786134   7.2709185  27.2129345
  23.2806826   6.9937408  26.3479733  23.7820673   7.4043679  27.7158141
  21.8398213   7.3699677  39.3435168  21.5584493   7.0386833  40.1963425
  21.2850118   6.9105268  38.7131715  60.0198793   4.8614386  63.2167912
  59.2168045   4.4491214  63.5350752  59.9174118   4.8825711  62.2653246
  25.6109643  22.1496725  54.8996496  25.6207967  22.4563694  55.8063316
  24.9425006  21.4646935  54.8857450  27.0154381  33.5797238  26.0254884
  26.4150953  34.2253208  26.3983464  26.4611554  33.0278230  25.4737592
  47.6486778   3.9326662  22.9472423  46.8858147   4.4865906  23.1128883
  48.3988619   4.4902098  23.1536460  32.7281404  11.2296808  67.8568745
  32.6317143  10.8809650  66.9706869  33.5254765  10.8184743  68.1906319
  77.6892063  41.7528074   3.5426977  76.9586536  41.8433965   2.9308822
  78.1597968  40.9759933   3.2404831  68.5776854  14.3464136  38.8578510
  69.4033384  14.6824980  39.2065263  68.4098768  14.8813879  38.0820465
  52.9322863   5.5047590  44.3939829  53.8814878   5.4125220  44.4760704
  52.6871824   6.0991019  45.1031446  90.0921411  69.5663250  51.6724920
  90.3764887  70.3427316  51.1902380  89.5468183  69.9102260  52.3800135
  43.2675961  72.0292665  65.6299591  44.0727929  71.8414510  65.1476574
  42.6346568  72.2719122  64.9541330  36.9233346  18.8685262  66.8409157
  36.9551611  18.9549673  67.7936745  36.0012317  18.9983213  66.6193151
   9.7146920  83.6566382  69.9207830   9.0301136  84.3129782  69.7911596
  10.4587535  84.1512413  70.2642584   3.3422880  28.4488805  17.4728325
   3.1348209  28.5190566  16.5410259   3.4653025  29.3537816  17.7596309
  24.8840857  12.8119874  53.5687208  24.5965457  13.6526799  53.9247990
  25.3402686  13.0385673  52.7582979  12.8265500   8.8789815  28.8110662
  12.2981131   8.2147074  29.2534757  13.7263370   8.5629165  28.8930416
  29.5796517  53.1729008  35.3380728  29.0922907  52.6276875  34.7204518
  28.9335803  53.4224416  35.9987974  32.9684520  13.9893448  31.3567686
  32.5779223  13.1155801  31.3407993  33.8934731  13.8418889  31.1597252
  29.6025681  14.3285239  60.4388285  30.2363944  14.8456502  60.9358978
  29.0325975  14.9786258  60.0280619  67.7448572  77.9082556  72.9352617
  68.4729690  78.5045565  73.1099319  67.6727254  77.3791588  73.7296677
  30.6947851  13.4777820  50.8108234  30.5033088  12.5434208  50.7299757
  31.6267061  13.5500193  50.6045771  84.1516585  70.7343603  38.7478304
  84.5040126  70.1454235  39.4150877  84.8168988  70.7419158  38.0596232
  45.1003798  60.2772399   7.0162132  45.9788951  60.6572624   7.0213249
  44.6898731  60.6122251   7.8133991  18.5703257  82.1471850  34.8656726
  18.3284644  82.4222998  35.7500052  17.7351836  81.9668145  34.4341278
  57.3395443   4.4518319  54.4215918  56.4802885   4.8402795  54.5859480
  57.2723293   4.0861475  53.5395575  34.3119502  14.7272158  23.2746506
  35.1638341  14.6181488  23.6972976  33.6788511  14.6504092  23.9884543
  59.3153095  17.9253805  25.6308770  58.3804035  17.7574170  25.5126524
  59.6601820  17.1117723  25.9987569  16.2132100  76.8536020  50.4414082
  15.5525807  77.5455917  50.4105425  16.0090140  76.3628585  51.2374640
   7.2990683  66.7493964  51.3815784   7.0329288  66.3216639  50.5676699
   8.0692557  66.2591041  51.6690779  61.2491627  62.1579600  36.9650078
  61.6241301  62.5542451  36.1785030  61.9990821  62.0166827  37.5428438
  59.4204664   8.5809088  62.5947762  59.7400284   9.4754046  62.7130556
  60.1366138   8.1275821  62.1499586  65.2092000  49.5613625   7.2873237
  65.0514718  50.1952656   7.9869869  64.5462247  49.7634198   6.6271236
  49.4224548   2.9008788  49.4276142  49.7536039   3.5276729  48.7844181
  50.2090502   2.5117069  49.8097801  66.8120432  48.9285183  55.8741903
  66.0268974  49.0394115  56.4103651  67.2685385  48.1854391  56.2687445
  27.4121789  74.5969749  26.2468123  28.3506039  74.4391073  26.1435175
  26.9968394  73.8077928  25.8990836  73.8100572  78.7156887  39.3232346
  73.5408421  78.4880150  38.4333372  74.6535916  79.1545684  39.2133880
  43.4607601  45.1270294  62.1861458  43.3806229  44.7487974  61.3105011
  44.2540503  45.6610775  62.1446848  40.3850365  10.4994595  17.7020204
  41.2822580  10.5293000  18.0341887  39.9334717  11.2029159  18.1683564
  33.9678335   2.5681910  53.8009548  33.2347536   1.9540535  53.7602091
  34.0439057   2.7891025  54.7292042  11.4552426  27.5287104  31.4481115
  11.3738275  27.2752047  30.5286908  10.5663240  27.4572349  31.7958879
  14.2385709  24.4073558  35.8287740  14.8411083  24.8999357  35.2715087
  14.7185850  24.2806149  36.6471601  51.9179249  60.9814215   4.5620510
  51.3569307  60.4543972   3.9930528  51.4634132  61.8205929   4.6358261
  63.5903215  34.8270917  51.4216042  62.9750395  35.2355170  52.0305777
  63.5612202  33.8956881  51.6404057  29.2434216  25.5343390  16.8804359
  28.5082388  25.0138140  16.5567195  29.4473672  25.1550817  17.7353060
  62.0083570  10.2295375  39.5680594  61.6844797  10.9009421  40.1685190
  61.2988472  10.1104951  38.9366651  70.4870415   2.2407475  37.3155022
  71.0503912   1.4990604  37.5363350  70.7075214   2.4468571  36.4071298
  24.2509280  76.8365591  73.5942918  24.2438142  77.4178259  74.3547590
  24.4194691  77.4161451  72.8513869  32.1885804  80.8960635  63.0557394
  31.4821986  81.1372031  63.6549902  32.4057702  81.7101852  62.6015711
  48.8215399  31.5404916  67.0550108  48.2204533  31.0625553  67.6264143
  49.4109058  30.8687925  66.7119455  13.7546900  70.2994014  30.5208397
  13.0659894  69.6850205  30.2669477  13.4281043  70.7072009  31.3228846
  30.3895807  11.7263842  36.8603563  30.4825211  12.6726437  36.7499590
  29.4759631  11.6039324  37.1183085   6.1373454  22.3639560  31.5316653
   6.6560018  21.7239261  31.0442328   5.7652473  22.9334569  30.8582830
  13.6165694  54.5228125  50.1962805  14.1878203  54.5864583  50.9616947
  12.7403906  54.7058440  50.5354595  52.0419455  11.6226888  62.1919394
  52.5875092  11.5862787  61.4062786  52.0923710  10.7403743  62.5596523
  12.5721434  75.2981735  52.8517056  12.2810916  76.0361970  53.3872795
  11.8701056  74.6524621  52.9319191   7.7227167  66.8092657  56.4060593
   7.9513553  67.3029853  57.1935892   8.5265354  66.8015731  55.8863974
  52.0789289   4.8174319  62.6253843  51.3697195   5.2063370  63.1372499
  52.1683455   5.3918612  61.8649435  60.1672506  13.8010144  63.7892532
  59.5934963  14.2824984  64.3852472  60.8145094  13.3883333  64.3610764
  30.2880573  25.2614951  55.8116007  31.1769080  25.0819755  56.1181068
  30.3366876  26.1414146  55.4379559  35.6261182  44.5917177  72.6568222
  36.4551544  44.8466635  72.2519350  35.8514380  43.8486004  73.2165003
  62.2543430   9.7691387  60.1612329  62.6796961   9.7343171  61.0180235
  62.3922253  10.6677568  59.8617220  20.0727868  21.7792487  73.9150524
  19.4475877  21.9562244  73.2121754  20.7094455  22.4914312  73.8542461
  27.6442695  31.4953923  35.0561333  27.9706860  30.6137800  34.8760080
  26.7012715  31.4377189  34.9023151  68.2742119   2.2413312  50.8591175
  67.9199266   3.0640528  51.1965227  69.2237902   2.3539373  50.9021473
  70.9400225  32.6416469  18.5069740  70.3863192  32.3088050  17.8006721
  71.3247967  33.4431124  18.1522405   8.3188324  50.1647296  10.0419452
   8.9744167  50.1774075   9.3445995   8.0522804  49.2474516  10.1034382
  77.9131746  24.2716980  49.3722725  77.3664856  24.9651194  49.7417688
  77.9435682  23.6013222  50.0548458  62.5946665   9.1381264  71.2328196
  62.1481323   8.5765016  70.5992413  62.1605158   8.9522648  72.0654058
  63.6766148  28.2815194  49.0992594  63.8442516  28.1811881  48.1622124
  63.7111998  27.3898363  49.4455814  61.3595959  19.5975407   1.8396118
  61.4163848  19.4470724   0.8960226  60.5490180  20.0934728   1.9547107
  72.2525024   3.2563931  20.5932760  71.4837456   2.6979929  20.4773808
  72.1401787   3.6411902  21.4624977  21.9784908  59.2646345  18.3220127
  21.6832714  60.0115617  18.8427570  22.9046993  59.1690727  18.5439041
   1.3915591   8.7142813  39.7368550   0.5140702   8.9750212  39.4571066
   1.2962422   7.7997780  40.0029945  27.4367118   2.7244779  72.3150921
  27.5268412   2.8135324  73.2638693  28.3345175   2.7588135  71.9849443
  49.0433645  14.3643832  11.3194156  49.7287607  15.0294209  11.3841343
  49.4244242  13.6805260  10.7686305  55.0316763  25.1949263  53.3986759
  54.9821520  24.6259546  52.6305294  54.5027256  25.9580183  53.1660128
  86.5344688  66.8019112   5.2331331  86.6765043  65.8586844   5.3130224
  85.8704206  66.8870314   4.5490101  10.2000551  62.9615267   1.8022802
  10.3624373  63.7443741   2.3286035  11.0617905  62.7165492   1.4651992
  62.9339361  49.8681498  40.8803940  63.8356400  49.9542236  40.5709600
  62.9881811  49.2468739  41.6065550  58.1799650  37.2146654  52.8517914
  58.7047148  36.4638615  53.1295824  58.7395334  37.6814747  52.2311449
  80.6112289  35.3854036  64.6940470  81.0459709  35.9356213  65.3455782
  79.9895191  34.8616004  65.1993608  15.4656364   7.6294072  29.1210773
  15.6096221   7.9762537  30.0015285  15.3996755   6.6824896  29.2445018
  65.0487423  49.2584229  65.7270432  65.6730938  49.8399878  66.1608648
  64.3822289  49.8457003  65.3705359  78.8578987  48.8022852  38.0756259
  78.0206442  48.3882618  37.8662920  79.3716431  48.7235212  37.2718263
  60.1394272  33.8001108  44.8730993  60.1617479  32.9333949  45.2787304
  59.6513033  33.6714411  44.0598297  66.2770271  50.9780121  41.3287497
  66.6521597  51.7948866  40.9997654  66.4488840  50.3396463  40.6365204
  52.7984142  27.3514032  57.6646185  52.6042175  27.2235250  56.7360878
  52.0271730  27.0129418  58.1194401  78.2774019  57.3564863  37.9277682
  77.3590708  57.5362015  38.1292653  78.2772303  57.1198082  37.0002890
   3.4332904  25.7661247  35.9047818   4.2177352  25.2441549  36.0733604
   2.8839549  25.6290460  36.6765833  18.4117748   7.0859749   8.6786678
  18.9728023   6.3242085   8.8242557  18.7761165   7.7640088   9.2476680
  58.3986167  83.0548380  61.9015980  59.0695075  83.5963392  62.3174286
  57.7510909  83.6815546  61.5788412  82.0252705  34.8746157  47.3211050
  82.0189381  35.0046301  46.3727951  81.1361504  35.0948048  47.5989866
  60.9388113  46.9564533  46.2616873  60.7834005  47.8203678  46.6434383
  61.2656879  46.4281130  46.9898653  78.4978294  51.5741587  57.1611023
  77.7253294  51.0375500  56.9835281  78.1481934  52.4493694  57.3284054
  67.3383331  31.1928964  40.5658102  67.1022511  31.5906215  39.7277713
  67.7672625  31.8966937  41.0525608  78.6429405  39.6755123  52.9494572
  78.6256742  40.6324911  52.9383278  77.8078270  39.4254780  53.3448076
  56.4090347  48.6590385  48.8610601  56.7506933  49.5216703  49.0963602
  56.5276384  48.6049557  47.9127789  78.3707570  51.1761414  66.3411567
  78.6910485  51.5790211  65.5341027  77.7662467  50.4954146  66.0455046
  77.7275372  32.7362728  39.6564651  77.5528145  32.3712897  40.5239248
  77.3877144  33.6300707  39.6997929  56.6041279  44.1598272  51.0233259
  56.0007715  44.4946909  51.6866970  56.3763046  44.6408129  50.2277231
  14.2056521  17.7523315  58.3195591  15.0627574  17.4507844  58.0184412
  14.3962248  18.5289359  58.8456726  48.2163906  40.9435844  70.7070017
  48.8235521  40.7838774  69.9844456  48.6683035  41.5775013  71.2639189
  73.8458729  49.0161562  36.0130811  73.0514002  49.2543030  35.5352449
  74.3314600  48.4568596  35.4067612  78.2161379  65.1333284  32.6030517
  78.7806082  64.3751431  32.7539110  77.5548506  64.8205423  31.9857168
  52.6438788  27.0231763  73.8869669  52.3754958  27.9029028  74.1520775
  53.1201438  26.6800205  74.6430424  73.3412218  30.9997225  11.8641818
  74.0259266  30.4387021  12.2284186  72.5223684  30.5759954  12.1214080
  84.4033146  63.9498854  59.8199463  83.5864544  63.7704134  60.2855349
  84.7905540  63.0867290  59.6742105  68.8280630  44.1908026  54.9427891
  68.1397152  44.4834137  55.5401039  69.4787121  44.8925114  54.9650288
  66.8089008  53.3690357  32.2632647  67.7250242  53.5986423  32.4188995
  66.6651106  52.5850296  32.7932572  80.4737091  75.8957005  60.4562998
  81.0999680  75.1864147  60.6009960  80.0445747  76.0129356  61.3038492
  16.2258654  11.6372942  48.3811998  16.7999058  11.8945383  47.6597214
  16.1602383  10.6852125  48.3072805  26.9525298  46.9741058  34.1598225
  27.8222426  46.8005514  34.5199537  26.8124064  47.9086828  34.3120122
  77.6816082  72.0488358  40.3909492  77.0046139  71.5264988  39.9607515
  77.3112869  72.9303312  40.4363441  26.5232421  29.8242028   5.6332615
  27.0443584  29.0646822   5.8936241  26.1389638  29.5743306   4.7929456
  75.9120893  39.2718959  50.1368284  75.8034134  38.5857534  49.4783211
  76.7955399  39.6089363  49.9879980   5.7318743  70.8470678  33.2645869
   6.3555297  70.1287985  33.3712029   5.4652175  71.0672092  34.1571498
   2.4232730  38.9641976  57.8184748   1.6849383  39.5206738  57.5706339
   3.1417807  39.2555308  57.2571373  77.3328638  32.5036812  65.3116131
  77.5223541  33.4349084  65.4262447  77.4399281  32.1281266  66.1855268
  66.9463062  79.2292118  38.2836246  66.4403486  79.6501780  37.5886250
  66.3382244  78.6034203  38.6771345  88.5649395  50.8471155  65.3200769
  88.7821770  51.5017748  65.9837484  87.8607559  51.2475395  64.8101521
  86.6364574  77.9176474   2.3940669  87.2720337  77.8939867   1.6787204
  85.8050632  77.6796150   1.9837511  48.1658554  68.1259680  26.1040974
  47.3126316  68.3533764  25.7346082  48.3609200  67.2615814  25.7421350
  34.6417953  44.0038044   5.9106090  34.4198371  44.5353253   5.1461103
  35.4573060  43.5649331   5.6685856  47.3970079  72.7962160  53.7147474
  47.1383905  71.9976854  53.2546425  46.7721319  73.4573126  53.4168959
  84.1839027  34.7387385  58.6889982  83.8481140  35.2414703  59.4311142
  84.5782757  35.3946805  58.1141567  28.1894638   1.3862164   6.3667228
  27.3498489   1.8397076   6.2917068  28.0539228   0.5545886   5.9125736
  84.4463253  52.9492855  23.8422370  84.7936535  52.1251202  23.5011411
  84.0931988  53.3968687  23.0733347  67.3875570  70.4801035  11.4398122
  66.7590094  71.1664200  11.6637087  67.3714733  69.8864317  12.1904993
  62.0241070  69.0249157   6.5500671  61.3049889  68.4326744   6.7699546
  61.6975784  69.8944283   6.7814893  88.8603592  57.8500509  52.8679085
  88.0935955  58.1197739  52.3623848  88.8191700  56.8937540  52.8736591
  60.2819061  56.9230413  41.9156551  60.7595825  57.0214415  41.0920238
  59.3592787  56.9559717  41.6628551  66.6618013  47.8472281  60.0307178
  67.5314856  48.0979872  60.3421783  66.0695267  48.1137371  60.7338667
  66.1277533  66.3773108  32.3106718  66.4717579  65.7035160  32.8970957
  66.8271112  66.5194178  31.6727567  68.2004356  57.8061819  43.3213377
  69.0373755  57.4551249  43.6255121  68.2864618  57.8388023  42.3685694
  74.4408607  62.4908876  39.2957807  74.3215942  63.3770847  38.9542127
  73.5525417  62.1433973  39.3755984  69.8436689  64.4716930  57.4839687
  70.1428843  63.6192560  57.8002882  69.5468187  64.9284935  58.2710171
  45.8091983  73.3184481  63.2695389  45.6018790  72.4621296  63.6436701
  46.4911708  73.6708832  63.8413191  74.4256544  82.3511887  48.9748812
  73.5165501  82.1362305  49.1835690  74.5240402  83.2641125  49.2452812
  64.4256401  12.1478570  42.4738121  64.7670078  11.2589550  42.3760653
  63.7829399  12.0812964  43.1800270  69.2906046  70.7568550  64.1459751
  69.0633106  70.8001375  63.2171583  69.8730278  71.5036249  64.2850828
  17.1504840  69.5327759  48.6365795  16.5993174  68.7605762  48.5094643
  16.5307768  70.2503967  48.7677908  85.4893466  12.4804281  52.9173660
  85.0776979  13.1922125  53.4074068  85.7008621  12.8659891  52.0671749
  32.2684385   3.9096625  14.1066482  31.8548824   4.5319588  14.7049453
  32.3853685   4.4008095  13.2934311  83.9256477  47.0286083  55.9236526
  83.4556961  47.8250456  56.1707544  83.7530708  46.9293976  54.9873781
  90.2919388  49.4364214  26.1780286  90.7296848  48.8228035  26.7680144
  89.5459270  48.9459658  25.8328485  58.5340738  69.4590855  26.1039209
  58.8574505  69.4507551  27.0048022  58.6698484  70.3595448  25.8090234
  71.8452597  51.2440014  42.4774075  72.7938414  51.3421297  42.5598526
  71.6872692  51.2279892  41.5334749   4.4900187  35.8118773  46.2871122
   4.9923667  35.3053427  45.6489086   5.1424559  36.1175346  46.9172955
  79.5711994  80.9861279  39.3391514  79.6872997  80.0689602  39.5872474
  79.7751427  81.4772034  40.1350641  59.0010977  74.7628546  69.9157524
  58.8881159  75.1964808  69.0699196  59.2591858  73.8682508  69.6936989
   0.5472239  50.1266813   4.2592525   0.3063639  50.8574629   3.6898822
   0.0653990  50.2864313   5.0707686   2.7113970  62.7508307  29.3586850
   1.9161662  63.1411505  29.7213030   3.4069594  63.3668756  29.5887280
  79.0426922  42.5131416  27.5389981  78.1285143  42.4370432  27.2656441
  78.9990902  42.8846169  28.4200978  48.4513855  82.5297356  48.2647467
  47.7775764  82.7367496  47.6171684  49.2589331  82.4586201  47.7557898
  72.0432758  40.4284668  57.4036646  71.7459583  40.7033825  56.5363359
  71.3019133  39.9457002  57.7691078  87.0640659  82.7103329  33.8146734
  86.8774033  82.5619984  32.8876424  87.1234131  83.6620712  33.8977408
  12.4683627  50.7832766  71.0217667  11.6370734  51.2468815  70.9204912
  12.2233161  49.9247503  71.3668919  55.8599615   9.0694803  68.0100441
  56.6198921   9.5741743  68.2999086  55.4891586   9.5849282  67.2937679
  34.3795492  25.7913620   4.3630579  34.1140844  25.0189812   4.8622444
  33.6116125  26.3625414   4.3791702  27.9527141   9.2773659  16.9125965
  27.3797990   8.9944251  17.6252964  28.7888290   8.8474495  17.0923641
  80.8348942  41.6061974  54.6141529  80.8604622  41.9186926  55.5185461
  80.9830856  40.6629992  54.6823740  87.4096870  28.5544443  44.0332842
  86.7589188  28.9545512  44.6100378  88.1367493  28.3279943  44.6132374
  90.1205826  82.1365070  41.4017200  89.4216156  82.3871136  42.0057583
  90.7297802  81.6287804  41.9377518  76.6194888  27.9899954  29.9208832
  75.9333536  27.9631495  30.5877590  77.3607608  28.4104799  30.3567123
   2.9395800  85.7470425   0.7262733   2.5850992  85.0441893   1.2708595
   3.8548307  85.8210715   0.9965875  81.8964100  55.3244829  60.6926107
  82.1303082  55.5331039  59.7881794  82.0535851  56.1366987  61.1740971
  67.1916056  54.0388536  42.9918671  67.9703569  54.5518780  42.7760124
  66.9649506  53.5927057  42.1758938  83.8552019  19.8749231  23.1020975
  83.1408950  19.7592806  22.4754953  83.9587900  20.8237146  23.1747890
  63.1822252  79.8393059  43.0920458  62.6791143  79.0902185  43.4114027
  63.9227247  79.9050713  43.6950111  90.4364300  63.0263758  65.2868319
  90.0562191  62.7602959  64.4496489  89.8662567  63.7303829  65.5958748
  70.5367041  74.5187664  66.7986965  70.0134516  73.9610529  67.3743677
  70.2341413  75.4073095  66.9862604  43.9130737  15.2866585  24.0845134
  44.1226818  15.7730420  23.2871940  43.4537221  14.5059760  23.7750557
  20.2214508  72.7363881   8.5575893  20.2302055  73.5882624   8.9940097
  19.3367748  72.6593908   8.2002952  75.1612043  36.4455962  56.0862112
  74.4842482  35.8243728  56.3546228  75.5514336  36.7443085  56.9076300
  61.2044954  50.5566216  59.0257454  61.0232687  49.7308445  58.5768795
  60.5994034  50.5639172  59.7673893   2.3882159  52.7672625  18.9693546
   1.8347605  52.0173502  19.1874015   1.7728289  53.4479427  18.6969495
  75.4117918  85.3625584  46.3860512  75.3531265  85.0958347  47.3034668
  75.6938028  84.5727825  45.9245777  69.5224714  54.2535973  19.2074382
  69.9866581  54.7467852  18.5310292  69.9517870  54.5058584  20.0249243
  53.5185528  67.8764248  38.0774403  53.7572622  67.2138786  37.4291492
  53.6637497  68.7109518  37.6316667  71.5402889  18.0450392  40.8320665
  72.3895121  17.6901042  40.5692482  71.7437220  18.6486506  41.5465593
  43.1746913  48.8012631   8.3036926  42.9322053  49.3643029   9.0388324
  43.2950975  47.9357750   8.6944225  59.2392921  57.9027891  51.8273449
  58.5817003  58.5786867  51.9915771  59.1656494  57.7195263  50.8907413
   6.6078147  62.7006197  56.4236355   6.5845832  63.6063671  56.1149025
   6.4893302  62.1748304  55.6326008  79.5714140  63.1181431  39.7511029
  80.1248932  63.5933590  39.1313767  78.6776447  63.3594990  39.5078874
  65.1990223  78.0937338  52.7670050  65.9605408  78.0131054  52.1927071
  65.3987455  77.5253582  53.5108423  33.4395504  80.9841347  21.1368465
  33.6943579  80.7834816  22.0374250  32.6528263  81.5222454  21.2247634
  72.8712225  63.7624741  51.8771076  73.2710838  62.9628181  52.2189999
  73.6129236  64.3274593  51.6605330  30.1160296  40.0566578  43.8776636
  29.5272502  39.3597364  43.5880566  30.2625807  39.8759723  44.8061609
  71.0461903  62.4788618  59.3731928  71.9610834  62.7527952  59.4377375
  70.6257153  62.8652382  60.1414013  24.2528896   0.9182905  54.1631651
  24.3224316   0.8615088  53.2101870  24.2091637   1.8571161  54.3446112
  77.1366788  37.9936345   5.1211050  77.6430894  37.7137883   5.8836487
  76.3258459  37.4875863   5.1732280  19.4935092  58.2068014  62.6741982
  19.1322764  57.3299980  62.8044319  20.0561961  58.1221342  61.9044924
  62.5642681  48.7592936  64.2734575  63.0655193  48.2618713  64.9196386
  61.6724539  48.7728548  64.6208954  41.3222837  72.6790428  38.7729263
  42.1739531  73.1001806  38.6565828  41.1407137  72.7605057  39.7092104
  80.8411026  50.1502895  57.8634739  80.1725483  50.7550526  57.5417185
  80.7015610  50.1205063  58.8099813  53.2820988  71.6692924   9.9255431
  53.1481266  72.5039148  10.3746355  54.1443348  71.7521811   9.5182157
  15.3756007  56.6581392  33.5947418  16.2905749  56.4218426  33.4423900
  14.9741229  56.6337967  32.7261496  83.9329624  50.6037903  37.4312425
  83.3821964  51.3849783  37.3800206  84.7562695  50.9154177  37.8071260
  54.7625303  52.8145075  72.7301645  54.5600462  51.8910217  72.8798485
  54.9653244  52.8669119  71.7961645  82.1518421  85.6720734  49.4644594
  82.6467323  86.4163399  49.8070621  81.6431904  85.3581142  50.2120781
  30.6953888   5.1737188  50.7391500  31.2826042   5.9253668  50.8193588
  30.6788807   4.9816584  49.8015642  43.9255001  16.0982306   8.6556461
  44.1781188  16.6070778   9.4260242  44.5290281  16.3854344   7.9704406
  57.8501368  55.2387142  50.6904268  57.6981783  55.8650208  49.9826956
  58.7381172  54.9155855  50.5377531  60.7956791  57.0209074  48.8913536
  59.9260902  57.3956299  48.7512636  60.6378412  56.0829306  48.9986563
  42.1970129  70.8929682  53.1819057  42.1772861  69.9399281  53.2688427
  42.3237801  71.2123966  54.0752888  41.2256004  37.7720387   9.9403885
  40.4420759  37.4694569  10.3994777  40.9018232  38.0886395   9.0970829
  68.3474922  66.9065666  40.2815342  68.2767820  67.5081062  39.5403314
  68.4515572  66.0436392  39.8805881  74.2405033  78.1031084  41.9719839
  73.9932156  78.2006645  41.0524416  73.5314083  78.5254383  42.4568033
  65.9279442  41.3220024  65.8621931  65.0753117  40.9284878  66.0476542
  66.3527203  40.7039165  65.2674103  64.6354866  55.1871490  41.8718433
  64.7897625  54.8955011  40.9733057  65.3753805  54.8366737  42.3677874
  71.8512222  21.0699724  40.6279945  72.2085830  21.6159224  41.3283300
  72.0056220  21.5739321  39.8289871   1.9790133  41.0408783  60.8112812
   2.6925238  41.0433817  60.1732111   1.2102469  41.3164759  60.3120041
  68.4610653  22.9182148  72.5340271  68.7701368  22.0701861  72.2153425
  68.9774227  23.0800319  73.3235979  70.7478905  56.2172651  47.4659395
  71.4611530  55.8172464  47.9634047  70.2211571  55.4768658  47.1649408
  81.7877388  44.2143965  58.6219501  81.8984795  44.2174768  59.5727158
  81.1495399  44.9074745  58.4529114  76.2964296  76.5792227  31.1363673
  75.8431149  77.4191666  31.0640621  77.2251844  76.8020964  31.0733819
  50.2773237  84.6753693  46.0564327  49.4162369  84.8369408  45.6708813
  50.2767611  85.1857567  46.8662119  27.4615534  74.8749685  50.7134724
  27.5359210  75.5349922  51.4027262  28.3666571  74.6446991  50.5036974
  21.0641917  40.4856730  19.9812102  21.1363181  40.9418774  20.8196068
  21.6989955  39.7718024  20.0415945  77.2797966  74.1009951  68.4142303
  77.7886343  73.7428808  67.6868582  76.4031887  73.7350893  68.2963324
  21.6671352  12.3278212  39.9535990  21.0489922  11.9700789  39.3162942
  21.6787796  13.2680010  39.7742844  78.1630659  52.2944260  63.8283110
  78.5667133  52.1466208  62.9730606  77.2378969  52.0879602  63.6954069
  21.8405963  28.9220030   0.5398204  21.3975574  29.4716818   1.1861971
  22.6760293  28.6968787   0.9492042  15.4577693  78.2842112  19.9547827
  15.0082549  79.1190147  19.8233593  16.3837775  78.4874058  19.8226225
  74.3036270  35.7870817  60.2483988  74.4721270  36.5297008  60.8283615
  73.3998346  35.5352807  60.4380989  75.4660082  57.1742249  66.9777918
  74.8039198  57.4498320  66.3438320  75.8353519  57.9926348  67.3094893
  79.5044565  57.6742458  67.6435804  79.3045139  57.1905470  68.4450102
  79.6730042  58.5688210  67.9394865  14.8851737  72.6391077  66.5364218
  14.5141276  73.2015133  67.2163200  15.6430396  73.1248713  66.2110090
  83.8723373  49.3253231  66.5528965  84.3886662  48.7188768  66.0219860
  84.4971561  49.9977922  66.8242264  45.6470661   4.4672751  42.1862268
  45.7240658   4.6568941  41.2511635  44.8966389   3.8764738  42.2498035
  75.9922361  64.3055201  69.1294575  76.3502884  64.5863533  68.2873392
  75.3115940  63.6723995  68.9011717  65.3359413  49.4057083  39.2841578
  65.1666927  50.1566124  38.7151861  66.2588882  49.1979790  39.1384029
   3.2184868  16.8392443  57.0095587   3.7153940  16.0453581  56.8119335
   3.8790541  17.5306009  57.0532990  88.3220005  52.6294947  12.6797783
  87.4520683  52.2715807  12.5027323  88.6988068  52.7827978  11.8133199
  45.1763345  27.7809031   7.2606590  45.6170083  28.1839640   8.0087116
  45.7919313  27.1174653   6.9490078   2.1501025  51.7062807  63.5712719
   2.5026568  51.4006424  64.4070482   1.4428576  51.0931301  63.3710766
  56.6931772  40.0218678  55.6151676  55.9206581  39.6232414  55.2144957
  56.4301014  40.9240723  55.7969761  72.7445555  47.2427702  59.7779465
  72.8467560  47.4806786  60.6994581  73.3772564  46.5376616  59.6410322
  88.4815788  65.2580261  48.0512762  88.4980106  65.4559898  48.9876366
  89.0147305  64.4678402  47.9641438  61.1027242  23.0407793   2.7493599
  60.4257013  22.4617798   2.3991563  61.8615915  22.8903229   2.1857050
  71.9688940  30.5164838  52.5437450  72.1705675  30.8411193  51.6661501
  71.4877176  29.7027850  52.3934078  87.0853996  59.0478945  61.8100452
  87.6573753  59.7367477  61.4715910  86.9674397  59.2671442  62.7343035
  57.6651239  56.8276215  26.3605547  56.9669199  56.1912966  26.2061810
  58.4550476  56.2965965  26.4618683  77.3062181  68.4672928  68.2653189
  77.1245193  69.3569803  68.5680866  78.1943083  68.2862282  68.5731220
  84.8269463  52.1703053  17.2206295  84.9025154  53.0984926  17.4419558
  84.7415352  51.7287779  18.0656075  80.7542801  22.5438046  41.2990093
  79.8877716  22.7315378  40.9382391  81.1862659  23.3969569  41.3408852
   1.4803179  23.3491540  48.7405920   2.3634776  23.6101580  48.4795856
   1.1382922  22.8720307  47.9845428  39.0662956  69.9490118  55.3027010
  39.2438245  70.8820581  55.4216099  39.7349763  69.5091629  55.8277082
  73.0327845  60.3120613  61.4866257  73.6908531  59.8554230  60.9625530
  73.0022192  61.1944342  61.1168766   7.2323760  76.3158226  59.2443180
   7.0862540  75.4622650  59.6521330   8.0545481  76.6252804  59.6244526
  87.9253578  33.1135988  23.7240100  87.9155922  32.7046561  22.8586173
  88.0620098  34.0444112  23.5475302  66.8539000  63.6722565  15.7567620
  66.5028048  62.8688431  15.3727198  66.2716913  64.3631506  15.4406452
  72.2852564  79.4177675  54.6426392  71.3506746  79.6194315  54.6887207
  72.3958063  78.9869404  53.7950516  41.8086605  17.6204084  57.8804541
  41.1745529  17.9333471  58.5255957  42.6583748  17.8885626  58.2301998
  83.5371304  47.9814720  58.9702606  83.1935692  47.1064854  58.7897205
  84.3362713  47.8258419  59.4736290  19.0339240  75.7603168  52.8856802
  19.4094428  74.9919271  52.4558163  18.1479605  75.4904318  53.1274700
   1.5903815  57.3133516  19.6195531   1.6753253  58.1557417  19.1730094
   0.7556876  57.3717785  20.0844121  72.7128363  59.7228289  49.3448544
  73.5990238  59.9724340  49.6067715  72.3712158  59.2325544  50.0926208
   0.0422248  43.0488968  65.3476763  -0.5364076  43.7951899  65.1912642
   0.9252413  43.4116459  65.2775621  62.2941017  46.0928631  44.0697145
  62.5610542  46.9333553  43.6974955  61.8447018  46.3229656  44.8829317
  88.3112240  80.2054501  26.4052439  88.3852577  80.9226322  25.7756400
  87.5233555  80.4094410  26.9091058   6.5507965   1.5070795  42.9197741
   6.6450434   2.4049830  43.2377768   6.6718798   1.5744757  41.9726562
  46.9010688   9.7220738   2.3602846  45.9750177   9.8025830   2.5887182
  47.3386766   9.5452197   3.1930235  43.1565026  74.9231590  45.9406281
  43.7407473  75.5808378  45.5633354  43.5613278  74.6950282  46.7774725
  77.8192139  27.1825194  62.8083563  78.3329058  27.3318720  62.0145988
  78.3838749  26.6421008  63.3609295  23.2254459  27.8742869   9.9611690
  23.7065841  27.1865160   9.5010593  23.4168388  27.7223809  10.8866527
  69.5393562  78.6121082  21.5513921  69.4628096  78.0447006  20.7843065
  70.3058434  78.2804728  22.0190907  18.9562472  79.0237427  69.0260029
  18.1993350  79.5019007  69.3646574  18.6186083  78.1503153  68.8276196
  27.4856424  76.4840508  45.6956005  26.7281818  75.9070206  45.7931852
  27.2252107  77.1087599  45.0187397  24.3197347  23.7570937   4.0692737
  25.2417757  23.5811646   4.2566898  24.1990234  23.4650595   3.1657388
   6.9404631  16.4151835  39.9308395   6.9981794  17.1298670  40.5649757
   7.7527313  15.9230112  40.0500727  23.1528549   3.0878233  25.5871081
  23.8362866   3.4609293  25.0303841  23.6300449   2.5917791  26.2522793
  30.5335673  76.3593531  67.4764490  30.0163420  76.4544392  66.6766596
  31.4338454  76.2550020  67.1684790   2.4374636  49.9883413  43.2657385
   3.1206378  50.0171089  43.9355707   2.6194819  50.7427597  42.7054262
   3.7390002  51.9410324  54.1712666   3.3293208  51.2352610  53.6709929
   3.0399092  52.2719574  54.7351742   6.6737299   3.2237886  32.9059124
   7.3543196   3.8714956  32.7228665   6.8181686   2.5347780  32.2573543
  24.3859824  66.8678474  26.2619400  24.2166289  66.6015482  27.1656203
  23.9282187  67.7033043  26.1686563  65.6882477  84.9197865  59.7954845
  65.5177927  84.5422745  60.6584215  64.9777365  84.5901585  59.2452574
  66.3926506  60.9656858  24.2130637  65.9557438  60.6865120  25.0176811
  67.1260262  60.3583193  24.1156197  22.3723181  55.1427889  12.1710312
  23.3071383  54.9369860  12.1702921  21.9665393  54.4152975  11.6995108
  87.9243946  59.6030092  15.9351325  88.5027790  59.3432283  15.2180457
  87.2054672  60.0675535  15.5066788   5.6955223   8.6307596  30.6335759
   6.4343481   8.3070349  31.1489129   5.2567654   7.8396391  30.3207684
  80.0865650  56.2956715  70.2620649  79.5180464  55.8458567  70.8871222
  80.2994347  55.6289339  69.6090889  76.5009451  63.8262367  46.2698269
  76.7790222  62.9177618  46.3863754  76.6349316  64.2296362  47.1274662
  53.8216829  82.3293018  28.8037562  53.7052631  82.4102592  27.8571177
  53.1188583  81.7421436  29.0821600  80.1861307  13.4783720  33.8491249
  80.6188318  13.4398531  32.9961801  79.2564556  13.5733961  33.6419892
   2.3528632  80.1546860  70.7353020   2.8703650  80.3422356  71.5184069
   2.1745261  79.2155790  70.7852983  71.3698339  53.9284325  40.2967167
  71.7982769  53.3038235  39.7114563  70.4903460  53.5727787  40.4241705
  55.4062843  76.3966417  32.8627491  55.1238060  75.6857777  32.2873282
  56.2110615  76.7243338  32.4612737  71.9705677  73.5970497  27.6657200
  72.2019482  73.3506870  26.7701769  71.9391632  72.7672768  28.1418777
   9.2599611   0.5878424  50.3457928   8.4723215   0.7684206  49.8327160
   8.9625435   0.6055616  51.2554407  85.2849388  67.4585199  29.6193862
  84.9405384  66.8517447  28.9640641  85.8904552  68.0179787  29.1329908
  73.0116749  71.0129499  64.1687298  72.2385740  70.6051826  63.7785101
  73.2453680  71.7141581  63.5605145  43.1873989  66.2555790  64.8320150
  43.1274223  65.8906364  63.9491510  42.5592566  65.7468128  65.3446722
  17.6353129  61.4732838  28.8679767  18.5255488  61.8133497  28.9577770
  17.0722254  62.2292376  29.0344262  64.3485975  79.7336292  59.5951080
  64.0680218  79.6317625  60.5045748  64.4745064  80.6763840  59.4874620
  69.8924494  62.0757627  54.4428682  69.7959185  63.0035448  54.2280912
  70.7844591  61.8587255  54.1718674  31.7443638  67.2484716  18.0387428
  31.0625725  67.9117950  17.9320076  32.5640278  67.7230724  17.9003933
  68.0019855  73.2195997  42.0733404  68.0586481  73.4392977  43.0032635
  67.0646954  73.1177664  41.9079733  76.0415125  37.4101472  47.7290106
  76.9933796  37.4868417  47.6634169  75.7297802  37.5217104  46.8308973
   8.4605818  19.0251230  10.8147442   8.0115871  18.6216330  11.5575957
   9.0869598  19.6295046  11.2129962  37.8473167   9.3992304  43.1111002
  37.0492821   9.7722124  43.4856033  37.8316956   8.4808039  43.3803511
  55.7472993  66.1391385  12.7995804  54.8878194  65.8536656  12.4896839
  56.3688852  65.7055409  12.2149017  58.3176374  54.3804073  53.4277391
  57.9824257  55.0068378  52.7862930  58.8309622  53.7596369  52.9106569
  20.0021037  45.2473068  47.6014090  20.7114943  45.4685831  48.2047701
  19.2562255  45.7619762  47.9096365  21.3346176   3.0843329  47.6316738
  21.0400086   3.3021044  46.7473602  20.9327107   2.2353243  47.8157425
  14.0263137  71.9627905  60.4199076  14.4291457  71.4567327  59.7143078
  14.6704539  72.6398897  60.6269407  54.9818993  65.6731033  40.4766512
  54.7436476  65.9824181  41.3506031  54.1468096  65.4490042  40.0659847
  78.5796547  61.9424295  21.2232399  78.6893940  62.3634815  22.0758271
  79.1634417  62.4272108  20.6397891  11.3363227  81.0883808  69.6065426
  10.6708487  81.7733288  69.6714783  10.9658106  80.3481293  70.0871563
  35.7041531   2.3736643  61.2403059  36.1730175   1.7797159  60.6541157
  35.0112419   1.8352675  61.6227150   6.6703757  78.9293003  39.4612360
   6.0703429  78.1851244  39.5101881   7.5422724  78.5342836  39.4601035
  20.2698995  20.8440049   4.2403104  19.4307424  21.0059864   4.6713760
  20.0340797  20.5046399   3.3769157  49.6252061  40.8007557  15.2281978
  49.6002771  40.1565583  14.5206573  49.2055274  40.3608639  15.9675243
  55.9797765  20.4686339  19.0642860  56.4226819  21.2853272  19.2946651
  55.5509473  20.6560166  18.2292774  53.7442876  26.0452874   0.6377485
  53.8056852  26.2319834  -0.2990553  54.3415166  26.6717846   1.0464742
  26.3573628  16.0238432  25.3458357  25.7703762  15.2684282  25.3138185
  25.7723408  16.7813276  25.3600621  24.5556763  81.5610741  25.1036000
  23.7839488  81.1420319  24.7227097  25.1068047  80.8327843  25.3900933
  10.3925475  63.7501764  22.0140910  10.2705249  64.0769672  21.1227155
  11.1215647  63.1336880  21.9454789  91.0986137  66.0687447  56.3919544
  90.1791573  66.0654402  56.1258507  91.0888577  66.4185619  57.2828865
  21.3782843  60.5569887  59.3344450  22.0697173  61.0302353  59.7972631
  20.7232913  60.3714514  60.0073338   6.3012751  77.5490808  42.4602175
   6.9069441  77.4380016  41.7273760   6.7376479  78.1742954  43.0389357
  39.6072655  20.7956575  69.1995955  38.8058167  21.0703253  69.6450949
  39.9988823  20.1498674  69.7876644  88.1001186  74.2819643  74.2163849
  88.7220097  74.8832846  73.8066387  87.9872704  73.5804033  73.5750484
  51.5940189  64.1688538  35.5956221  51.3668108  64.1433382  36.5251136
  51.7617464  65.0938416  35.4153609  28.9464836  84.4163950  12.0731666
  28.4910088  85.2231892  11.8326309  29.8425846  84.5454749  11.7624023
  89.8269463  80.2823353  61.4722347  90.1502228  80.2375889  60.5723906
  89.1434574  80.9520340  61.4481544  68.7877369  52.1405411  52.8270340
  68.7825727  52.6787567  53.6185694  67.9574966  52.3416758  52.3952103
  28.0851134  78.0099344  17.7016389  28.0652674  77.4895287  18.5047662
  27.7356681  78.8627529  17.9601526   4.3422564  70.5176497  49.9484062
   4.1645964  71.4137268  50.2342653   3.4766253  70.1395226  49.7937012
  85.3749466  73.3504963  39.0988135  85.4348564  72.4005318  38.9977312
  85.6176090  73.5100842  40.0108862  75.1305437  69.3270636  51.4962435
  74.4683933  68.6622572  51.6855001  75.2627707  69.7776699  52.3303270
  89.6847057  72.3204851  22.5018287  89.5450878  71.5932560  21.8952990
  90.5695057  72.1835375  22.8403473  78.5342312  76.4310455  58.3972406
  77.7743435  75.8642960  58.5298824  79.1652441  76.1439848  59.0572786
  13.2703263  74.8967617  71.9770766  12.8958995  75.7697408  71.8589783
  12.6133353  74.4211214  72.4853731  85.7943726  80.0114822  30.5704236
  86.0045052  79.4710970  29.8088074  85.6890106  80.8943653  30.2159500
  44.0107422   3.1358313  68.6942673  44.2334347   2.3673224  69.2196608
  43.1068592   2.9836630  68.4184647  81.8326187  58.3138037  26.6340709
  82.1867847  58.3254671  27.5232577  81.0976219  58.9264154  26.6609573
  79.5036745  68.5703659  42.0603466  79.3478680  69.4630814  42.3685884
  78.8759470  68.0360222  42.5468254   6.3228377  83.0227184  50.8531427
   6.5589389  83.9496803  50.8882332   5.6079634  82.9815197  50.2179337
  62.4269678  30.7402117  12.8874710  61.9667341  29.9282343  12.6750686
  63.3496000  30.5413134  12.7280548  24.2951279  78.3725770  44.3839004
  24.4809609  78.2109960  45.3088787  25.0957565  78.1105336  43.9294174
  74.7918558  52.5725937  39.3055296  74.0907335  52.1111441  38.8453913
  74.5991135  52.4371481  40.2332878  47.2480660  19.5753931  53.0586100
  46.5289002  20.0720476  52.6682663  47.7350597  19.2306780  52.3101139
  37.2566776   1.8314146  41.2987900  38.1212502   1.5725588  40.9798193
  36.6705399   1.6706060  40.5593252  88.1257411  16.2025808  43.4446859
  87.6022455  16.1414217  44.2437124  87.7098247  15.5897211  42.8383541
  57.4204922  62.2306204  29.2622590  57.9864597  61.4789867  29.4382048
  57.4874449  62.7704239  30.0498891  40.3812103   2.9317736  53.6850500
  40.8422642   2.3321318  53.0984640  41.0600834   3.2585215  54.2754698
   2.4961146  78.5727310  36.9176364   2.6174410  79.5221281  36.9051266
   3.2557353  78.2279921  36.4482093  64.2309666  68.4131050  73.0354548
  63.8642359  69.1167402  73.5708380  63.4687614  67.9161835  72.7382183
  72.6365185  60.5103302  64.0913725  72.2645521  61.3857555  64.1986370
  72.6726961  60.3799248  63.1437874   0.9862288  47.7177620  36.8345594
   1.3459071  48.5554838  36.5428567   0.6473025  47.3117924  36.0367203
  81.4352512  82.0458126  26.8827724  80.8453846  81.8334866  26.1594415
  81.8317032  81.2081432  27.1223092  84.0399456  57.5165653  49.6275949
  84.8222351  57.3312140  49.1080761  83.3384991  57.6025105  48.9819813
  31.3766365   6.2574553  43.4564877  30.8900528   6.6881918  44.1592884
  30.7481365   5.6488298  43.0681610  88.8739300  75.1075602  60.3222656
  88.2851982  75.7143831  59.8734903  88.5850906  75.1243210  61.2346935
  63.3384752  49.1845226  68.7995958  63.3585167  48.5148001  68.1160021
  63.0579662  49.9801159  68.3472967  59.5572424  70.9520912   9.3242490
  59.6111250  71.8773556   9.5634472  60.4552889  70.6309700   9.4056427
  70.6110668  72.6960754  48.1415653  70.8497381  72.0928478  47.4377298
  69.8148298  73.1257057  47.8290701   0.8589487   8.9212488  60.2712679
   0.5080204   9.6753763  59.7975826   0.8872824   9.2044710  61.1851692
   6.4001712  65.0615788  55.0064611   6.8189868  65.7125282  55.5695677
   7.1156272  64.7038364  54.4807482   8.8842066  31.3616037  27.3023963
   9.1081389  32.2915316  27.3387241   9.7267302  30.9101844  27.3534179
  34.4159203   5.4030680  50.2960205  33.6852245   6.0187220  50.3532600
  34.6412449   5.3845762  49.3659019  87.7430820  83.1310654  51.0284138
  87.0595837  83.1561756  50.3587723  88.4763908  83.6083221  50.6401825
   4.6400698  49.6879530  30.0992346   4.8257502  48.7746429  29.8810101
   5.4846724  50.1305962  30.0159144  45.5414535  35.5501158   4.9535873
  45.7281925  36.4388163   5.2562025  46.2889148  35.0329096   5.2536371
  86.7165661  76.5312767  27.1435952  87.3235416  76.1009359  27.7457738
  87.2811604  76.9947433  26.5249968  13.9811688   5.0386499  36.3044310
  14.7001057   5.2333044  35.7032084  13.1935101   5.1012777  35.7641530
  17.9787310  72.3661184  44.5229959  18.6911925  71.7530966  44.7041893
  18.0877360  73.0592442  45.1740932  29.3189963  68.3642006  61.5198040
  29.6380290  67.4680519  61.6264200  28.8407191  68.3511305  60.6907558
  55.0467443  75.7866573  66.5063047  55.0141335  74.8358870  66.4004612
  54.3551207  76.1154413  65.9320307  44.3168736  68.9438248   9.4900030
  44.2518234  69.8368692   9.1516680  44.2594099  69.0429544  10.4403198
  14.6947058  58.6067009  55.0355530  14.0397700  59.1236401  54.5664406
  14.2212638  57.8272486  55.3263140  49.3249874  20.6988024  30.0609803
  48.7841301  21.4598440  29.8500085  49.1825085  20.0943731  29.3325591
  88.5505676  50.6031179  53.2623816  87.7258205  50.7282162  52.7929449
  88.3069992  50.1141453  54.0483904  75.5898046  61.9910908  36.9183278
  75.3992128  62.2332430  37.8245664  75.6357145  61.0350704  36.9304538
  69.0217447  80.2489090  25.1766753  68.1513119  80.4584217  25.5153227
  69.1253853  79.3124247  25.3454661  73.8454342  50.5778885  49.0952539
  73.6649418  49.6597576  48.8935232  74.4219255  50.5465126  49.8587322
  87.2198677  66.4188766  63.9456320  86.6448689  66.3858271  63.1810951
  87.0102787  67.2523499  64.3670988   0.2696379  72.0787334  32.0789289
   0.2780589  73.0356693  32.0998025   0.3761157  71.8584061  31.1535382
   2.5788363  53.1840467  41.2172413   1.6747435  53.2780504  41.5172434
   2.5104388  53.1292725  40.2640629   8.1868704  70.2493238  57.0692492
   7.7592810  69.5308018  57.5352240   7.5169524  70.5783939  56.4699459
  25.6096269  25.7878191   0.5473783  26.3794424  25.9393008  -0.0009510
  25.3699638  24.8768408   0.3773430   9.5478018  68.0669737  20.1669765
   9.3759879  67.5387764  20.9465432   8.9374407  68.8011122  20.2357888
  64.9544668  37.5521970   3.2495800  63.9997435  37.5890064   3.1914198
  65.1864958  36.7131519   2.8515840  67.9860353  57.5875616  61.4581823
  68.0032396  58.4596109  61.0638905  67.2769308  57.1330309  61.0034275
  48.6206322   6.0263514  38.3868742  49.5398407   5.8318876  38.5698414
  48.5989838   6.9733309  38.2490802   3.3767851  37.7377033  48.8860178
   3.2676848  38.6441183  48.5983753   4.1917571  37.4518824  48.4732628
  40.2789478   6.3128351  12.7361917  39.7192173   6.5408396  11.9939291
  39.6798210   6.2609171  13.4808969  23.8827972  20.2174543  55.4975986
  23.5850411  19.6308874  54.8022461  23.1879692  20.8714651  55.5731440
  81.8953609  73.6352825  38.6686063  81.0058212  73.9476395  38.5031295
  81.8151665  72.6815891  38.6849689  12.9278334  38.6286378  52.5671721
  12.5029334  37.7720666  52.6116562  12.2628459  39.2067266  52.1932125
  86.3573360  74.8295736  41.3769865  85.8164692  75.1841879  42.0826340
  87.1627045  74.5479393  41.8109226  14.6319752  27.4929880  62.7939796
  13.6868362  27.6324629  62.7348995  14.9477081  28.2175230  63.3339739
  13.7327536  85.3959084  67.0751715  14.3505820  85.5338192  66.3571882
  12.8710707  85.5162811  66.6761160  47.2391748  53.0049896  72.0531845
  47.8436804  53.7349558  71.9192028  47.3511505  52.4557686  71.2772655
  50.7869054   3.6000092   9.3750599  51.0467721   4.5208294   9.3468406
  51.1915018   3.2613356  10.1737144  85.7770729  52.0500135  40.6206465
  85.7452869  52.9271984  40.2388525  84.8738766  51.8692398  40.8809996
  82.6777649  64.8460722  55.6113005  82.4963570  64.7382593  54.6776485
  83.2342339  64.1000271  55.8348751  78.4406328  83.8528252  71.2728882
  78.5995770  84.4666386  70.5558109  77.8119659  84.3021011  71.8378305
  86.4326859  39.7869730  38.0911183  86.7046261  38.8694286  38.1109428
  86.1992073  39.9872208  38.9975476  79.6721649  53.2452440  43.2807302
  80.4173851  53.7893248  43.0260563  79.4047165  53.5891438  44.1330433
  25.3629829  10.6124623   3.1240108  26.0360862  10.6622107   3.8027504
  24.6635438  11.1856253   3.4378555  89.5111658  21.5361817  25.2238872
  90.0828458  20.8601696  25.5877807  88.6372758  21.1460335  25.2419689
  53.4363127  69.1957140  40.7451534  53.1052160  70.0180960  40.3841877
  53.4765100  68.6035156  39.9942112  67.5173426  63.9590740  53.5377836
  67.5566292  64.4306087  54.3698549  67.3771524  64.6419764  52.8818703
  19.5773181  79.2287731  27.3686838  18.8639792  79.7246742  26.9668674
  20.3619059  79.7447538  27.1831775   8.6714133  81.2416077  15.0948215
   9.5759352  81.1687183  14.7902799   8.2102259  81.6719437  14.3748569
  43.7170943  58.0780220  65.6151772  44.5589026  58.1578732  66.0637331
  43.9087161  58.3021641  64.7045374  76.8227291  79.5562983  49.1106558
  77.7512074  79.5308495  48.8793182  76.7958403  80.0307655  49.9415541
  61.2573605  20.7247614  43.8754606  61.1625462  19.7784399  43.7672472
  61.8725090  20.9838461  43.1893826  13.0730753  16.4814257  64.1324902
  12.9415875  17.1746611  64.7793007  13.9934616  16.2363791  64.2277765
  48.7792110  76.9041824  32.0837736  49.1989946  77.1339226  32.9127693
  48.4025002  76.0378599  32.2380614   1.4195594  80.6214237  64.4409037
   2.1417102  81.1158943  64.0533161   1.7384585  79.7195864  64.4760513
  88.6325169  39.8066020  58.6920881  89.1826344  40.5870438  58.7592602
  88.8742161  39.4147015  57.8529024  57.3733902  75.9073544  35.6735897
  57.9412603  75.8481359  36.4418674  57.9769039  75.9961271  34.9359417
   5.3926379  79.2376845  68.3279708   4.4874294  79.4802349  68.5229037
   5.8394153  79.2803781  69.1734299  21.8327006  62.4604130  43.2729435
  22.3894080  63.0164671  42.7278614  21.7282733  61.6554165  42.7656889
   2.5574359  65.5868959  35.5392742   2.4361666  65.1000118  34.7241235
   1.6735800  65.6850719  35.8933759  76.7515612  69.5080948  30.8672404
  77.2575188  69.4293451  31.6759634  76.1379099  70.2227688  31.0372639
  67.6812029  74.7085428  39.6855974  68.2359171  74.2031145  40.2797937
  66.9122314  74.9337673  40.2092218  51.6995030   7.4205851  46.0138559
  51.4694576   6.8716215  46.7634869  50.9346561   7.3752283  45.4401016
   4.0477046  69.7213984  59.6909809   3.3884200  69.5226240  59.0261078
   3.5482272  70.0835943  60.4228020  76.0806847  73.3378506  51.6166830
  76.6741467  73.0649662  50.9169960  76.2962294  74.2580605  51.7682838
   2.4840315  83.6850929  31.0109758   3.1494006  83.4914207  31.6712809
   2.7421912  83.1638813  30.2507567  16.6514548  85.6282711  51.8333197
  16.0579356  86.3482857  52.0467234  17.4905642  85.8890247  52.2129774
  15.3331308   4.5261644  38.7931466  15.1042347   3.6108851  38.6315942
  14.7928600   5.0205492  38.1767678  65.9880495  31.8761969  29.1947126
  65.3465939  32.0100784  29.8924541  66.4744139  32.6996803  29.1552567
   1.0997733  75.9478855  60.9915924   0.4340228  76.5186787  61.3752604
   0.6939658  75.6093836  60.1934862  71.9364500  73.4920788  38.8640046
  71.3002825  73.6375237  39.5642686  72.5788450  72.8931570  39.2446041
  70.4472065  72.7641201  41.0759687  71.0541534  72.6819897  41.8115664
  69.5878410  72.8668070  41.4848375  24.9674301   6.8891214  56.4326525
  25.2506332   6.9551634  57.3446083  25.0295906   5.9557890  56.2295389
  28.6007671  29.3969893  57.0555115  28.9572983  29.3827414  56.1673021
  27.7867775  28.8970160  56.9949055  15.4755287   4.3710875  21.6056156
  15.2700501   3.7816786  22.3312950  16.3551073   4.1135000  21.3295293
  68.2938385  65.5738068  26.8657947  68.0657959  66.4260864  26.4945149
  69.2387199  65.6210661  27.0114160  62.6503706  76.1416531  26.7876720
  62.3736000  76.9519711  27.2154689  62.3033381  75.4456186  27.3456526
  68.1433201  65.4401016  55.7456017  68.5310221  66.2668848  55.4586458
  68.7701702  65.0882244  56.3776445  29.9258450   9.1305105  69.3313930
  29.4252566   8.7595216  70.0580359  30.6218222   8.4934656  69.1701016
  67.1301794  65.4135609  68.2688427  66.6953659  66.2660122  68.2466650
  66.5725708  64.8463392  67.7363396  85.9389210  64.9066687  35.7376432
  86.7087555  65.2252960  35.2663994  86.1535168  65.0351572  36.6615868
   6.5943488  60.9649515  60.2004766   5.8296450  61.0343409  60.7720041
   7.3084983  61.3504076  60.7080698  61.7341806   6.7194540   9.3152454
  62.4230195   6.0559304   9.2768314  62.1985723   7.5365956   9.4964817
  44.4584015  76.5597839  21.7563486  44.3645314  75.7442952  21.2640095
  44.9175147  77.1492750  21.1580610  77.7333016  65.8460952  17.5570166
  77.8675921  64.9347592  17.2968864  78.6136718  66.1761178  17.7366388
  30.3771380  73.9567722  10.5865324  30.9675816  73.5199643  11.2003756
  30.9578112  74.3572784   9.9395049   8.3783606  47.6620389   4.6078151
   8.6471776  48.5452915   4.8604709   9.1948656  47.2211696   4.3729007
  69.0016747  15.2408183  44.6973276  69.1511202  14.9478638  45.5962563
  69.6554136  15.9257352  44.5568132  15.5714730  71.5213479  49.5771694
  15.8350733  71.9925095  50.3675795  14.6775082  71.2310816  49.7582769
  24.4701079  36.2405563  47.7638865  25.1741007  36.0091616  47.1580124
  24.6952847  37.1197344  48.0681467  74.1751893  70.2175439  28.5271621
  74.2102702  69.8717178  29.4190168  74.9821026  70.7240892  28.4347796
  15.4515219   6.9838369  20.6513023  15.6051576   6.7387724  19.7388494
  15.2899468   6.1530787  21.0984778  31.4625740  21.7269468  58.3147478
  31.1056495  21.0494995  58.8891172  31.0383201  22.5345778  58.6045265
  14.4765547  81.9341306  45.9272385  14.2005709  81.0509960  45.6820107
  15.4324416  81.8889711  45.9489775  26.3414979   9.2457861  41.3242006
  26.8809986   9.3126309  42.1120501  26.6373038   8.4408784  40.8989334
  33.3756328  -0.0555170  27.2032499  34.1274691   0.2484750  27.7117395
  32.8923678   0.7426696  26.9897389  71.3613565  58.5336948  38.6423635
  70.7698573  58.2900907  39.3544149  72.1782441  58.7722159  39.0805793
  54.5248699   2.1098927  57.1973658  54.0201950   2.0352381  56.3874531
  54.4666576   3.0362344  57.4313211  51.5259838  14.0200114  47.3698807
  50.7277012  14.5396078  47.2750187  52.0767546  14.5329428  47.9613018
  37.3247123   6.4116639  38.8603806  36.8825388   7.0144236  39.4582057
  38.2372665   6.7005914  38.8605380  43.2695055  23.3563876  59.3029881
  42.9868650  23.2233119  60.2077723  42.5661421  23.8696194  58.9053679
  29.7414017   2.1083422  20.8445501  30.6162143   1.7954528  21.0748434
  29.6492171   2.9336679  21.3205433  30.3535518  48.7493079  67.3611883
  31.2563250  48.6210339  67.6523552  29.8216764  48.3333163  68.0396364
  83.0304260  68.3777309  32.7191830  83.8994927  68.7244833  32.5173998
  82.4825568  69.1546536  32.8308153  38.8827443  11.8517172  14.6236074
  38.9609742  11.0191047  15.0892997  38.7433171  11.6029096  13.7098861
  60.2023077   4.0817440  17.5773847  61.1474848   4.1321561  17.7199471
  59.8285866   4.6597207  18.2425976  88.0496926  72.7943636  28.3494592
  88.2589097  73.0238987  27.4440455  88.8449926  73.0033303  28.8394189
  78.0512284  18.3527963  71.7044566  78.5612248  19.0831344  72.0547978
  77.1394824  18.6221664  71.8157691  19.1954306  75.9478630   0.6410466
  19.0675381  76.3563640   1.4972022  18.4631041  75.3375019   0.5550948
  23.1933383  70.2902378  46.4251804  23.9370612  70.7646228  46.0536051
  23.3464984  70.3068162  47.3699045  62.3386526   5.3508013  58.3556890
  62.6014996   4.8258108  57.5996923  61.4567709   5.6549221  58.1411362
   3.4780768  69.4888450  18.2254541   2.7246288  69.1108252  18.6789393
   3.1158475  70.2239562  17.7308500  33.8722161  56.2967874  10.5638766
  33.6100939  56.3477946  11.4830732  33.3488206  55.5802132  10.2049744
  17.3545674  78.7565387   2.3541920  16.5540818  78.5834790   2.8496763
  17.0474413  79.1015054   1.5157986  45.6264237  82.4299268  71.0788345
  45.9809950  82.4385358  71.9678974  46.2675027  81.9335050  70.5700970
   4.5598844  65.1278115  37.1295500   3.9845875  65.2853728  36.3809252
   4.1712359  65.6361342  37.8414440  22.9115895  53.9139081  66.8900871
  23.4718588  53.6190034  66.1722040  23.3945302  54.6376754  67.2890329
  17.7588442  74.0374232  56.3785887  17.3074368  73.7358738  55.5902195
  17.5717000  74.9753309  56.4178038  23.9483908  66.2241972  39.8325992
  24.3771342  65.5888415  40.4059505  23.8253859  66.9980980  40.3823090
  39.9972081   0.7303444  50.0851154  39.4794130   1.3097391  49.5261717
  40.4870558   0.1815641  49.4726419  88.1880112  58.5427810  49.3199492
  89.0413136  58.2437421  49.6340847  88.3942194  59.1665388  48.6237907
  77.7131890   9.1525714  72.8672624  77.2052287   8.4426396  73.2599533
  77.0647763   9.6838276  72.4051382  72.0124577  24.2531340  72.2968439
  71.9475602  24.8363249  73.0530894  71.1486052  24.2956739  71.8867463
  49.9103737  15.7987595  41.5419054  49.6438646  16.3271487  42.2942400
  50.7738495  16.1373389  41.3052559  16.1025456  56.9674064  57.6954126
  15.8110455  57.8722812  57.8070307  16.9305113  57.0393516  57.2205067
   9.8054532  61.7377592  48.5548067  10.1974991  61.3267685  47.7843428
   9.8626784  61.0696531  49.2378807  56.1752701  12.4316704   9.8651630
  55.2592087  12.4852252   9.5927763  56.3324785  11.4963317   9.9942297
  53.2715174  65.0955137  15.2895096  53.0502697  65.4996332  16.1285331
  54.2231652  65.1777490  15.2275970   1.9773367  61.1341048  40.1783895
   1.9279674  60.9798075  41.1217833   1.2575534  61.7383147  39.9965286
  71.1272223  85.5102471  34.6095371  70.2206428  85.3646140  34.3390989
  71.6270049  85.4887284  33.7934566  91.0361142  80.6167466  30.8020353
  90.1955671  80.4883666  31.2416196  90.8511276  80.4494203  29.8779058
  88.2285638  68.8660670  23.5001612  89.1044850  68.4801484  23.5078835
  88.2231278  69.4627679  24.2485929  60.3074503   4.7789517  14.5883894
  60.2572441   5.6885791  14.8821402  60.4491758   4.2757890  15.3902459
  47.6267767   4.8384860  53.4827328  48.1347942   4.0757149  53.2064533
  46.9904518   4.9698398  52.7798367  54.7753070  33.6494069  56.1023662
  55.0266312  32.7346520  56.2300095  55.1684950  34.1113757  56.8427846
  48.2507944   1.7209381  40.7858038  48.2653427   2.6324609  40.4940033
  47.9572487   1.7654172  41.6957951   0.3459958  35.0691105  60.0855827
   0.3743247  35.4353929  59.2016888   0.5202035  34.1358114  59.9637794
  49.9832106  10.4140246  21.2867236  50.7948112   9.9070489  21.2639832
  49.5371771  10.1888168  20.4702878  75.4191370  74.0881587  40.5241108
  75.2583284  74.7078515  41.2356949  74.6027727  73.5942782  40.4475403
   9.7425107  85.4453603   9.6111310   9.8588112  85.5684270  10.5532348
  10.3786305  86.0387171   9.2117429  79.2962367  62.6474191  50.6147957
  80.0457807  62.9508902  51.1269712  78.5363526  62.8443624  51.1625385
  41.6185597  79.3920685  46.3650894  41.2287167  80.2643950  46.3076687
  41.7462138  79.1263528  45.4544163  44.4914532  39.7922158  16.9826460
  45.0833416  40.4082632  16.5509272  44.9325800  39.5710158  17.8028333
  66.7220877  31.7674820  66.8773404  67.4315499  32.2191136  66.4202610
  66.5002750  32.3463993  67.6066462  88.5570688  70.0919355  53.8365602
  88.3728499  71.0011018  54.0725946  87.8472657  69.8504306  53.2415104
   4.4124774  71.8367578  29.8773813   5.3696493  71.8393792  29.8707128
   4.1764644  70.9201694  30.0201964  33.3982348  14.5029175  49.8619938
  34.0321279  14.7531629  49.1898394  33.6801076  14.9758804  50.6449890
  37.5171852   0.6814367   5.6670570  37.9732561   1.2558590   5.0520200
  37.8485680  -0.1941755   5.4677588  17.9194239  68.8890053  38.5949945
  17.6008109  69.4238604  37.8679132  18.8178471  68.6652924  38.3520508
  80.3536788   5.3413928  21.0719466  81.0732035   5.9293240  20.8420491
  80.3630666   5.3140849  22.0287132  89.2250342  80.4922546  22.2970366
  88.3987660  80.4583449  21.8149948  89.7892089  79.8613251  21.8499708
  90.2830572  68.4193827  31.8775797  90.1102538  69.1294743  32.4957538
  89.4745035  68.3404339  31.3713789  82.4722953  83.7767572  47.7162457
  81.6417475  83.7416559  47.2417068  82.3415251  84.4558723  48.3780146
  53.7803888   2.7355692  13.7550735  54.7186852   2.9126027  13.6881220
  53.5913849   2.7964106  14.6914554  53.8086271  13.9182723  53.7624741
  53.8838673  14.8023081  54.1217136  54.5413065  13.4392309  54.1496849
  23.8955573  81.7555008  41.5171957  24.8467520  81.6484565  41.5172911
  23.5833624  81.1225093  40.8705950  44.2209244  11.5694511  63.2180452
  44.3175316  12.4910820  62.9782629  44.7387266  11.4744067  64.0174675
  88.1958313  57.5051332  43.8100815  88.3775182  56.6872288  43.3472109
  87.4242134  57.8626610  43.3707476  87.2792486   8.1011683   7.0228279
  87.4042848   8.7269783   6.3094133  88.0129052   8.2640588   7.6156569
  20.7318234   2.0967229  17.0802009  20.6606126   1.7783892  16.1802983
  21.5810871   1.7742379  17.3818374  61.1328697  11.0414147  32.1187997
  60.9499359  11.5041709  32.9364920  60.8980608  10.1314938  32.3008418
  20.7116870  23.8465620  18.1145608  20.0384501  23.9504791  18.7870085
  21.5236930  23.7219597  18.6058390  66.4050913   2.8066722  38.5540533
  66.5707445   3.5978973  39.0666461  66.3891125   2.1012396  39.2008448
  44.1158819   1.9055772  44.4119167  43.7082672   1.2644705  44.9942112
  45.0504208   1.7016971  44.4479132  63.6171007  13.5372174  49.5798111
  63.9933538  14.3874693  49.3523598  63.7386417  13.4670877  50.5266666
  62.0345068  14.7691286  44.8111391  62.9113102  14.5114291  45.0958204
  62.1097183  14.8659611  43.8618231   9.4123429  39.4385958  17.5326288
  10.3283119  39.7012782  17.6233590   9.1601914  39.7458410  16.6618526
  19.7778348  78.6199815  33.4404063  20.0575760  79.1657419  32.7054763
  19.8709801  79.1850186  34.2074060  84.7257347  74.8208118   8.2171094
  84.4734354  75.1635993   9.0744734  84.1210003  75.2393175   7.6044250
  50.4046869   5.2843803  52.1222878  49.8035383   4.8012379  52.6892281
  49.8431349   5.6656063  51.4473391  15.8473737  69.3804543  63.4964118
  15.4995019  68.5959690  63.9204380  15.2173049  70.0682514  63.7113104
  83.5058880   4.7758138  20.9857774  84.1791725   4.9923822  20.3407788
  83.2898235   5.6128687  21.3967347  81.0626507   8.1215757   0.4846912
  81.6119003   7.5922275   1.0629181  80.2618122   8.2722622   0.9868619
  61.7373562  17.6043677  40.4223156  62.0266438  17.7368689  39.5195484
  60.8556223  17.2409654  40.3403854  19.1330111  20.6385326  51.8907499
  18.8780701  21.5583730  51.8191099  19.9926186  20.5949211  51.4719343
  62.1288252   7.7197170  26.9563293  61.3529778   7.2066581  27.1823001
  61.9314003   8.6027056  27.2687149  48.2171965  18.4834504  50.7106590
  49.1001797  18.8400960  50.6138468  48.2809448  17.5906873  50.3713322
  40.5766991  70.0785352  42.0169592  40.1299790  69.2740656  41.7533302
  40.6903676  69.9902833  42.9632807  52.2653389   2.2161737  30.8900809
  52.8914356   2.3253958  31.6058350  51.4200640   2.1071355  31.3258052
  45.0085448  46.6096549  73.6907889  45.1215385  47.4198075  73.1936800
  44.4101237  46.8451660  74.3997735  63.0094957  23.2480264  34.0564871
  63.5978174  23.3600330  34.8031926  62.2379160  22.8154635  34.4222593
  39.9144840  11.0587430  54.3103981  39.7127891  10.1280415  54.4070625
  39.6212649  11.2767291  53.4256744  31.0421494  84.7349155  59.5602846
  30.6499652  83.9301077  59.2216063  30.5720929  84.9053545  60.3765154
  27.3431138  73.8141132  37.9465914  27.1380976  72.9903925  37.5042295
  26.6935233  74.4331134  37.6132703  20.3568057  68.8526393   7.2801375
  20.5822209  69.3965889   8.0348158  21.0690812  68.2157827   7.2226280
  45.0593833  65.5555106  39.8325086  44.7566870  65.3119112  40.7073069
  45.1313189  64.7240282  39.3637919  47.4895573  15.6220448  66.1584854
  48.4308004  15.7781529  66.0815382  47.3256493  14.8647285  65.5964899
  78.5905694  56.8625097  60.8972821  77.9064511  56.5946322  60.2837250
  78.3509253  56.4405673  61.7223677  20.8541659  72.8359843  36.8645453
  21.6870478  72.5712825  37.2550154  20.3276661  72.0366121  36.8585443
  33.8643244  81.1531166  23.7442160  34.5978383  81.7544238  23.6153173
  33.5080937  81.3899569  24.6005106  20.0856665  85.7687669   4.8297623
  20.3325299  84.9892306   4.3321538  19.1635588  85.9084204   4.6142572
   8.1065968  68.0788351  47.5988626   8.6014298  68.6251367  46.9881821
   7.5753335  68.6988426  48.0984449  18.7658003  67.4450124  66.0448265
  19.4865826  67.3627497  66.6692734  19.1200856  67.1035839  65.2237654
  64.2051506   0.1292461  17.8305054  64.3015051   0.0591310  18.7802589
  64.2000008   1.0709713  17.6591599  43.8621235   2.6632887  14.4618106
  43.0284214   3.1216943  14.5668745  43.6797380   1.9790711  13.8177502
  49.6044159  19.3606353   3.9956608  48.6946630  19.4249046   4.2862612
  50.1019478  19.2056882   4.7985834  89.0989346  78.3917476   0.2400435
  89.6315498  79.0224243   0.7246058  89.7015829  78.0093313  -0.3977682
  12.5661639  63.6987449   6.9806069  12.7168873  63.3329035   7.8522003
  12.1918038  62.9748989   6.4784807  51.7170525  30.7532811   8.2330257
  51.6398907  30.4477000   9.1368496  52.4209166  30.2225518   7.8600198
  41.5626955  11.5626323  42.2426414  41.9070387  12.4270093  42.0178938
  41.5884018  11.5358543  43.1991196  85.0994682  35.0611186   1.5531948
  85.9669304  35.4551482   1.6453025  85.1450539  34.2577505   2.0716120
  62.9277372  22.2043705   1.0919742  62.7388239  21.2668705   1.0515513
  63.8367224  22.2529864   1.3879761  31.0623050   3.1073916  11.4508116
  31.1502385   3.4272677  12.3486865  30.3293729   2.4927479  11.4862275
  48.6575747   0.6168760  64.0341568  48.4980679   0.6893998  63.0931330
  48.8839293   1.5057236  64.3079185   9.7001103  82.6116736  10.3762591
  10.4210833  82.3961709  10.9678543   9.7793702  83.5551939  10.2358353
  90.8420415  75.0079967  46.6371918  90.7240624  75.0295747  47.5868511
  90.8645935  75.9290613  46.3776493  24.2652774  18.0100894  41.9245768
  24.5332003  18.9272475  41.8674088  24.6311641  17.7049863  42.7547979
  39.5740151  35.2289724  65.1985788  39.8115897  35.7776928  65.9460402
  39.9629021  34.3764639  65.3940916  84.6618366   6.7428046  55.3761911
  84.5357704   7.6306182  55.7110405  84.0678978   6.6824329  54.6279764
  81.9249363  71.3044287  65.2627039  81.7409463  72.2436167  65.2451992
  81.4837689  70.9885908  66.0512781  15.7719020  69.9190868  46.0492086
  15.7025603  69.0657032  45.6212330  16.5453175  69.8445416  46.6082239
  28.8370132   5.5263734  52.7622747  29.5603943   5.3192902  52.1706104
  28.2388091   6.0544318  52.2335625  22.6069859  77.4015881  25.7527685
  23.4987763  77.0559735  25.7141376  22.0482043  76.6245229  25.7400370
  57.4358892   5.5096132  40.0646257  57.6292086   6.2457997  40.6450462
  56.4911747   5.3802633  40.1483440  40.6906509  15.6099975   7.0514369
  39.8259687  15.2783251   7.2934115  41.2984037  15.1224375   7.6074517
  77.9035087  75.2136053  23.5658455  77.7307625  75.2562607  24.5063615
  78.6606641  75.7844783  23.4352636   2.8576335   0.3839330  22.2177505
   3.7754878   0.5991309  22.3834896   2.5629862  -0.0438887  23.0217290
  69.9958086   0.8390417  74.1543961  69.8207092  -0.0016595  73.7315559
  69.1610193   1.3056940  74.1144753  27.3392037  81.0793803  33.0395341
  26.6602400  81.7474387  32.9450011  28.1534508  81.5328873  32.8214478
  35.8846517  82.8874759  23.1374907  36.7888684  83.1724534  23.2694292
  35.6814642  83.1441365  22.2380066  45.1967982  83.5390451  23.3765292
  44.3047885  83.5942691  23.0337429  45.3078154  82.6168860  23.6078930
  26.2194851  76.1921103  40.0844812  25.5250004  75.8405531  40.6415558
  25.9521464  75.9622205  39.1945839  62.0083829  16.5941771  16.5266254
  62.1478959  16.2452539  15.6462696  61.0702273  16.4845737  16.6818168
  21.4289406  67.0011581  31.6771269  21.9771556  66.2624122  31.4126468
  20.5778817  66.8232716  31.2767649  77.4591596  83.9103421  34.0195322
  78.0160696  83.1851373  33.7364054  76.5904422  83.5207490  34.1184211
  74.6229743  67.4918954  61.0815976  74.5163916  68.3875339  60.7611260
  74.4340895  67.5485938  62.0182619   1.5379981  80.4762889  34.3407583
   1.0923890  79.6291549  34.3353701   1.9285134  80.5470414  33.4697127
  42.7998379  85.6162957  33.8983774  42.6954487  85.9419842  33.0043626
  41.9112614  85.3969784  34.1786742  21.6641355   2.2401389  67.4020481
  20.9000158   2.6298246  66.9771957  21.6555691   1.3259277  67.1185398
  58.0978251  36.3191772  13.3953631  58.3226728  35.5354738  12.8938806
  57.5591755  35.9952307  14.1172683  75.9043025  66.7294924  70.3340567
  76.5108489  67.1924369  69.7561166  75.6632565  65.9416931  69.8467163
  82.6546574  33.8353491  18.6959267  82.2872257  33.6745191  19.5650399
  83.0523872  33.0013514  18.4459543   2.6003245  80.6782640  31.8905425
   1.6467002  80.6586368  31.8102455   2.8948263  79.8856790  31.4418650
  81.3179107  53.9369536  32.9697657  81.4538164  53.2460071  32.3214173
  81.4860077  54.7495485  32.4926209  77.9909754  22.3173666  40.5045080
  77.8953552  22.6700974  39.6198225  77.2818041  22.7240276  41.0024405
   4.9517849  30.7707167  36.7487454   5.2825809  29.8927212  36.5591955
   4.4698811  31.0204864  35.9603190  12.3079756  79.2558820  19.7066009
  11.3758925  79.1231931  19.5338392  12.5414733  78.5534001  20.3134227
  74.4174671  26.8071747  45.6009483  74.7622585  26.5628982  46.4598322
  73.7060165  27.4179602  45.7933426  57.9051638  27.8646493  68.0129290
  57.7855730  27.4468637  67.1600628  58.7788296  28.2532334  67.9688835
   7.2390131  84.0219239  34.6571875   7.9350690  84.1180942  35.3071809
   7.0323995  83.0873139  34.6640134  52.6625252  17.6083851  35.5379224
  52.5859547  18.5481179  35.3727818  52.1619797  17.4647748  36.3410807
  55.2223281  77.4721290  37.5370193  55.6147650  76.9460429  36.8402719
  54.4837836  77.9131169  37.1171165  36.7999148  36.0767388  23.6374545
  36.0782123  36.1882687  23.0186343  37.4234319  35.5132985  23.1792045
  14.1297797  77.9349471  65.1643229  13.9761666  77.2705288  64.4926167
  14.5712546  77.4636430  65.8708668  59.0094137  23.2676697  24.9222827
  59.0004539  22.4736261  25.4567432  59.4974995  23.0219197  24.1364002
  38.8365436  15.0274611   9.3607688  38.6634827  15.9416616   9.5855319
  39.3345261  14.6881092  10.1044667  90.7849593  83.0959455  32.2386003
  90.5594916  82.3887206  32.8429437  91.2101288  82.6556776  31.5026474
  57.3887157   9.6001798  57.2583675  57.8853607   8.8562733  56.9175148
  57.6549578  10.3376770  56.7093277  24.2316512  77.9646123  31.7433381
  24.1440848  78.7253101  31.1689663  23.4093932  77.9380281  32.2326422
  61.9996548  15.0390232  42.1219254  62.5345898  15.6895244  41.6670322
  61.0988045  15.2664018  41.8917084  69.1407490   8.2077289  32.0147491
  68.2361603   8.4546864  31.8225074  69.0856314   7.2931653  32.2918177
  41.3243723   9.3862385  30.9004760  42.2709990   9.2773372  30.8095431
  41.0476494   9.7777748  30.0720096  49.4394091  83.9105904  29.7697568
  49.3914107  84.0384793  30.7171607  49.2303876  84.7689536  29.4013095
  30.0071791  85.7376486  28.3130503  29.2148856  86.0552334  27.8798771
  29.7884539  84.8478934  28.5900450  25.2588034  15.0782073  20.8697438
  25.9271574  14.8523045  20.2228260  25.5962706  14.7291481  21.6946721
  77.4268205  76.2438560  15.9932721  76.4801259  76.2320943  16.1342108
  77.6549919  75.3299798  15.8229816  19.9241761  67.3779751  58.9587450
  20.3098706  67.2964300  59.8309994  19.8125342  66.4751793  58.6608744
   1.2622317   9.9777967   1.8496819   1.9563731   9.3232745   1.9271587
   1.6699942  10.7945800   2.1374759  54.0282917  24.7197843  16.0914552
  54.0145731  24.1409087  16.8536532  53.8468075  25.5894184  16.4478707
  63.0251312  20.4518723  35.3103924  62.2518635  20.9621644  35.0697899
  63.3325815  20.0789332  34.4841838  76.2594318  39.2749548  17.9949582
  76.3548899  40.0411224  17.4291790  76.5428925  39.5775104  18.8577104
  68.3528042   5.5576241  36.5144491  67.6685381   6.1687499  36.7874718
  68.4227991   4.9368486  37.2396874  43.1981039  31.9405818   0.5631779
  43.0368662  31.9353342   1.5066850  43.6180830  31.0986137   0.3872783
  34.9099970   4.6345365  44.0289164  34.7067189   5.2630699  43.3362007
  34.6580768   5.0798851  44.8378849  39.7692704  20.3832507  11.3474953
  40.7023382  20.1767635  11.4020681  39.5647526  20.7916903  12.1886730
  87.9213236  48.4482985  69.6642921  87.4551199  47.9616811  68.9845202
  87.7320431  49.3670331  69.4736872  40.1149416   0.2373077  12.4105859
  39.8853469  -0.5482210  12.9070377  40.3624678   0.8781012  13.0771804
  55.1020813   6.7429042  63.9439631  55.9218931   6.8403834  64.4283676
  55.3497362   6.8635643  63.0272627  75.8800936  16.7052460  41.4224005
  75.8853340  15.9483135  40.8365202  76.5090275  16.4814997  42.1084118
  12.9926232  69.4997562  48.4434652  12.1073226  69.5291985  48.8062334
  13.1392697  70.3802765  48.0979061  76.3545779  74.3330599  14.1478539
  76.0171965  73.7898935  14.8601580  75.9034327  74.0116454  13.3672178
  29.1128659  25.3878307  10.5851924  29.8523355  24.8336792  10.3355289
  28.5092783  24.7946191  11.0324216  32.1988249  16.3089049  61.3744783
  32.6823568  16.5741313  60.5921221  32.6898456  15.5624723  61.7179441
  53.3334112   5.0596011  68.1920385  54.0660477   5.6032556  68.4817076
  53.5627079   4.1758007  68.4793520  30.2711896  79.8574055  48.9320612
  29.3765906  79.5740134  49.1207743  30.2587918  80.8032156  49.0787601
  68.7179661  12.4317193   4.5107049  67.9008532  12.7814817   4.8659819
  69.4050884  12.8918338   4.9927711  17.8088788  59.4460798  19.3469191
  18.6050919  59.6394254  19.8417842  17.1038464  59.8306800  19.8677325
  85.0080585  24.4198585  50.3466892  85.3399277  25.0024199  49.6635246
  84.3543530  23.8790250  49.9035263  19.0623236  21.9226074  13.4289491
  19.4954419  21.7456412  14.2640090  18.4023488  22.5839949  13.6368740
  32.2578573  50.5918741  29.7878528  32.8262925  50.3675318  30.5245900
  31.5524697  49.9458599  29.8241997  52.3911238  26.8426466   3.8133299
  52.8537989  27.6616836   3.6362940  51.4642429  27.0796514   3.7824467
  71.9271326  11.1707330  44.8883152  71.8317556  10.2849269  45.2382898
  71.0843325  11.3567674  44.4744205  26.0423258  65.2297188  70.9837198
  25.5216912  64.6034623  71.4866877  25.3953055  65.7973362  70.5649090
  47.3957109  11.7443657  17.9279518  46.7735958  11.0170603  17.9431164
  47.9661894  11.5873003  18.6803567  83.1329412  70.2112425  42.9090786
  82.3730321  70.7779313  42.7762890  83.4218187  69.9867846  42.0245457
  80.3454716  77.4361731  27.1835756  80.3416927  76.8774296  27.9607630
  80.7154233  76.8848837  26.4940476  42.1156100  71.7576481  23.2076311
  42.8241709  72.3521746  22.9612374  41.7201594  72.1631266  23.9792800
   2.0416096  83.0930139  35.3541040   1.7563847  82.8373451  36.2313223
   2.0300988  82.2784091  34.8515916  35.6702117  84.7047170  31.8743229
  35.7387665  84.6136055  32.8247070  35.4449252  85.6249198  31.7375612
  47.3081207  18.2838941   8.0087942  46.4152288  18.2853687   7.6638687
  47.2148228  18.5739088   8.9162183  62.8332494  54.1109614  70.8737213
  63.3357857  54.1319065  71.6881237  62.2730635  53.3393614  70.9577257
  62.9325914  34.1337490  40.5233908  62.8683949  34.9565887  41.0082054
  62.6243591  34.3496442  39.6432686  66.2263489   1.4507666  40.8734608
  66.1414623   1.8628255  41.7332458  66.2682056   0.5129336  41.0604048
  55.6898975   3.1320387  71.2116289  56.3736629   3.0727613  70.5444050
  54.8860312   2.8874150  70.7531691  16.2088135  52.0787526  40.2759933
  15.7819823  51.5699030  39.5867062  15.7024268  52.8896380  40.3235579
  79.2675209  20.0673938  16.6557670  78.5107040  19.5430267  16.9174898
  79.3790817  20.6984711  17.3667717  43.5208157  77.3235024  24.4158673
  43.2511023  78.2202906  24.2177296  43.9067916  77.0037664  23.6003757
  29.9791077  82.0925570  32.7338648  30.4088477  81.4276511  33.2718730
  30.6678704  82.7299652  32.5453258  29.8735833  25.6571126  22.2503829
  29.1932321  26.0092521  22.8242755  30.5398393  26.3436818  22.2194719
  56.8143368   0.9722319  54.5534277  56.6583252   0.2507186  55.1627779
  56.1471224   0.8621221  53.8759804  61.6215039  77.8477133  52.5509644
  62.1413041  78.6235631  52.3409748  60.7163642  78.1590832  52.5526094
  76.0860053   5.4584932  61.0061979  76.2764481   4.5216382  60.9585953
  76.2193195   5.6835181  61.9269705  15.6755141  82.4945174  33.8366508
  15.0394324  82.9595784  33.2931924  15.8072356  81.6587082  33.3890963
  73.5167503  19.6830070  42.4181223  74.2972851  20.0754547  42.8092527
  73.3224249  20.2380419  41.6628695  43.9312696  36.9957900  17.0154619
  43.5112524  36.7278600  17.8327930  43.4464455  37.7741385  16.7409670
  34.2997003  11.1014104  27.5665212  33.6153769  11.3074410  26.9297457
  33.9235950  10.4055941  28.1056094  50.8553982  15.6008935   9.1514432
  51.1931086  16.4605272   9.4028628  50.4639101  15.7401967   8.2891428
  18.2711915  75.3787590  32.9185462  17.7583245  74.7229649  32.4461794
  18.6468533  74.9016179  33.6584449  65.3198290  24.2213249  54.0749121
  64.5905733  24.3886161  54.6719265  65.9106159  24.9631953  54.2046595
  88.7772797  64.5106547  62.5056968  88.4549235  64.7480147  61.6362271
  88.4811734  65.2221792  63.0733988  50.2242517  15.7273960  35.6811190
  49.5432758  15.0708771  35.8277130  50.7830858  15.6700063  36.4561296
  64.3111656  85.8848286  53.4118557  64.6820713  86.0690752  52.5488853
  65.0673358  85.6627781  53.9551163  76.3102865  31.4688993  16.0732067
  76.9338465  30.9995508  16.6273856  76.3824081  31.0440135  15.2185130
  72.6599789   3.6687478  74.6834278  71.9176435   3.7168771  74.0810585
  73.1157732   2.8636116  74.4379950  43.1203747  14.6222770  45.3970242
  43.8164616  14.7014022  44.7447729  43.5242462  14.9128091  46.2147713
  11.2552432  85.4801008  37.8519821  12.0629815  85.9641526  37.6802683
  10.5661992  86.1435452  37.8160739  67.0771023  73.6991032   5.7867172
  67.8661748  74.2157062   5.6232574  67.0845481  73.0280002   5.1042202
  48.2971048  22.1065784  59.0387726  48.5840130  22.6137519  58.2793713
  47.5399494  22.5861311  59.3748856  51.9472170  22.2093558  45.4006672
  52.6338673  22.3207617  44.7431421  52.4187565  21.9934082  46.2051821
  56.0063076  15.2512181  40.4576206  55.8817530  14.5963335  41.1445284
  55.2545881  15.1348197  39.8765850  38.5522389  20.8884215  13.6837840
  38.2051277  21.4120436  14.4059801  38.0629039  20.0668788  13.7267983
  41.1774826  40.5518103   5.1790285  40.5214977  41.2393427   5.2939594
  40.8363819  39.8095131   5.6779045  58.6769295  13.4100616   8.7270129
  57.7877378  13.1544173   8.9724046  58.5732698  14.2635977   8.3063442
  36.7171454  31.2785935   9.5438290  36.8620753  31.7852163  10.3429282
  36.4343524  30.4182172   9.8536915  38.4990052  85.4652443  42.5265551
  38.4309939  85.5601976  41.5765047  38.2522610  86.3234386  42.8713036
  22.1550206  64.5247317  66.2462807  23.0361823  64.1638685  66.3440847
  22.0973042  64.7687531  65.3225088   2.5652102  75.0974513  26.4041805
   3.1442097  75.8195520  26.6482401   2.2440437  75.3317750  25.5334473
   7.3214773  71.1317838  28.9436102   7.8680137  71.7578114  28.4686160
   7.8368548  70.9023643  29.7169042  62.0216179  15.4268384  23.5152626
  61.7844200  16.1131394  22.8915954  62.6121235  15.8581591  24.1329169
  12.7549704  11.6413271   9.1873020  12.6329192  11.7302179   8.2420856
  12.2348746  12.3512542   9.5637715  46.2443304   0.6601714  19.8290884
  47.0263767   0.9403419  20.3046346  46.3863134  -0.2716658  19.6624959
  20.2363348  30.2887988  52.7656078  19.6066213  30.9861231  52.5827646
  20.8635092  30.6850004  53.3705091  44.5616817  10.3727770  58.3076620
  44.4935226   9.6962088  58.9813375  45.4317284  10.2469039  57.9289627
  88.4285927  22.8168917  21.2414718  88.4222507  22.0967388  21.8720055
  89.3442154  22.8918219  20.9726715  48.4483719  35.9650111   3.1890804
  48.1153631  35.0962472   2.9641607  48.3081293  36.0382533   4.1331139
  51.8658924  26.9625878  24.8178005  52.4456692  26.4473557  25.3787184
  51.0201263  26.5180063  24.8749042  44.3595028   3.0056679  35.2007723
  44.4434643   2.6878038  36.0997415  43.4235096   2.9422215  35.0107312
  68.9156818  24.2387915  45.5155277  68.8760948  24.1298223  46.4656830
  69.6893644  23.7419224  45.2494907  60.5921888   9.8039818   0.6947249
  61.4363050   9.9803835   1.1101604  60.0345707   9.4930714   1.4079043
  52.7763414   2.0973529  42.2592211  53.4989166   1.7193682  42.7604628
  52.9048634   1.7693445  41.3692045  24.4606645  31.3617580  62.1689365
  24.5407541  32.2368615  61.7894492  25.3634317  31.0574179  62.2617826
  64.0942240   6.5511757  48.2701254  63.4188414   7.1743405  48.0022621
  64.1467142   5.9284902  47.5450468  75.8909178  16.5995574  34.7989988
  76.1450863  17.5106490  34.6522236  76.3617420  16.1081421  34.1258955
  65.4506229  79.0882723  65.9253136  65.7680868  79.6364920  65.2077452
  65.7369302  79.5419257  66.7180667  40.8751583  17.5149298  26.2432456
  41.2025690  17.5086737  25.3438067  40.6909847  16.5959179  26.4374876
  33.4039095  78.8776065   7.5746083  34.0104560  78.1518168   7.4277556
  33.4168843  79.0126044   8.5221523  10.9386849  12.4941909  23.8162589
  11.4086080  12.9838586  24.4912624  11.5610695  11.8267357  23.5275149
  38.5615758  84.4322229  36.9601917  38.0970887  84.1143910  36.1859393
  38.1690196  85.2862496  37.1412182   3.1329783   3.0486736  25.2266526
   3.0957278   3.5185304  24.3935394   2.7138003   3.6385092  25.8532405
  40.4120016   6.8437344  32.1047044  39.6880722   6.8151116  31.4791298
  40.6568003   7.7681977  32.1455979  13.4276302  73.4181421  64.2996523
  13.9014966  72.6713841  64.6657566  12.8793676  73.7301843  65.0195644
  45.4235411   2.2713456  10.8665001  44.6467400   2.7874598  11.0819948
  46.1236095   2.9180220  10.7773900  65.4752350  39.3173885  29.4527030
  65.9883070  38.5213900  29.5919061  64.9356556  39.3952036  30.2394867
  43.5691432  80.4864706  68.5643196  43.4888199  81.1201150  67.8513861
  43.5069731  79.6333731  68.1346750  12.9256800  84.9211718  22.0470142
  13.4244135  84.4436436  22.7099347  13.1484870  84.4892080  21.2223959
  48.8912535  34.1785288  11.0539579  48.6445618  33.4308720  10.5095458
  48.0730200  34.4543529  11.4670515  91.0948372   4.0496972  12.5342321
  90.3999329   4.1353801  13.1869125  91.9058895   4.0946952  13.0405939
  17.2306899  48.8748837  37.3641682  16.7348507  49.5251323  37.8617167
  16.5648154  48.2851435  37.0105410  73.5206461  16.7201912  31.1492825
  73.1015968  16.0196102  30.6494713  72.8829813  16.9456232  31.8266249
  77.3437689  28.3833699  54.9004564  76.7984866  28.9178889  55.4776797
  78.1519412  28.8865237  54.8007998  52.7414799  34.8101211  16.5656090
  51.8142891  34.9870825  16.7244625  52.8017044  33.8552284  16.5376365
  65.3249598  21.2713456  55.1856375  65.6025410  22.0796943  54.7546434
  65.4835415  20.5867481  54.5357037  87.9883499  58.3023001  69.0256262
  88.0568690  57.5571872  69.6225739  88.1273074  57.9263664  68.1563759
  43.4724808   4.1987640  19.9710989  43.3950377   3.2889831  20.2583838
  43.8589287   4.1419157  19.0972221  78.3688211  36.8422222  38.2685518
  78.0736732  36.2633085  37.5657129  77.8629446  36.5676308  39.0333533
  45.8896255  30.7659411  15.6068754  46.5416193  30.0699854  15.5245328
  45.8138752  31.1288095  14.7243679  60.2951193  10.7668674  55.8401537
  60.8055782  11.3754201  56.3743114  60.9046793  10.0574708  55.6366301
  70.9617138  18.4891486  51.4272547  70.9620619  19.1746712  52.0953035
  70.3038073  17.8621876  51.7277718  38.6566142  81.0501660  16.4950454
  39.4171551  81.6239918  16.4026356  38.8871029  80.4608078  17.2132134
  38.7312508   8.6522907  63.1413889  39.2312908   9.4444966  63.3378601
  39.3873024   8.0232602  62.8411388  31.2671832  77.9746515  47.1588373
  31.1985711  78.3067895  46.2637377  30.7022694  78.5519500  47.6724815
  64.8604393  29.0884018  30.6478930  65.4634666  28.4394383  30.2853489
  64.3174887  28.5940981  31.2619781  35.1039600  45.7699394  33.8707542
  34.1682768  45.8968449  33.7138438  35.2077794  44.8213243  33.9455247
  83.6872864  40.2062225  14.1047204  83.9349651  40.8308315  14.7864473
  82.8444767  39.8570681  14.3945324  80.6382275  35.3137422   2.7271152
  81.1728287  35.3041029   3.5210535  80.8003807  34.4632983   2.3188424
  73.0368899  68.6956589  73.8544510  73.0736207  67.7997224  74.1893843
  73.9147376  68.8585298  73.5093608  61.3412333  34.1660309  20.9656215
  60.4273605  34.3096161  20.7197452  61.6849232  33.5889721  20.2836275
  53.8668156  19.0700507  15.0887871  54.7319221  18.9148414  15.4679072
  53.5655689  18.2032192  14.8166013  90.5922980  76.8644674   6.6780794
  91.4326496  77.2126699   6.9760680  90.2469106  76.3916094   7.4352747
  38.5171965  73.2342018  31.8406010  37.7088383  73.3560599  31.3426661
  38.6309317  74.0562726  32.3175645  58.2158927  75.2965022   7.3601282
  57.8844908  74.4028128   7.4480283  58.1986598  75.6470169   8.2506752
  46.6477660  80.3980781  69.1289186  45.7075242  80.3304894  68.9627695
  47.0234755  79.6326185  68.6940098  54.2112446  12.7908003  38.1466985
  53.5421085  13.4751570  38.1346798  53.9479733  12.1861970  37.4528861
  66.1304712   4.1824585  24.7123265  65.4655981   3.6886328  25.1922369
  66.9573164   3.9367205  25.1272631  64.2839575  17.0799243  55.3455448
  64.3611670  17.6927829  54.6143341  63.3713293  16.7922318  55.3215885
  21.6362265  83.8190774  37.4398112  21.8641118  83.2373835  36.7145991
  21.2219218  83.2462949  38.0851817  86.1892128  50.0317717  31.7973995
  86.3688087  50.0625372  30.8577013  85.5527878  49.3237114  31.8965602
  69.3033028  13.7944484  18.1833935  69.8926020  13.4918070  18.8743091
  69.6969509  14.6098793  17.8729999  75.2366257  10.8432531  26.5662599
  76.0049391  11.3532329  26.3096452  74.6617460  10.8750105  25.8015800
  42.2249746   0.2369043  42.2015762  42.2787237   0.7426547  43.0124807
  43.0803967   0.3548779  41.7885733  65.9469223  37.6402307  52.1351480
  66.0618067  37.2163486  52.9856539  65.2437353  38.2740974  52.2764921
  44.8757124  16.9103289  28.5956526  44.5229340  16.9910610  27.7095008
  44.3017292  16.2760043  29.0250802  54.7419310  17.8333986  38.7073255
  54.5010090  18.4999871  39.3506336  54.0903854  17.1418643  38.8234949
  18.2719544  67.9898931   1.4040950  17.8837517  68.3012570   0.5864256
  17.5344304  67.6322306   1.8984337  70.6653309   9.7563696  19.4169343
  71.5909147   9.9857646  19.3338645  70.6593752   8.8007456  19.4715130
  69.7023487   6.7920220  65.2614737  69.6461821   6.3168520  64.4324446
  69.3710423   7.6669335  65.0589895  48.7504244   2.7461791  28.1000900
  47.9742527   2.5770417  28.6341119  49.0694904   3.5960338  28.4036922
  39.4144917   8.3203673  53.6828947  39.8711228   7.4871469  53.7989283
  39.0276098   8.2618445  52.8093243  36.4054894  55.4162359  11.4483821
  36.7911124  55.5838013  10.5884707  35.4682636  55.5656433  11.3238120
  56.9894484  82.3753254  25.3387761  56.9702986  81.5102846  24.9294233
  57.9207495  82.5707928  25.4422045  71.6088057  38.6524868  31.6359591
  71.5040064  39.6020365  31.6959882  71.0827875  38.3073807  32.3573685
  62.7854490  35.6831717  53.7640715  62.2485781  34.8918438  53.8065863
  62.7674246  36.0329747  54.6548843  52.8382397  38.6095452  62.5621414
  52.1623802  39.1854191  62.2046328  52.5012302  38.3478451  63.4189749
  75.0218630  11.4793491  38.8815188  74.5494270  12.0716774  39.4664836
  75.7828808  11.1978304  39.3892860  63.9110088   3.5722694  37.2153711
  63.4760666   3.1397030  37.9501796  64.7941160   3.7572190  37.5349665
  74.1583776  33.3871126  33.0779123  73.7127781  33.3321738  32.2325397
  75.0229836  33.0088282  32.9179549  43.9662313  25.7860661  53.5587120
  43.5788727  25.1199031  54.1265249  44.7038174  26.1305189  54.0622473
  90.6263383  38.5020161  34.5635176  89.8641384  38.5169721  33.9846730
  90.6133357  37.6282382  34.9541259  63.2539320  42.7361917  61.0783625
  63.6831427  42.8580809  60.2315140  62.3538923  43.0288029  60.9350300
  82.0813179   4.3937433  67.9893017  81.2030602   4.2602164  68.3457613
  82.4800873   5.0408667  68.5710621  76.3616943  12.9393864  31.8359756
  76.3588285  12.1381176  32.3596072  75.4538918  13.0421102  31.5503621
  34.7388053  19.1290295  11.8398750  34.0048552  18.5308862  11.9804895
  34.3298388  19.9863589  11.7217088  87.1838284  21.2969375  45.1826620
  86.7079735  20.4700923  45.1044369  86.7645645  21.8757391  44.5459223
  59.3528245  38.4981753  66.3295636  59.4353484  38.5397174  65.3768328
  58.4638833  38.8058599  66.5066150  34.9483609  16.3275313   3.8672614
  35.6818986  15.7922912   4.1700315  34.5090389  15.7838607   3.2133108
  65.6584644   7.3211437  36.8016291  64.7244310   7.1168709  36.8473339
  65.6901455   8.2679892  36.6648388  73.4042978  40.8314753  36.5203810
  73.8370275  39.9795818  36.4633369  74.0609598  41.4549351  36.2100196
   3.7141303  63.9428616  61.4569426   3.8709715  63.0408240  61.7361593
   3.8202528  63.9210845  60.5058908  65.8328199  22.9005766  21.7855835
  65.3858852  22.5999308  22.5768447  65.9901571  23.8322568  21.9387078
  81.1549187   3.3904001  25.6463957  81.4631844   3.5837355  26.5317369
  80.6449699   2.5858560  25.7406902  49.3586997  82.8093059  55.9970856
  49.4500569  82.8477282  55.0450325  48.7064007  83.4790927  56.2023306
  75.5418348  50.8936596  63.8895226  75.3748655  50.1858425  63.2671547
  75.3638840  50.5060530  64.7464514  58.9698839  21.8777919  44.3502951
  59.2410469  22.4425364  45.0740099  59.6822786  21.2448072  44.2605352
  27.8156212  59.1400767  64.1250563  27.4507359  58.2977797  64.3963957
  27.8293589  59.6642781  64.9258423  46.4707422  13.5256207  52.4742460
  46.4692402  13.2595038  51.5547848  47.2434282  13.0998147  52.8455639
   8.5168513   1.3938324  28.3347416   7.6897296   0.9141611  28.2898951
   9.1333922   0.7724465  28.7220335  36.8133525  85.2136804  51.5649843
  37.7688721  85.1572056  51.5695953  36.6282490  86.1218238  51.3257265
  71.0049772  38.8096023  27.9907680  71.8313265  38.6878467  28.4582615
  70.3424168  38.8448572  28.6806989  36.6015458  24.8808551  26.1308575
  35.7510495  24.5962358  25.7963705  36.6068697  24.5963836  27.0447946
  89.1893101   6.4253110  21.5696239  88.7784100   6.7495304  22.3710418
  88.8824749   5.5219787  21.4916825  59.7563267  14.1422546  24.1979098
  59.1511059  14.3504858  23.4861636  60.4681253  14.7746658  24.0997767
  43.6640310   9.3674242  37.4935937  42.9560661   8.9411175  37.0106030
  43.2195044   9.8698747  38.1763625  24.3503213  28.7132311  56.8316698
  25.1444530  28.3628678  56.4281464  24.0915132  28.0472994  57.4686813
  25.6250238  29.7425294  11.4997208  25.2570724  29.6244264  10.6239963
  26.4982915  30.1030827  11.3459718  25.7487183  66.5262969   8.1110695
  26.4931088  66.9485672   7.6823356  26.1180763  65.7396587   8.5123279
  67.6616669  10.7192361  28.8313913  66.9823790  11.1676288  29.3351173
  67.1795559  10.1350427  28.2461405  75.2470970  38.8755107  36.4462638
  76.1220312  38.7194037  36.0908103  75.3785133  38.9246845  37.3931241
  51.8128014  18.9509785  30.7651019  52.1303940  18.9136040  29.8628998
  50.9134579  19.2698586  30.6894159  60.0382519   8.6138070  32.8775144
  59.8638964   7.9177982  32.2439528  60.2535820   8.1517702  33.6876941
  35.8704472   6.0345018  61.7181301  36.6097260   6.6288710  61.8462849
  35.3158832   6.1730063  62.4859238  79.6837521  34.6832657  28.0499578
  79.2468691  34.3176627  28.8191795  80.3839874  35.2284217  28.4087205
  60.3121328  27.1080327  27.8966904  61.2541294  27.2607827  27.8222275
  59.9734068  27.8997588  28.3146214  82.6477955  55.6422381  71.6904664
  82.1055745  55.0283258  71.1951456  83.2729243  55.9807198  71.0494748
   9.5576910  77.0836903   3.5675165  10.2032975  77.0073266   2.8649560
   9.2806438  76.1832942   3.7371176  45.2742767  21.2084961  51.7081070
  45.3184748  22.1535993  51.8532181  44.4297552  21.0713100  51.2789345
  64.3987656  27.5157714  43.6293745  64.7671843  27.9241204  42.8459501
  64.3789482  26.5807796  43.4253407   7.8799685  35.1232314  47.9620790
   7.5863513  34.2613983  48.2574749   8.2830866  34.9596643  47.1094513
  64.1275883  15.8199286  31.4536762  63.2378054  16.0265434  31.1676097
  64.5124102  15.3464210  30.7161570  84.0524769  45.1906061  61.4792347
  84.5952034  45.2119064  62.2674131  84.4377232  44.4985342  60.9417868
  77.1806431  32.8933501  33.6561179  77.1860123  32.7969074  34.6084309
  77.8844976  32.3196602  33.3533049  36.9884253  21.1957145  11.2969792
  37.7141738  20.7498670  11.7337179  36.3365221  20.5094075  11.1547172
  51.0176325   9.3869078  35.6095314  50.9332466   8.7444073  34.9050450
  50.8101988  10.2247322  35.1957059  26.7452506  73.6169733  33.4335947
  26.4243773  74.5071591  33.5779572  27.4738053  73.5225345  34.0472102
  19.5765074   3.0952546  55.4886818  19.0116461   3.2742482  54.7369385
  18.9916571   3.1444427  56.2448311  59.0889168  14.4035089  52.7554989
  59.1750002  13.7470663  52.0641947  58.8897610  13.8972437  53.5430670
   9.9515849   1.7571473  32.5642109   9.8186535   0.8379254  32.3327112
  10.2041149   2.1771127  31.7419648  74.2865896   4.4731525  68.1050444
  73.5202456   4.3822443  67.5387526  74.7677469   5.2155524  67.7395773
  53.0533075  11.3704944   8.5839844  52.3308945  11.6938961   9.1222799
  52.9689407  11.8473935   7.7583444  51.7169809   3.8440356  39.8750520
  51.5225410   4.6868992  39.4651675  51.5237904   3.9786455  40.8028364
  54.4728947  16.5979004  12.0319915  54.7025967  15.8280170  12.5523281
  55.0714636  16.5697896  11.2855613  57.0667887   9.3142128   9.8367780
  56.2321234   9.3578303   9.3702376  57.1884918   8.3833075  10.0234210
  21.9046172  46.0979366  61.5648079  21.9407042  45.2341032  61.1540461
  21.2287673  46.0151911  62.2375727  47.2870398  30.8608222  19.9644077
  47.5325775  31.0399175  19.0567362  48.1164598  30.6754756  20.4047894
  25.3061465  71.6387690  45.7404566  25.9563283  71.9115914  46.3878107
  25.8132914  71.1815775  45.0696278  64.2265511  22.8406525  63.2595921
  64.5412350  22.3008251  63.9847088  64.9262381  22.7977061  62.6078033
  68.4450006  27.1116638  41.6471004  67.6327419  27.6175976  41.6249132
  68.1586742  26.1983538  41.6362715  35.8475426  78.4572775  48.9651299
  35.9495381  77.5056691  48.9487028  34.9950389  78.6138315  48.5589743
  62.7531528  38.9453101  35.0024700  62.8819084  38.7321854  35.9267163
  63.0390644  38.1612062  34.5337796  39.7139168  24.6259403  51.7860889
  40.3472710  24.8677087  51.1103344  40.1421309  23.9234757  52.2753763
  18.6685713  38.9138365  51.8102741  18.1878432  38.3388352  51.2148714
  18.5627707  39.7884846  51.4360762   9.5020560  79.3892957  57.8823423
   9.8805407  80.2658702  57.9501629   8.5561279  79.5351786  57.8953028
  75.4259634   8.2071435  24.4510388  75.3499174   7.8021884  23.5870600
  74.7538042   8.8886189  24.4561410   7.7716282  47.8121592  35.1306129
   8.3794693  48.3100129  35.6773329   8.3178476  47.1501018  34.7068739
  64.0071058  10.7060552  49.4293833  63.6904430  10.4105794  50.2829933
  63.8758850  11.6541553  49.4403076  56.7495251   4.0268356  51.7959213
  56.5828276   4.4032204  50.9317589  56.2158155   3.2325515  51.8182278
  11.7499714  85.4578789   1.1810520  12.2511034  85.6360825   0.3852203
  12.0132761  86.1482867   1.7895248  71.8832922  35.2853203  29.4768167
  72.4278831  34.5016408  29.5509696  72.5090075  36.0079980  29.4272900
  89.1186018  84.9960991  30.8540964  89.7452254  84.4285480  31.3029361
  88.9506526  85.7053302  31.4745927  67.6441479  17.2874427  47.4763870
  68.0616951  18.0801642  47.1395206  68.2168818  16.5754330  47.1913433
  14.0392903  70.2107347  23.6661720  14.0438202  70.6753040  24.5030642
  13.2385090  69.6867765  23.6874199  78.5497761  36.8492723  34.5045900
  77.7661753  36.4872813  34.0908647  79.1572428  36.1111832  34.5539761
  72.8909397  29.1597271  15.3751755  72.4714804  28.5840797  16.0146451
  72.4223900  28.9912677  14.5576704  47.7921343  27.5482035  14.6235597
  46.9734955  27.0527029  14.6467781  47.7775335  28.0725288  15.4242492
  70.7231140  57.3134756  28.0047417  69.8522472  57.4903297  28.3604813
  71.0505819  56.5806580  28.5262513   2.7701815  49.3934298  73.6963558
   2.0245799  49.6502113  73.1537914   3.3807715  50.1273394  73.6271572
  35.2287034  71.5640689  24.5041466  34.3031481  71.3680542  24.3587089
  35.6657246  71.2604845  23.7084818  58.0243587   6.7824501  13.3627236
  58.8415766   6.4636409  12.9796481  58.1369352   7.7317637  13.4113133
  26.6191464  75.5982336  11.6175392  26.3196163  75.3822978  10.7344272
  26.0763722  75.0592931  12.1930244  53.6683035  12.4052250  19.2290688
  54.2166710  12.1107566  19.9562645  52.9622841  12.8989971  19.6461487
  34.6714163   1.0574776  49.4089699  33.8545752   0.5952939  49.5970869
  34.8366785   1.5806769  50.1933050  70.7835770   1.2513490  48.2165098
  70.6813145   2.2025225  48.1842136  69.8936224   0.9185830  48.3326387
  90.6375122  47.6970911  51.2403393  90.7476425  48.6409903  51.1256504
  90.9768486  47.3161936  50.4304028  59.8123169  22.2386408  41.2929010
  59.5333862  22.2484684  42.2085047  60.7335949  22.4969506  41.3203955
  29.3855647  76.1252470  33.3044624  28.4556893  76.1078251  33.5308838
  29.7489861  75.3456582  33.7244582  34.5708111  82.3365192  45.0061417
  35.0349692  82.2855056  45.8417177  35.0633267  82.9806829  44.4975042
  60.8429241  16.4561069   0.9723169  60.7045221  15.8726871   0.2261958
  60.3668499  17.2544205   0.7436663  83.7629412  61.7768185  69.7305295
  84.7023200  61.9555693  69.7735194  83.5078810  61.6161685  70.6390262
  35.5891848   8.5519123  45.8900261  35.8376074   9.1507488  46.5942383
  35.0904536   9.0943843  45.2791071  79.7915649  22.7418828  45.9430027
  79.4652462  22.1671391  46.6353989  79.2923641  23.5517168  46.0488510
  80.6863499  65.4861259  11.6204846  81.4297962  65.6861973  11.0517287
  80.4922962  66.3135052  12.0609617  78.8552475  38.1367445  47.9550838
  79.1228294  38.5206366  47.1200657  79.4442129  38.5298944  48.5991240
  61.2605715  30.1283813  22.0663047  60.4605103  29.6649337  21.8186092
  60.9652805  30.8104873  22.6694322  86.1435699  28.8330054  60.0629377
  86.4139271  28.3981442  59.2542124  85.5141544  29.4961023  59.7794485
  74.4642591  38.0004382  34.0781188  74.7349119  38.3768082  34.9155688
  73.8810635  38.6572266  33.6976624  75.8807707  56.9752979  11.6465974
  75.9072495  57.8587294  12.0141304  75.6325817  56.4167500  12.3832524
  69.0211248  12.1812606  66.4395046  68.1616879  11.8556070  66.7069912
  69.1403627  12.9855168  66.9446659  40.4790572  78.0873061  56.2163734
  39.7922829  78.7518520  56.2707329  40.1586560  77.3668111  56.7590141
  66.4420128  44.3564796  15.7592523  65.9125662  43.6171436  16.0580885
  66.8378830  44.0528917  14.9423349  86.2132454   4.0029207  36.1495519
  86.9913387   3.7765035  35.6400990  86.2756062   3.4605971  36.9358277
  43.2185888  25.3514385  21.6361475  43.3674526  24.4233322  21.8169475
  42.6277161  25.6392479  22.3320389  53.7589931  51.3791656   2.8519633
  54.1312265  51.9326019   2.1653894  52.9203749  51.0864210   2.4952400
  35.6952834  10.0996077   2.5422341  36.3915849   9.9913508   3.1900600
  36.1550355  10.3087175   1.7291327   4.9999484  12.3655605  27.8441191
   4.8165091  13.3030295  27.7830029   4.9215754  12.0470488  26.9448757
  39.7359276  24.2725825  10.4177356  39.9322867  25.2018332  10.2987158
  40.5691719  23.8838863  10.6839132  89.3746567  13.4181869  61.3028288
  90.1148701  12.8401089  61.1180687  89.7714329  14.2777920  61.4438105
  55.5271244   5.9504753  43.7927151  55.8838987   5.5567646  42.9965115
  56.1092997   5.6494856  44.4903612  72.9483986  21.5700912  20.9922481
  72.0568466  21.4764309  21.3278008  73.2319403  22.4301052  21.3024282
  66.2641239  11.4801025  24.5499778  65.9692669  11.8087578  23.7006998
  66.1578846  10.5307460  24.4894266  83.1192017  26.3895178  71.3889122
  83.5527039  26.5569711  72.2257328  83.8339138  26.1873412  70.7851458
   7.0349414  48.1634628  66.0410068   6.5243060  47.7783780  65.3288326
   6.6056068  49.0004222  66.2182048  62.9801989  33.9505458   1.0210539
  62.3374462  34.6594286   0.9968558  62.5387383  33.2428861   1.4906950
  70.6011057  19.2205954  70.6971359  70.0334740  19.3240988  71.4608860
  71.4608765  19.5169473  70.9957933  38.3307886  15.5110693  47.1048450
  39.1285396  15.2963746  46.6213846  38.4305668  15.0608432  47.9436350
  63.1660938  13.8669753  19.0992165  62.6659822  14.1000438  18.3170390
  62.9438829  14.5456314  19.7366190  72.5543451  21.6429901  51.1792994
  73.2202053  22.1852183  51.6022062  71.8379641  21.6056132  51.8130493
  41.4714575  27.1255684  10.5343115  40.6157875  26.8848252  10.1792026
  41.6590214  27.9810333  10.1480067  39.5397568   9.8446852  12.7811337
  39.8161077   9.3687862  13.5643208  38.7777591   9.3605053  12.4630713
  84.7303963  26.1478686  10.4450703  84.1720867  25.4053879  10.6758082
  84.5783710  26.2801719   9.5093280  81.9419861   3.7136272  46.7019796
  81.8493271   4.6106988  46.3811874  81.1522484   3.2672611  46.3965273
  48.9341096  81.6904102  26.8302655  48.0390290  81.3681630  26.9361854
  48.8340071  82.5364653  26.3939118  36.1281013  16.1702728  44.0780067
  36.1104584  16.9617355  44.6160650  37.0585561  15.9683502  43.9794493
  55.1194477  16.3599420  29.7721291  54.8456097  17.1474707  30.2422810
  54.3003178  15.9489167  29.4958782  90.5348204  57.5891643  73.3462109
  91.0184096  57.2042029  72.6153374  90.0558423  58.3210712  72.9574635
  81.3291836  16.8987298  47.6858616  81.1377430  17.7914810  47.3985004
  81.8639183  17.0096397  48.4719849  31.1245373  85.4884556   8.6113727
  30.3783587  85.4303879   8.0146474  31.6866520  86.1612657   8.2272035
  59.5490170  16.9661200  19.8470080  59.6054745  17.2883558  20.7465672
  59.2702150  17.7267575  19.3371749  44.9108389  63.3172847  20.1114631
  44.4148902  62.8853608  19.4159710  44.2574338  63.5206462  20.7807446
   7.1500996  75.1429463  43.7237644   6.9009403  75.7836855  43.0577278
   7.8874663  75.5472005  44.1810369  63.7214708  29.2580438  21.6835403
  64.0590239  30.1534104  21.6588759  62.8160286  29.3515015  21.9796252
  55.6730986   4.4706106  24.0509319  54.9276924   5.0634199  23.9551163
  56.0500097   4.6953008  24.9016285  53.3259869  24.3155718  25.7591915
  53.6908340  24.3776727  24.8764324  53.9133930  24.8446274  26.2988973
  60.2074337  27.0244408   1.3579345  59.7122860  26.5776944   2.0445763
  59.5514870  27.2517276   0.6989130  71.8082476  37.9884648  15.5109179
  72.0202446  37.4459553  14.7513306  72.1269798  37.4859023  16.2606335
  79.9972677  46.2968111  35.6361175  79.8334980  45.6548595  34.9452424
  80.1217175  47.1236420  35.1701784  64.9113035   1.8223967  67.2547197
  65.6549025   1.3489719  67.6277637  64.3926191   1.1472543  66.8172503
  15.5408839  76.0126931  41.7912149  16.0574607  75.2317692  41.9900465
  15.1089123  75.8092953  40.9615993  36.0669613  22.7679968  19.1381419
  36.9139004  23.0170345  18.7681341  35.9740090  21.8404675  18.9207017
  70.5070114  24.1161919  52.9132748  71.1751890  24.6006680  53.3981037
  69.9065638  24.7900629  52.5945425  25.8600072  83.2636038   1.7429949
  26.5676812  83.8505099   2.0094073  25.0630597  83.7806443   1.8603446
  58.6137274  75.2390064  67.0784807  58.1269053  75.9952516  66.7508650
  58.2024840  74.4867218  66.6528225   9.5659979  39.3010306  20.6574440
   9.0832766  40.1195669  20.5424976  10.0479182  39.1900587  19.8378873
  71.8269682   8.1995720  33.5098147  71.7594528   8.8116091  34.2426753
  71.1500072   8.4850109  32.8962374  91.2707424  45.8715439  48.7491751
  90.3626633  45.8917952  48.4471560  91.7608738  46.3277864  48.0651855
  79.4222307  25.4858065   3.7939987  78.6305428  24.9987149   3.5655093
  80.0835037  25.1707244   3.1778276   0.1700362  54.8909616  43.7459469
   0.2941378  54.0482092  43.3093739   0.5121668  55.5347109  43.1256580
  22.6511153  44.3560171  54.7355747  22.2584304  44.8271179  54.0006638
  23.5489997  44.6849298  54.7786045  69.0211487  32.6683235  23.0637169
  68.7006474  32.3240280  22.2300649  69.8955393  32.2905970  23.1585598
  57.5119781  41.8629217   7.3753911  58.2705355  41.9074345   7.9574895
  56.7569876  41.8965054   7.9628354  61.8822575  25.7138920  20.3736115
  62.7205133  26.1570382  20.5046940  61.9471979  24.9177074  20.9009671
  68.6117649  13.8664460  13.8127613  69.4820690  13.9916408  14.1910863
  68.2865047  14.7538638  13.6613429  12.9269656  62.4104214  51.3215971
  13.7964305  62.0407677  51.4753294  12.6837310  62.0963287  50.4507256
  24.7200736  34.8042607  43.7395096  24.9910792  35.2191710  42.9205847
  23.7649974  34.8678613  43.7356234  55.5439091  15.9562099  20.8466268
  55.6266546  16.8385386  21.2084031  54.6268845  15.8917427  20.5798936
  72.7648830  34.7852159  37.6557326  71.9489765  34.6583581  38.1399179
  72.9216766  33.9443254  37.2261357   4.4867285  57.2635841  59.8230076
   3.7907466  57.7950811  59.4365311   4.2305430  57.1634483  60.7398367
  89.7260094  36.5332913   3.5657701  90.0582504  36.4486575   4.4594595
  89.8323345  37.4615145   3.3576119  68.6366558  31.1616230  48.0915451
  68.4963512  32.0505500  48.4176683  68.2479191  30.5972004  48.7597847
  85.0990486  31.1529112  27.0066524  85.4020500  30.8216310  26.1612701
  84.2774391  30.6881857  27.1654701  52.0584754   0.4713575  68.6938456
  51.7286566   0.3723470  67.8007338  51.2738875   0.4561988  69.2419634
   1.1472758  23.9669132  28.3119941   1.7036780  23.2044077  28.4708524
   0.3946837  23.8387036  28.8893986  67.8249121  33.7428451  49.0866518
  68.6273003  34.0694165  49.4937801  67.1298456  34.2868137  49.4570732
  51.7798785  85.6712615  40.3134966  51.4468745  84.9393764  40.8328009
  51.3556937  86.4432771  40.6880474  66.7521954  32.9969406  24.5142221
  66.2747669  33.4240007  23.8029480  67.4756908  32.5452733  24.0797257
   4.9106368  40.2813864  62.3756266   4.3570861  40.2212572  63.1542110
   4.5507773  39.6287918  61.7749166  75.0578928  42.2612953  29.7188854
  74.7160244  42.8615427  30.3815007  75.9415483  42.0500660  30.0201583
  85.9867477  29.7695971  70.6544781  85.5966187  29.7182536  71.5270567
  85.2628517  29.5818186  70.0570345  64.4930458   4.5242757  52.1960688
  64.1833544   4.2701271  51.3267422  65.4474401   4.5019662  52.1263218
  73.4435320  36.6905808  42.0730352  73.6372185  37.6265001  42.0204020
  73.0861521  36.4711905  41.2125826  86.0072041  30.4434466  23.9438128
  85.9063435  31.3946819  23.9785767  85.5886650  30.1880980  23.1217098
  71.3364792  25.0362492  37.6742172  71.9611073  25.2422142  38.3696675
  70.5549383  25.5421543  37.8966761  69.7859478  53.3313084  26.3427663
  68.9854813  52.9357862  25.9977293  70.4468870  52.6436377  26.2621617
  76.3808870  27.1427178  13.9576757  76.5545464  27.4749756  14.8384023
  76.3441086  27.9262209  13.4090388   4.2626151  20.3055668  11.0020292
   4.8541220  20.6868291  10.3531885   4.2910155  19.3646765  10.8283854
  83.8684940  42.8618383   7.2813660  84.0093040  42.8939199   8.2276082
  83.0596924  42.3607731   7.1764284  88.0475903  44.7469568  15.2381623
  88.3695221  45.6450605  15.1606929  87.7809334  44.6662617  16.1539221
  64.3245459  39.0883589  31.9932628  64.6949911  39.8960924  32.3490310
  64.2503071  38.5056853  32.7490473  67.8800344  28.6632252  19.5202100
  68.1674147  28.1704497  20.2888560  68.5013819  29.3883753  19.4545281
  81.3234425  48.0777025  17.2464395  81.3867664  47.6408625  18.0957890
  81.8453789  47.5328779  16.6573846  64.7689629  37.1726274  33.9881802
  65.7137632  37.0288658  34.0421867  64.4037342  36.3039565  33.8200998
  52.3992491  75.2136278   0.0547193  53.1489706  75.1209641   0.6425680
  51.6411734  75.2532816   0.6377944  10.1223620  58.9312935  16.5722144
   9.7900256  58.2530022  15.9842455   9.4761618  58.9749575  17.2770154
  65.5823851  19.6400261  42.4891758  65.8673573  19.0885448  41.7605543
  66.3929462  19.8846424  42.9357052  77.6411533  35.0339222  19.7411394
  78.1835222  34.3192887  19.4074190  78.0442286  35.8263183  19.3863618
  58.3624506  38.4835768  57.1079826  59.1419840  39.0335727  57.0300817
  57.7103472  38.9125085  56.5538979  85.2889633  38.6575961  32.1177578
  84.6880722  39.2471457  32.5733852  85.3805542  39.0374088  31.2439251
  68.5876131  36.7203116  45.4765558  67.8944349  37.1421623  44.9688339
  69.2882347  36.5655684  44.8429871  71.9214869  33.4983778  55.5833244
  72.4740553  32.8142667  55.2053118  71.0291433  33.1654072  55.4880142
  85.6266403  38.7720752  73.9036608  86.3492680  38.8293433  74.5287704
  85.8620644  38.0415630  73.3316851  71.4912271  18.2453644  11.8569696
  72.3303986  17.8329766  12.0618176  71.7111874  18.9412332  11.2376010
  85.8462524  18.5617518  21.9889617  85.7878876  19.0020573  21.1410499
  85.1859093  18.9949870  22.5297737  79.8308638  82.1969698  19.9896729
  80.1410082  83.0113248  20.3857374  79.3835715  82.4746002  19.1902483
  61.2155676  15.1025879  47.3605108  61.3281250  15.0942981  46.4099884
  62.0907068  14.9281991  47.7068567  16.8859315   9.1037416  19.4456542
  16.5779459   8.1984413  19.4881809  17.7962458   9.0337867  19.1581368
  60.3637362  41.9868898   0.5551488  59.4470453  42.2218275   0.4112053
  60.8270884  42.8244209   0.5640198  77.6887894  19.5619392  30.6596041
  77.0111847  19.5864320  29.9839664  78.4683847  19.9137175  30.2298164
  56.1078882  29.6622992  23.1499839  55.6297064  28.8338184  23.1154060
  55.4701805  30.3187943  22.8696656  13.1448516  52.4129868  30.5572033
  12.8913268  51.4907074  30.5940008  13.8460120  52.4946213  31.2036920
  73.2643414  43.0781412  57.1762371  73.0128431  42.3237133  57.7089882
  73.9984369  42.7643824  56.6481400  81.6363525  54.3612003  19.0765631
  81.2202930  54.3070984  18.2162166  80.9058380  54.4009066  19.6938181
  76.8693924  48.4261560  25.2498603  76.4633942  47.5938988  25.4922318
  76.1327887  49.0243721  25.1242328  78.4306049  29.5188498  36.4530754
  77.7471638  28.8690305  36.2891507  79.0455437  29.4078159  35.7279849
  62.0601559   2.0151600  22.3387814  62.8553772   1.5018716  22.1959710
  61.6664314   1.6335320  23.1233644  70.9339523  42.1526861  23.2615066
  71.3797855  41.5167189  22.7020359  71.3614416  42.0635366  24.1132903
   1.0712107  30.8890224  44.2317438   0.6342276  31.5369439  43.6790419
   0.6205615  30.0668311  44.0389919  30.0515420  81.1813514  64.6189699
  29.4848115  81.7890327  65.0941280  29.7126252  80.3141968  64.8412458
  22.8553254  83.7743394  69.8795066  22.7467401  84.7225683  69.9523133
  22.2295816  83.5127609  69.2040453  86.4616489  58.1105947  36.5265298
  85.8067799  58.5641813  35.9958315  86.3033390  58.4200621  37.4183822
   0.1864012  37.2025585  52.1751165   0.6308135  36.6227841  51.5565777
   0.8935507  37.6933694  52.5937843  14.5385703  46.1579132  31.0320711
  15.0272807  45.3624582  31.2433529  15.0082835  46.8559456  31.4885283
  79.3763399  35.3413463  48.4102631  79.3185043  36.2408566  48.0881310
  78.4697723  35.0347090  48.4284925  16.8856961  38.7328922  69.1384647
  17.5663955  39.4005557  69.2227748  16.3663346  38.8180553  69.9379901
  90.0895405  27.2879386  66.7969465  90.0006199  26.4194870  66.4043713
  90.6307983  27.1454906  67.5734615  86.3339043  13.6311388  30.9774446
  86.9081306  12.8978395  30.7566190  85.4492092  13.2732213  30.9036493
   7.6295813  48.0739594  29.3003964   8.0597457  47.3832655  28.7962794
   6.8294581  47.6659727  29.6314144  78.6011457  83.5461330  15.1609182
  78.5239220  84.4994545  15.1230323  79.3944645  83.3500957  14.6624732
  69.1761398  35.7472229  29.7788715  70.1256704  35.8536148  29.7214150
  68.8369799  36.6413879  29.8197794  85.0421619  32.2385502  37.2589993
  84.2408276  32.7549005  37.3455429  85.3595829  32.1367669  38.1562829
  75.5733824  23.1083775  41.3074589  75.1978683  22.5422096  41.9817543
  75.4924870  23.9926505  41.6648817  35.4288825  37.5885868  16.3798475
  36.2008818  38.1231070  16.5656996  35.7488116  36.9004679  15.7964337
  79.4191265  26.9181800  26.7421436  79.4709492  25.9663844  26.8294930
  78.6993456  27.0635104  26.1281180  69.1408491  34.5766163  33.1807113
  69.8935413  34.3461084  33.7252760  69.4082069  34.3437362  32.2915983
  58.0096674   9.2070013  27.5108957  57.4296665   9.8696887  27.8859639
  58.7405825   9.7066557  27.1471095  57.0837382  80.6232853  33.0445027
  56.9423369  81.4174999  33.5597301  58.0161074  80.6407065  32.8285694
  69.1988754  27.9098177  25.2456427  69.5261097  27.5997663  26.0900474
  68.2759666  28.1078792  25.4045177  18.8495597  71.3964844  19.3825638
  17.9180487  71.2221241  19.2479718  19.1813716  71.6115570  18.5108554
  76.8488026  29.4619060  27.3791051  76.1480904  29.1934109  26.7848420
  76.5433264  29.1944456  28.2459283   2.0218619  26.2583971  63.7311506
   2.9379519  26.0559416  63.9209127   1.5463313  25.4626513  63.9696741
  83.4913731  24.8451495  52.6745796  84.1805649  25.0213146  53.3150530
  83.9560986  24.5044494  51.9102573  80.5977249  47.6740265  48.7759399
  79.9354315  47.8970432  49.4300556  81.3324928  47.3327827  49.2857409
  81.3031101  55.0306654  25.3962779  80.4652977  54.8399162  25.8180785
  81.0669422  55.4980612  24.5950294  59.1384697  29.4038510  28.6280823
  59.1663933  30.0148082  29.3644142  59.6163845  29.8496366  27.9287219
   1.4242037  44.4591236  35.6655836   0.7512053  44.9119854  36.1737370
   1.8287524  45.1470757  35.1371074  87.5929260  25.8106470   3.4852210
  87.9202080  24.9162126   3.5806453  88.2790852  26.3586783   3.8661009
  66.4175129  55.1076508  11.5918565  66.2368202  55.2783203  10.6674886
  65.9189272  54.3151999  11.7910218  59.3874407  64.1520548  37.8973055
  59.9905491  63.4285402  37.7269673  59.3372822  64.6229553  37.0654607
  76.3240480  14.7130966  46.7623043  75.7242584  14.1378880  46.2873125
  76.1559057  14.5245874  47.6855707  67.6131037  81.0078577  28.0448771
  68.4934596  80.6808330  28.2299399  67.1135310  80.2277131  27.8039765
  78.6248016  23.5537672  52.1663189  78.2195330  23.9187670  52.9529381
  78.1104803  22.7698112  51.9736528  77.7590084  57.2163534  23.3030987
  78.1468630  57.0471191  24.1616797  76.9135427  57.6207590  23.4977150
   2.4410590  27.9225159  34.6329665   1.6626891  27.7100658  34.1179585
   2.8094443  27.0720482  34.8721933  87.4548054   8.6605459  26.3515735
  87.2743797   9.5496798  26.6567326  86.6001129   8.2295734  26.3506818
  83.3781624   4.8206547  24.5278955  83.2514000   5.7506096  24.3398833
  82.5232220   4.5198536  24.8358417  27.2410611  85.3969727  33.1038976
  26.5991620  84.6925456  33.0145478  26.7973355  86.0596196  33.6332726
  72.9965190  63.0593801  32.6231003  73.0330351  62.5846292  33.4534693
  72.4962023  63.8509155  32.8215599  25.8662919  84.4254153  39.7526789
  25.8967045  83.4687180  39.7465682  25.9848288  84.6746760  38.8361359
  80.4172707  67.7920294  38.9117861  79.7178125  68.0656099  39.5052052
  80.3294849  66.8402290  38.8607836  73.9061621   2.3285905  70.1228580
  72.9987506   2.5155679  70.3634558  74.1015795   2.9515306  69.4228688
  80.2107048  31.6235471  12.9779291  79.6110153  31.9165492  13.6640406
  81.0784531  31.6804004  13.3779538  32.0254067  66.8295516  48.7180138
  32.7948121  67.2633530  49.0868759  31.9910077  67.1333421  47.8109550
  64.0791178  43.8421726  44.4974995  63.4559774  44.5423365  44.3033361
  64.8951340  44.1268778  44.0860415  76.4642811  30.4131460  38.2657909
  77.2785759  30.1306748  37.8494215  76.6989183  31.2165475  38.7302518
  14.2919501  55.5863714  59.1091537  14.9130400  56.0979223  58.5906982
  14.8275908  55.1758480  59.7879696  79.1444016  54.2083168  20.0985146
  78.3837461  54.5304537  20.5821109  78.8678169  53.3585978  19.7554207
  29.0251044  74.8492123  18.9461398  28.8290957  75.3512717  19.7371829
  28.6040143  74.0017141  19.0898693  71.8837070  12.0345581  47.3895884
  71.9983912  11.7691278  46.4771032  71.3737488  11.3263261  47.7827597
  72.2995424  30.1332331  26.1700201  71.4670134  30.2810025  26.6186738
  72.8407001  29.6760964  26.8137646  90.2866936  66.9695139  23.8388324
  90.0392437  66.0629654  23.6567163  90.2510071  67.0405245  24.7927260
  82.9001617  46.0149288  64.4243574  82.0415020  46.0258198  64.0014791
  83.0691528  45.0891924  64.5995092  50.5956364  44.8843765  14.2573297
  51.2614870  45.2317762  14.8507833  50.2306986  44.1309834  14.7214937
  34.5180091  79.5443487  58.8363695  33.9265021  80.0656223  58.2935810
  34.1786727  79.6454859  59.7256708  53.1345252  82.1359459  26.0703850
  52.8528765  82.7730844  25.4139066  52.9868392  81.2851981  25.6572866
  55.9435701  41.1894655  51.7783928  55.1914692  41.6060066  52.1991920
  56.3802624  41.9008350  51.3099003  15.6648903  61.5167876   4.9476602
  16.5449839  61.1978146   5.1474741  15.2433901  61.6078909   5.8022144
   5.6219348  11.4514506  30.5798101   5.7043799  10.4990864  30.5304623
   5.3832968  11.7175317  29.6918440  58.5094166  19.2598140  18.6604571
  58.8411427  20.1521540  18.7600410  57.7598858  19.2152774  19.2541337
  75.6042004  54.9093628  13.6225271  75.2153683  54.0912056  13.9318275
  76.0349894  55.2766418  14.3943799  15.2278193  51.6285658  60.2364016
  15.6549319  52.4750233  60.3680086  14.5028266  51.6263628  60.8613873
  69.3021011   0.4906784  65.9684801  68.7740612   0.1119280  66.6712952
  68.8371992   0.2545985  65.1657581  70.2369642  34.4643354  38.5514736
  69.5697594  35.1402378  38.4322095  69.7676611  33.7325716  38.9521098
   7.0196685  38.9504266  34.7549582   7.6316603  39.6601462  34.5600271
   6.8220957  39.0534496  35.6858611  84.4522190  44.4205523  26.9965076
  85.1781368  44.6640873  26.4220715  83.9503002  43.7816286  26.4904642
  63.8494968  17.3208570  42.2095251  63.2579041  17.4099314  41.4623117
  64.0477467  18.2212877  42.4667215  83.8263130  46.6112375  38.7668157
  83.3389187  46.6469288  37.9437685  84.7310734  46.7999887  38.5177755
  14.0235671  27.2114515  19.9775231  13.7840899  27.0011139  19.0749490
  13.2280787  27.5867176  20.3551435  71.1365175  60.0285435  24.4333076
  70.8975792  60.5833960  25.1757908  71.6955185  59.3498421  24.8116136
  74.8848104  21.5360475  70.3061914  75.0082827  22.3061705  70.8610773
  75.7572937  21.3474917  69.9605703  46.5870094  34.7949028  63.8124228
  47.4491930  34.9482083  63.4259415  46.6847849  33.9764810  64.2991018
  70.3579092  26.3110113  35.2523112  70.6448936  25.7850599  35.9988022
  69.4670153  26.0091734  35.0750279  69.8161840  35.7288742  15.3822112
  70.4375792  35.6796622  14.6557975  69.0364647  35.2756286  15.0615275
  87.8538132  35.1101375  45.1994991  88.1586361  34.4556403  45.8279467
  86.9885731  35.3650403  45.5198336  14.5759705  82.1912951  30.0294256
  14.0563992  82.6682068  30.6765962  15.4838685  82.3448465  30.2909160
  85.4498577  68.6184692  60.6631994  85.0341511  68.3897638  59.8318672
  85.2032375  69.5314455  60.8111334  57.8097868  57.7325106  10.3410494
  57.5313997  57.1209431   9.6593481  58.2791233  57.1886301  10.9736204
   0.0099047  66.8356085  72.8091145   0.0374945  65.8812428  72.7408457
   0.4927405  67.1446228  72.0425558  54.6503948  75.1247399  59.2480836
  53.7268947  74.8844235  59.3231199  54.6581124  75.8563726  58.6309252
  56.6921997  30.6636667  30.6781697  56.2445211  30.9328818  31.4802551
  57.6180220  30.8334994  30.8520722  59.0738440  24.5453668  31.2134314
  58.8090324  24.4056726  32.1226025  60.0261354  24.4490743  31.2238455
  80.3134727  43.8806677  33.5896087  81.1916161  43.6107492  33.3208489
  79.7663689  43.1123066  33.4267354  78.0656958  43.6495733  18.2341909
  77.3395252  43.0383682  18.1103575  77.6588154  44.4332027  18.6037886
  20.4643592   9.8583782  54.4304562  20.1128539  10.3186393  55.1925802
  21.1315974   9.2739785  54.7903156  34.9220945  22.2209055   3.1793811
  34.9733211  21.4056332   3.6783197  35.5228712  22.8150828   3.6291006
  40.4724196   2.1364299  64.4339273  40.2269391   1.3952295  64.9876336
  39.6455458   2.5821344  64.2499194  11.7006072  78.5372496  26.8104076
  11.2127074  79.0563774  27.4496984  11.3886126  78.8487101  25.9607673
  25.8107146  36.8827605  45.3818750  26.6819152  36.5193582  45.2231503
  25.2452429  36.4318919  44.7548246  50.5522346  32.5350809   0.8839234
  50.4791307  32.9433632   0.0212572  49.6920967  32.6640677   1.2836191
  69.9777651  33.0726194  30.7393265  70.0443935  33.9294195  30.3177953
  69.0859556  33.0449152  31.0859346   4.9062785  38.2181096  56.1533976
   5.1997718  38.5473824  55.3038836   4.2336901  37.5712705  55.9401894
  63.3750248  13.1622076  36.2314487  63.7554836  13.7935734  35.6208229
  62.8675795  13.6960959  36.8427563  22.9683931  63.6834495  70.5918405
  23.4847696  63.7753837  71.3925526  23.6021764  63.4116333  69.9280093
  53.4790850  22.4963379  29.0112591  52.8438568  22.7244925  28.3325386
  54.2936325  22.9101729  28.7258029  77.6651335  35.5415511  13.9104426
  77.5662041  34.9610305  13.1558287  76.8193388  35.9834552  13.9851832
   4.8088271  77.5981491  58.2082865   4.5371539  77.3156254  57.3350141
   5.7528646  77.4411814  58.2279119  66.3463640  28.4774661  25.6220269
  66.7882061  29.0136123  26.2804747  65.7461071  29.0814471  25.1848412
  35.0816611  84.8508078  41.2353182  34.9168662  84.1421069  40.6133747
  35.6919840  84.4754046  41.8699932  83.8537407  31.5601087  18.5276747
  84.7929287  31.5957069  18.3463252  83.6299229  30.6326318  18.4507048
  88.4243774  59.8006058  31.8703699  87.5675106  60.2142239  31.7657542
  88.3515739  58.9745712  31.3922524  63.2077837  52.0651484  21.2547851
  63.6621809  52.7353096  20.7442570  62.8925419  52.5281191  22.0309997
  68.4528637  42.3302889  17.0006597  67.6479244  42.0312166  16.5777433
  69.0533638  42.5052595  16.2760818  75.0826216  15.6230187   8.1053269
  75.5745125  15.0033975   8.6441630  75.7241583  15.9571207   7.4784005
  55.8803511  42.8079224  54.7037363  55.2493382  43.0701637  54.0334463
  55.6997013  43.3885288  55.4429865  59.5078659  39.4715047   9.1968292
  58.9554214  39.2471933   8.4480166  58.8973999  39.8091865   9.8522174
   2.7743682  41.3556433  24.2002463   3.5664519  40.8246231  24.1174197
   2.7179202  41.8323469  23.3721161  83.8058375  81.9092267  73.6846269
  84.3675612  81.8991296  72.9096428  82.9157780  81.9497125  73.3347954
  54.5602608   4.0407446  18.6145306  55.5132246   3.9990062  18.5348165
  54.3423462   3.3541918  19.2449188  77.6636410  33.4075737  29.7720385
  77.7733946  34.2151332  30.2740669  76.8857098  32.9956579  30.1480460
   9.4808559  71.5756830   2.9300382   9.1965418  71.8625816   2.0622327
   9.6903830  72.3864921   3.3936336   5.0027377  67.5091212  72.5811111
   4.7834546  67.7022903  71.6696120   4.1603143  67.5104778  73.0355876
  79.8572350  40.5494308  11.4108872  80.2007961  39.7196007  11.0798526
  78.9245892  40.5249548  11.1968637  33.3892495  47.9104363  72.0629928
  32.4503476  48.0966460  72.0597610  33.7353761  48.4369742  72.7835396
  58.0716944  19.9934411  12.1400940  57.7580357  20.7895279  12.5691581
  57.2988701  19.6371508  11.7018771  91.2031937  28.2332659   1.6806012
  90.5375004  28.6082816   1.1040203  90.7747173  28.1742096   2.5345069
  83.1843948  45.5686903  34.2954516  84.1305447  45.6727839  34.1944623
  82.8281593  46.4410782  34.1273093   0.1096018  36.7114258  55.2940512
   0.0478610  36.2378097  54.4645262   1.0498580  36.8048477  55.4471016
  19.4624575  18.1375766  48.2607269  19.7571429  17.6055896  47.5215530
  19.2061003  17.5002861  48.9273405  86.6231823  61.1402845  63.7851191
  86.0864162  61.8195772  63.3768606  87.5205231  61.3628101  63.5371351
  16.5368041  85.1887989  34.7995138  16.1560782  84.3413162  34.5691824
  16.0009059  85.8277607  34.3296409  11.4708193  27.6249170  18.1221008
  11.2389907  26.6963005  18.1095004  12.2803267  27.6766038  17.6139152
  78.5427618  44.7817326  31.1855435  78.6267996  45.6889677  31.4789581
  79.3338966  44.6222019  30.6708670  43.0264835   4.2333483  43.2124424
  43.5298901   3.6258863  43.7544775  42.1182137   4.0999388  43.4835005
  55.2718619  18.4415046  47.9681489  55.4571227  18.6355630  48.8869808
  54.6304587  17.7316085  47.9978940  16.8072681  14.9314093  38.1294227
  16.3481407  14.6411013  37.3412871  16.8022757  14.1665625  38.7049460
  75.7394123  63.2909250  32.0291567  75.7805490  63.9736414  32.6988125
  74.9537325  62.7892399  32.2465277  80.1858711  42.9244328   4.9167478
  79.8112726  42.9457235   4.0361491  79.8241901  43.6977482   5.3496468
  70.7663774  73.3459663  45.1270723  70.0031424  72.7852249  44.9882460
  70.4219437  74.2373323  45.0717354  56.1766509  22.3552219  72.6776733
  55.5085925  22.3911993  73.3622483  56.0562686  21.4974014  72.2703863
  60.4733229  37.4704123  21.0852289  61.2564707  36.9522882  21.2708497
  60.7188988  38.0165482  20.3384614  88.0392838  32.8948641  61.5928698
  87.3705482  33.1459141  60.9556913  88.7624836  33.5010910  61.4325094
  71.8782330  42.0135117   9.1102022  72.0329428  42.4990082   9.9205029
  71.9179153  42.6774788   8.4218699  28.7293029  68.2920885  40.1897335
  29.5485115  67.8047895  40.1021671  28.5846853  68.3497334  41.1341858
  86.0272503  12.2209370  40.0654745  86.3917637  12.5398588  40.8910990
  86.4817047  12.7267373  39.3917751  63.7894440  70.5400753  31.6112208
  64.5424604  70.1354980  31.1804986  64.1217470  70.8157492  32.4655080
  22.0172557  35.3945637  45.9777689  21.7528399  36.3074565  46.0915279
  21.8902548  35.2229118  45.0446892  77.2887278  67.7842903  43.8336277
  76.8824673  68.2513571  43.1035328  76.5781832  67.2660446  44.2114830
  79.8627853  40.7316875  14.1882288  80.0170326  40.9621668  13.2720852
  79.0968132  40.1581097  14.1652095  79.0530205  57.3101139  25.7515407
  78.9165068  56.4937544  26.2323236  79.9640179  57.5436163  25.9298396
  75.1398993  34.9697089  18.6093950  76.0034466  34.9729061  19.0223193
  74.5518446  35.3146052  19.2813098  24.8039131  31.5580820  34.1032386
  24.5986538  32.4722456  34.2992282  24.8217945  31.5162920  33.1471181
  18.8950404  69.1743708  41.1979008  18.2377680  68.9912224  40.5265665
  19.5886573  69.6420622  40.7327175  16.9514617  26.7862296   7.1469319
  16.9273623  25.9967327   6.6062397  17.8125819  26.7644763   7.5643307
  61.8967131  41.8387739  51.7947600  61.0628108  41.5599290  52.1730206
  61.7083434  42.6909391  51.4015958  83.5038853  20.7798052  49.6419621
  82.8807831  21.4744425  49.4287634  83.8358688  20.4870725  48.7932396
  75.4067278  50.2269268  51.1980057  75.3243780  50.4618835  52.1222591
  75.8065748  49.3572807  51.2066603  86.2043190  42.0684528  25.1992679
  87.0588589  41.7693138  24.8886228  85.5897331  41.7798185  24.5245814
  65.8944702  41.5546703  16.5131974  65.6722021  41.4604235  17.4394512
  65.4981804  40.7914114  16.0929275   1.4843520  54.7985029   9.9360442
   1.1351164  53.9073038   9.9303943   2.3843154  54.7011089  10.2471805
  66.0871887  46.8071890  43.3954811  66.3665628  46.1121368  43.9913702
  66.8274164  46.9239998  42.7999496  90.2301884  56.8550348  16.1612928
  90.0380516  57.5509310  15.5327678  89.7428322  56.0978413  15.8366764
  14.0003165  39.0754557  40.5644989  13.4929522  38.6955261  41.2817669
  13.6274489  39.9487281  40.4436827  82.1293449  27.6173902  42.4956036
  81.3154221  28.0803633  42.6941586  82.3260021  27.1259046  43.2930994
  25.5426960  64.9406870  17.9265621  25.4944115  65.1850184  18.8507869
  24.9410420  64.2009576  17.8426292  88.6575603   6.5586400   2.1672156
  88.4554768   6.4409065   3.0954045  89.2137718   7.3371774   2.1400648
  74.5666933  59.4728184  33.4186864  75.4351568  59.5819330  33.0312634
  74.2640162  60.3658295  33.5834551  14.4342002  37.2179294  22.8476834
  14.6819457  38.1409049  22.9022121  14.5341452  36.8899131  23.7413549
  77.7358818  35.8880830  30.7622480  77.1726036  35.8670378  31.5358806
  78.1477404  36.7517233  30.7892728  77.6591873  26.9227767  23.8120890
  76.8157578  26.6002965  24.1296768  78.1823492  26.1326170  23.6772513
  59.4882917  31.2976575  58.6377192  58.8104582  31.9135714  58.3594704
  59.2000818  30.4524899  58.2929611  39.7572975   0.1812338  32.9390287
  40.3264504   0.3200697  33.6960101  39.1182690   0.8923124  32.9862142
  63.6621809  62.0178699  26.4141083  63.6727476  62.1926785  27.3551512
  62.7377892  62.0699930  26.1711836  87.8595352  16.6996837  16.9119227
  86.9313335  16.7123830  16.6784358  87.9666424  15.8983994  17.4244702
   8.4923800  70.1310349  31.4754152   8.1644782  69.8447895  32.3279309
   9.3067416  70.5928707  31.6747808  62.2408819  28.1668472  39.9048066
  61.3507032  27.8636098  39.7262907  62.4920750  28.6492133  39.1171145
  67.3308945  24.9743223  60.0037861  67.8744745  25.6791592  59.6517038
  66.8415070  24.6490407  59.2481947   3.6862143  56.2895584  18.3540308
   3.0661067  56.5150118  19.0474784   3.1569632  56.2693691  17.5567102
  79.3303776  70.9954548  17.5428426  79.7354603  71.7197561  18.0198443
  78.4469843  70.9336853  17.9062104  70.2493715  50.4988813  51.2931490
  69.6954727  50.7852840  50.5669260  69.9657536  51.0323858  52.0355511
  74.8372746  35.8869219  26.3732338  74.4460106  35.0491142  26.6206670
  75.5204344  36.0346651  27.0272183  85.1854897   8.5912263  43.3086109
  84.7381210   8.1059361  42.6153708  85.8245277   7.9716170  43.6606741
   0.5694159   9.6017265   8.7949920   1.3722571  10.0328183   8.5020095
   0.4346331   8.8932061   8.1656545  70.4015303   3.2515252  23.1144071
  69.7675228   3.9104509  23.3973908  70.5733109   2.7316788  23.8995719
  13.4870585  62.3706341  43.1867170  13.5738047  61.4884663  42.8254843
  12.6383361  62.3658228  43.6293077  78.6740828  21.9737411   4.2264777
  78.7025547  22.5856972   4.9619567  79.5902061  21.7448902   4.0697092
  67.7103901  32.3340058  31.9345999  67.2748995  33.0263662  31.4373875
  67.1136379  31.5876579  31.8790889  19.3272626  11.2774793  72.6818724
  19.1623533  11.9271127  73.3652567  19.7544229  10.5527059  73.1384516
  20.0231894  79.9858332  35.6883979  19.6936759  80.8268166  35.3715301
  20.9046324  80.1789284  36.0077739  66.8314981  18.0724645   8.8573682
  65.9148455  18.2299674   8.6311585  67.3206711  18.7006068   8.3259743
  78.1679964  30.6579161  30.1160836  78.7894773  30.0811100  29.6719170
  78.4051085  31.5373898  29.8219109  16.0410079  54.3664408  17.4520493
  16.8539771  54.8583937  17.5673676  15.7874354  54.5322990  16.5440726
  78.2071209  69.4894218  10.3093219  78.8707352  69.6481419  10.9806323
  78.6756516  69.0280390   9.6137381   1.6592654  53.3053255   2.7763027
   0.9810980  52.6547098   2.5946000   1.1829432  54.0538979   3.1354496
   0.6821116  63.4517860  39.0855432   0.7406386  64.3298388  38.7089443
   0.3736266  62.9022408  38.3650804  23.2395323  49.2176819  39.6008420
  23.8178977  49.7076845  40.1853275  23.3294734  49.6541357  38.7537003
  17.9538899  14.5054983  17.8330123  18.4229641  14.8311972  17.0648158
  18.5071640  14.7525286  18.5740232  75.4723501  34.1131401  41.4101553
  74.7077942  33.6378217  41.0849476  75.8114481  33.5655570  42.1182442
  20.0692137  46.6198254  22.4535155  20.0783976  45.8973455  23.0813456
  20.5312403  46.2778950  21.6881132  42.4423361  79.7236919  23.1166291
  41.8445730  80.3504848  23.5241103  41.9165516  79.2958498  22.4408078
  79.2478752  72.7245569  21.3965273  79.6512270  73.1308270  20.6294012
  79.9569511  72.6651764  22.0367694  90.7933998  71.5744638  36.0756207
  90.7725143  70.7557869  36.5711617  90.1798153  72.1480370  36.5347075
  84.5724773  71.3966417  53.5794210  84.3746281  72.3312998  53.6385584
  84.5171261  71.0825348  54.4819212  21.7569312  36.2236047  20.3459525
  22.1178874  35.7121587  19.6218204  22.1468409  37.0917940  20.2437210
  55.5855513  30.9645152  26.7036843  55.6060219  30.3072953  26.0080719
  54.8282385  31.5112495  26.4944172  88.5210609  61.1466932  68.6086178
  88.3397102  60.2207470  68.7697506  89.4693089  61.1869431  68.4843397
  74.7439575  53.6849594  35.8974290  75.6488848  53.9366913  36.0817575
  74.2284918  54.1392279  36.5638876  86.9588566  65.0710630  38.1543064
  87.2896862  64.2013836  38.3789086  86.3981152  65.3118229  38.8917565
   6.2004622  51.8301105  37.8923583   6.2403353  51.6616964  36.9509339
   5.5094012  51.2492275  38.2105374  83.9936256  81.2946033  42.7731037
  84.0259552  81.4072227  41.8231010  84.1638184  82.1688175  43.1238508
  11.8867045   6.1905836  26.3454628  11.3870220   6.8791842  26.7840672
  12.3154478   6.6347193  25.6139183  35.3497056   7.0174209  68.9565078
  35.2245358   7.2337429  68.0325112  36.2328604   6.6507427  68.9991454
  79.4425440  76.2237310  40.3761530  78.8686514  76.5302896  41.0782242
  79.9933100  76.9789791  40.1700401  87.7616884  23.5273201   1.0919120
  88.3126070  24.0115864   0.4769256  88.0516054  23.8209374   1.9556120
  12.6565131  73.5475111  37.3916721  11.9826850  73.0847406  37.8896976
  12.4553927  74.4744301  37.5205135  84.3640423  53.4161377   5.7278162
  85.0779724  53.7628269   6.2629163  84.7701931  53.2224226   4.8829818
  29.5401096  64.6032524  27.1678233  30.0809169  65.3550243  27.4098992
  28.6422491  64.8910141  27.3329639  82.5555229  59.3226385  41.4395761
  82.6530361  58.8675404  40.6031513  81.8945408  58.8165140  41.9119930
  68.6972809  26.0028911  38.4081483  68.4286880  26.6065717  39.1007233
  68.4404421  26.4401913  37.5963402  12.5449523  35.8935142  19.1809273
  11.7312773  36.0411525  18.6988878  13.0718764  35.3455615  18.5992646
   7.1779212  22.2893739  16.2410486   7.5789984  23.1320643  16.0283446
   7.9133757  21.7307878  16.4926696  88.1555176  18.9449704  31.2895799
  88.5096359  19.2943358  32.1073675  87.2711945  19.3075597  31.2372613
  60.9824923   7.9558078  72.9471758  61.7806319   7.9735319  73.4752690
  60.5036715   7.1892778  73.2624517   2.5723227  49.7819805  52.8089809
   1.6694792  49.9495983  52.5387669   2.9953154  49.4300175  52.0257664
  27.1646079  38.3778930  62.6767826  27.5149878  39.1208911  63.1681252
  26.8034037  38.7665248  61.8800831  81.2842560  50.5580950  43.3492565
  80.8651257  50.0016451  44.0057039  80.7825565  50.4037285  42.5488234
  83.6308956  63.9640045  28.5026383  83.3764744  64.5800638  29.1896439
  83.0428314  64.1618299  27.7737522  49.4977788   8.5178892  63.4807823
  49.4496564   9.4544975  63.6723063  48.7700442   8.3586351  62.8797195
  72.7922869  18.3417165  18.6698139  72.4246740  17.4583805  18.6982524
  73.7397528  18.2077360  18.6940753  66.2048101  51.9969940  47.2952604
  65.3002930  52.2864485  47.1756792  66.5418816  51.8907642  46.4056921
  79.6509838  59.3255568  39.8050785  80.5072975  59.2857504  39.3791986
  79.1878414  58.5516262  39.4845057   3.1129321  81.5143681  18.6940384
   3.8053759  82.1747589  18.7190986   3.3256873  80.9169197  19.4109857
  11.5854197   9.0564989  15.1601827  11.7371254   8.5209536  15.9389079
  11.9794397   9.9029516  15.3711343  84.2382165   3.4809469   6.0920769
  84.8847553   3.9228510   5.5416822  83.4201881   3.5450815   5.5991805
   3.2710704  74.5800018  39.9842501   2.5045832  75.1266813  39.8114514
   3.1762084  73.8386106  39.3862772  64.9947929  57.8183556  33.6586475
  65.5367184  58.0846834  34.4013572  64.1397190  58.2117367  33.8328171
  13.7822398  68.2092237  25.9337425  14.1435107  68.4765244  25.0885987
  14.4256743  67.5939751  26.2854576  22.2022303  36.0229516  13.9455760
  22.9556521  35.9412909  14.5303154  22.1896609  35.2011585  13.4549332
  61.1186123  59.0293741  10.4580224  61.0614061  58.0748224  10.4156232
  61.0766602  59.3126345   9.5446581  19.0316352  49.8727560  30.6173444
  18.4500941  49.8432398  29.8576307  18.9894160  48.9902878  30.9857178
   2.2103079  76.3237000  47.5840235   2.5444277  75.7502985  46.8942356
   1.2606105  76.2084389  47.5521946  18.6640319  31.3059926  56.0691309
  19.3291052  31.7973566  56.5512800  18.9101084  30.3887582  56.1889553
   0.6760272  70.4775667  19.0060544   0.2734908  71.3398409  18.9027131
   0.9287890  70.2233171  18.1185305   3.0851488  17.1538710  17.3603392
   2.7725630  17.8590273  16.7935252   2.3527985  16.5390467  17.4038005
  87.4244499  65.3723764  50.5144024  87.3620129  66.3270998  50.5432606
  88.3433056  65.1864862  50.7077408   7.9515608  55.7766008  32.0346522
   8.8448199  55.8488703  31.6983509   7.5949057  56.6616678  31.9592452
   5.3847273  46.4688826  42.3750401   5.8950766  46.4018631  41.5680218
   5.9475096  46.9591618  42.9743147  86.4307022  64.0462351  28.1276989
  86.6293335  63.4059334  27.4444771  85.4754734  64.1076279  28.1279993
  89.7486591  46.5213919  39.9267030  89.9409199  47.4568129  39.8614764
  89.6098804  46.3700151  40.8616114  49.6510649  23.5689735  22.0694971
  49.7773409  22.6389861  22.2576666  49.4019842  23.9518738  22.9106736
  83.7416077  33.9971638  28.6792970  83.7293053  34.2188263  27.7481985
  82.9204655  33.5271740  28.8244843  74.0645838  60.9129000  67.1756744
  74.7035217  60.2892017  67.5206232  73.8430500  60.5738592  66.3083792
  79.4653702  30.2837300  10.7559228  79.3253803  30.3576732  11.6999400
  79.8033667  31.1407375  10.4960585  32.9592400   5.4055189  36.7203569
  32.7330952   5.6915163  35.8353162  32.7280216   6.1480402  37.2784209
  79.8673058  59.7740412  47.9525757  80.3117275  60.3987169  48.5257196
  79.3097639  59.2643309  48.5404301  78.3488274  30.9368086  17.7707601
  79.0721941  31.2407827  18.3190095  77.8279495  30.3794146  18.3488858
  58.9982176   9.8175806  18.8033056  58.6959124  10.6719100  18.4951425
  59.4949007   9.4595784  18.0675256  82.3340797  39.6790862   7.8595912
  81.8210316  40.4561520   7.6378328  81.9073963  39.3250060   8.6398458
  24.3196564   0.9064173   8.7104917  24.7791176   0.5318808   7.9589283
  23.6009769   0.2972578   8.8797593  77.2179317  49.0417242  40.5124331
  76.5146017  49.1519117  39.8725724  77.0576954  48.1806517  40.8985806
   0.9076842  12.3837674  32.2174025   1.0575732  11.6322613  32.7909923
   1.6019972  12.3263133  31.5609980  27.5854378   0.6663775  43.6982584
  28.3675938   1.2181162  43.7053776  26.9834499   1.1119436  43.1021738
   9.2103060  74.5421696  34.9677849   8.5994776  73.8133240  35.0769234
   8.9419421  74.9590206  34.1489792  69.6192026  30.5887556  38.8351893
  69.7457170  29.9774361  38.1095767  68.7891245  30.3226233  39.2306328
  66.4385700  27.3522115  29.2050099  66.2355042  27.2328043  28.2772493
  67.1700716  26.7569208  29.3686295  88.4249401  30.2907085  17.3819208
  88.0603790  30.2122855  18.2634985  89.3412685  30.0310898  17.4776959
  19.6915206  24.1173196  37.3609138  20.1858004  24.3187165  36.5663338
  20.3194483  23.6671138  37.9259419  82.5081062  33.6255598  37.7629566
  81.8229675  33.6516118  38.4308887  82.0345974  33.6701059  36.9322705
   7.4291857  57.3349953  73.3478069   7.8927478  58.1702709  73.2873154
   6.9951972  57.2399759  72.4999523  81.5152836  38.9545655  15.4853249
  80.9618378  39.6551085  15.1401162  80.9736252  38.1679416  15.4215050
  79.4727087  64.4945526  48.7459087  79.2391205  63.8168716  49.3802738
  79.6907234  64.0115356  47.9487896  85.0643826  38.5124612  46.7590570
  85.1692963  38.7626481  45.8411121  85.9592915  38.4263182  47.0876217
  26.5801009  52.2848606  60.9994316  25.7071837  51.9020987  61.0874176
  26.7631873  52.6639080  61.8591022  80.4346561  68.9253187  48.4296989
  80.4112148  68.2211924  47.7817106  79.5570374  68.9284992  48.8117981
  82.7284622  24.7804117  41.0632515  83.6077023  24.6665430  40.7024050
  82.6851559  25.7066607  41.3007832  19.1133051  11.5287756  31.5305042
  18.5317974  11.7207884  30.7948327  19.0464811  10.5811190  31.6476059
  83.8048860   2.0549559  47.7611256  84.2792722   2.1138929  46.9318390
  82.9606029   2.4697756  47.5841045  85.9974003  51.6727495  64.5868444
  85.1706600  51.8642616  65.0296211  85.9860134  52.2283697  63.8074923
  75.6619024  64.7926044  34.6328783  74.7610807  64.7852755  34.9564457
  75.8239985  65.7058382  34.3963122  90.3119183  31.4746642  30.5618405
  89.7737789  30.8438325  31.0400510  91.1349869  31.5056586  31.0495305
  71.9942141  30.4500937  35.6543946  71.4506006  31.0949731  35.2017951
  72.6789522  30.2288079  35.0232053  83.1770039  72.0228720  32.0284581
  82.9675961  71.1942863  31.5973830  82.5451374  72.6459408  31.6696215
  74.1185379  52.3030758  33.7953806  74.3785858  52.7960491  34.5735765
  73.2380915  52.6201534  33.5941267  41.5921001   0.6907724  34.7249246
  42.1917515   0.4745077  35.4389834  41.5860539   1.6475939  34.6987224
  12.2981986  44.0842819  41.9777441  12.9575976  44.4789362  42.5484180
  12.6193293  44.2488289  41.0911608  86.8912888  56.8470097  39.4752789
  86.1330986  56.3937521  39.1065836  87.5993919  56.2044764  39.4308567
  51.2146432  85.6878822  73.3766283  51.7641599  84.9619882  73.6721574
  51.1430700  85.5642002  72.4301549  18.9928969  43.2374001  29.4351721
  19.8536166  43.5509014  29.1574812  18.4606131  44.0298367  29.5055485
  73.2958651  56.0243034  40.0978518  73.4133625  56.0698509  39.1489816
  73.1287813  55.0984669  40.2743340   3.8962802  55.1153326  11.3123631
   4.4358405  55.3469706  12.0683062   4.5243415  54.9751854  10.6037486
  40.7928141  56.0476732  36.2122607  40.3457984  55.2016163  36.2365890
  41.6888865  55.8376455  35.9492302  63.9445591  81.2677670  35.2764964
  63.0154800  81.1215782  35.0985146  63.9560795  81.7733669  36.0891867
  82.3772144  60.9397078  13.0087221  82.3428440  60.9997463  13.9634192
  81.9332886  61.7306614  12.7028573  21.4171084  32.6680708  41.2064505
  21.4129599  33.5730839  40.8947372  22.1380004  32.2544932  40.7315826
  13.2275733  70.4707527  51.4280701  13.3809909  69.6377230  50.9822559
  12.9786261  70.2235031  52.3186493  82.9094791  50.1255512  18.5344994
  83.6930561  49.5930624  18.3977330  82.2490597  49.7304583  17.9653132
  69.9340534  31.5120220  26.0223579  69.4665813  31.2685347  25.2233481
  69.6232080  32.3950410  26.2220669  25.9480532  18.9067674   1.9748792
  25.5840167  18.3803046   1.2631573  25.2449282  18.9525688   2.6227582
  67.3245001  44.5316029  44.6759081  67.6364613  44.6514320  45.5728769
  68.1196022  44.5375252  44.1429853   2.3759516  42.7796698  39.7196174
   2.8389224  43.6123323  39.8121786   2.7284773  42.2304869  40.4198694
  82.4608040  36.0230136  20.9063363  81.7732334  35.5281520  21.3519740
  82.3824692  35.7674384  19.9872184  18.3600863  80.0492764  47.4563265
  18.8219985  79.8468733  46.6427517  18.9029368  80.7134438  47.8810930
  77.4769688  24.5813870  60.8906984  78.2389641  24.0334916  60.7025385
  76.8390131  23.9804244  61.2755251  85.3108692  58.2924032  28.0587125
  84.9176407  58.9934111  28.5785127  85.2366924  57.5141811  28.6110711
   6.2053260  68.2102060  25.9492993   6.5189513  68.0991983  26.8468261
   5.9254035  67.3343420  25.6833458  66.5485620  18.7639284   6.0322374
  67.3717451  19.2449343   6.1172855  65.9116888  19.4251418   5.7612717
  86.0322571  27.8377128  25.3507471  85.7885838  28.6185861  24.8536634
  86.9110966  27.6204419  25.0398278  27.3020248  15.5321001  11.3470805
  27.3364430  14.8467516  12.0144224  26.9411354  15.0965761  10.5748701
  79.6623755  42.7160120  52.4262571  79.9911404  42.1547699  53.1285048
  79.2574215  43.4551287  52.8800774  51.9930792  56.3454914  12.6367462
  52.5396347  57.0902681  12.3861194  51.2499714  56.7373705  13.0954957
  15.1263102  57.1636724  52.1637964  15.1745661  56.4669847  52.8184175
  16.0348948  57.4371862  52.0376873  12.2592505  65.8965254  34.5674777
  11.5635832  65.5413485  35.1207566  11.7968329  66.3599205  33.8691521
  10.2459391   9.0036982  43.7542915  10.0806674   9.8311037  44.2063093
  10.0255355   8.3307469  44.3983364  51.4365911  58.2087660  22.3514128
  51.9988298  57.5187826  22.7036047  51.8283701  59.0223503  22.6689339
  81.9346619  75.9510040  25.5826712  81.8045521  76.0630655  24.6409988
  82.8709316  75.7750988  25.6758428  71.9902563  41.6956377  17.0041919
  72.2623253  41.3058376  16.1733687  72.1465206  41.0096121  17.6531732
  30.9282570   9.3671392   8.6020964  30.6181221   9.0283274   7.7623016
  30.7345848   8.6694025   9.2281121  14.4151457  60.5306768  46.2978983
  13.7987097  60.1605844  45.6660175  14.7993144  61.2819242  45.8459282
  76.9992638  63.9948750  54.8189974  77.0936823  64.9456120  54.7605515
  76.4724588  63.8544178  55.6057501  37.7373198   3.3817379  54.4774089
  38.6082772   3.0197946  54.3141315  37.7939204   4.2879907  54.1745326
  87.0552942   2.0532583  32.3449159  87.5213214   1.7583059  33.1272554
  86.5626451   2.8210424  32.6347971  67.1544838  74.8806953  65.8490467
  67.7398252  75.6094456  65.6428099  66.6190863  75.2015162  66.5747595
  64.9812794  61.0159159  21.7495966  65.4142809  61.1362600  22.5947356
  65.5518150  60.4139471  21.2717319  12.2507056  52.1522808  17.4728441
  12.0300254  52.7600670  16.7670619  12.9380282  52.5987864  17.9672718
  79.9597788  74.3520927   7.5217319  80.5674744  73.6788940   7.8279161
  80.5117321  74.9771166   7.0517093  39.6051938  54.7828941  69.5625413
  40.3349263  55.3040009  69.2276195  39.6969087  53.9350777  69.1277698
   0.6570872  55.5076694  54.9495077   0.8465727  56.0277414  54.1685772
   0.8786448  56.0841942  55.6807804  17.0488700  73.6790419  51.1610985
  16.0943469  73.6119509  51.1861229  17.3568209  72.8071880  51.4086246
  26.9067650  16.2879824  14.8947012  27.7887993  16.5124868  15.1910758
  27.0404034  15.5939077  14.2492211  75.4768896  57.9311609  38.6784983
  75.3990030  58.6054087  39.3534493  75.4800749  58.4170628  37.8538036
  32.6794965  69.4887965  73.5386763  32.6898915  69.5356720  74.4946711
  32.4013574  68.5934393  73.3457885   4.0034636  73.2627010   1.9685283
   4.4709548  73.5036421   2.7682957   3.6596259  72.3873138   2.1465769
  35.8076077  16.6553663  38.3409643  35.0304585  16.2654757  38.7412858
  35.5457954  16.8388914  37.4387455   8.4230738   4.0348314  28.5012197
   8.3984213   3.0791449  28.5490894   8.3617239   4.3219446  29.4122815
  64.2035770  73.5580397  65.0758314  65.1487255  73.4160566  65.0232124
  64.1124058  74.4016027  65.5189180  78.4334087  70.1485395  20.3181982
  77.5145483  70.4041338  20.2370071  78.8389635  70.8647585  20.8068562
  66.0058880  77.4172497  22.7760005  65.7064629  77.1692038  23.6506701
  66.4667606  78.2459545  22.9066706  80.8182335  66.3727570   4.9204466
  80.7086086  66.7635155   5.7873505  81.6490364  65.9003973   4.9739647
  19.3712004  59.3279886  65.6923723  19.5749816  59.0749407  64.7919989
  18.6815127  59.9860859  65.6059456  83.4782410  62.5528002  37.7376366
  84.1206551  61.8537140  37.8593302  83.1312180  62.7145624  38.6149287
  17.9113825  46.9678640  42.5115728  17.8755721  47.6489735  43.1831646
  17.5944289  47.3977995  41.7172670  49.6039827  69.7613947  73.0580779
  49.5779283  70.5147188  72.4681147  48.8761003  69.9054616  73.6627801
  25.8037643   5.9024214  42.3029232  25.3018360   5.1642775  41.9573164
  25.5990868   6.6282248  41.7133856  73.0358601  29.2090726  60.6294203
  73.4282589  29.8091292  61.2636042  72.1686554  29.0170097  60.9862185
  23.8428649  53.1304550  16.5043557  24.1245516  52.2173548  16.4484358
  24.0390166  53.4949064  15.6412625  76.7024517  63.9431143   5.5338073
  77.4389458  63.3369303   5.4540992  76.6117620  64.3258715   4.6611661
   4.0635832  53.1785154  26.7929268   4.2418822  53.9636087  27.3106766
   3.8231429  53.5113287  25.9282589  19.4863089  54.1426945  37.6038647
  18.9035758  54.8236609  37.9399204  19.4107207  53.4288549  38.2370734
   4.8113879  52.7938318  32.7793837   4.2822703  52.4940443  32.0402002
   4.9202021  53.7331295  32.6306987  21.3375243  50.7213402  14.3073273
  20.5400523  50.2073574  14.4341516  21.7586001  50.7261705  15.1669240
  38.9218407  10.9960722  32.5807667  38.5520439  11.8734812  32.6789093
  39.8128109  11.1456656  32.2645068  83.6580563  79.2153835  71.6021824
  84.5357132  79.4209099  71.2801361  83.0932522  79.3098974  70.8351755
   9.6266632  12.6453375  33.9631653  10.4159288  12.3109507  34.3891668
   8.9993315  12.7596926  34.6770334  89.4835854  69.8509884  61.4921808
  89.0793896  69.3966675  60.7529593  88.7841797  70.3992748  61.8477774
   3.1958254  81.8086815  53.3204746   3.0955752  82.1386909  52.4275684
   3.2778128  82.5958061  53.8589382  81.0899162  41.6973686  45.0802994
  80.8925724  41.6054869  44.1481829  81.4367104  40.8429480  45.3370619
   8.9944800  35.7150245  59.1002798   8.2563265  36.2990499  58.9262962
   9.1657027  35.8177686  60.0364208  59.7200851   4.9166655  57.5419855
  59.3403225   4.1315722  57.1474886  59.0594177   5.5960440  57.4071074
  86.2027454  61.1175013  30.7329845  85.5957699  60.8211946  30.0547457
  85.6450272  61.3062763  31.4876628   5.7403906  54.4525909  68.6736250
   5.6049117  53.8491583  69.4042063   6.0168322  53.8923883  67.9483747
   5.8863314  39.1224742  26.6891694   6.7734011  38.8240027  26.4885068
   5.9990176  39.7391677  27.4125099  68.3987999  58.5610342  37.2616911
  68.0515146  58.3209658  38.1207538  67.6309156  58.5834694  36.6906571
  31.5063819  69.8925209  20.8475614  32.1859606  70.4216576  20.4299307
  31.9839247  69.1763258  21.2661815   0.9834632  72.5182915  23.7802005
   1.1806163  71.9400072  23.0433488   1.4700564  73.3207560  23.5917521
  66.4045906  74.3807840  52.9840708  65.8919239  74.9971485  53.5070419
  65.7800055  74.0262222  52.3512888  87.9468727  45.4421234  18.6129844
  88.2745457  46.3400793  18.6634171  88.5125446  44.9471092  19.2056119
  81.3730240  50.9035683  25.0426912  80.8526802  51.5485191  25.5217624
  82.2688580  51.2378502  25.0871086  17.5387534  59.3773174  11.8455219
  18.2559546  59.6099424  12.4352181  17.2369441  58.5251188  12.1599972
  88.7366581  45.1733875  34.6306801  89.0428352  45.1874495  35.5374861
  88.6897469  44.2436028  34.4081163   3.6915454  44.4353962  51.3624239
   2.8635749  44.5034075  50.8869648   4.0186175  43.5612440  51.1500120
  88.2747746  79.6351099  31.5042186  87.3319912  79.7844172  31.4328218
  88.4881878  79.8780251  32.4051476  16.1989649  29.9373436  58.0929661
  16.9201335  30.3004646  57.5788689  15.8883151  29.1930604  57.5774336
  85.7452869  50.7719278  22.6465702  85.6266499  49.8926830  22.2872829
  86.6114616  50.7495689  23.0533648  77.7563667  52.3814964  41.3894749
  78.2324076  52.5559473  42.2013760  77.2963524  53.1994915  41.2010574
  90.6423187  66.7005920  34.1096950  89.9121952  67.0379353  34.6286774
  90.5362129  67.1113777  33.2516575   2.9165038  48.8847351  12.4966931
   2.3587474  49.4957781  12.9781210   3.7913092  49.0215635  12.8603196
  14.1743430  41.8373203  30.0331330  13.2801016  41.9978714  29.7318125
  14.6653041  41.6447353  29.2343259  80.1043797  81.8700790  56.0924149
  79.8136139  82.2744274  56.9098425  80.0673676  80.9291553  56.2642193
  78.4515333  46.3571024  17.3795211  78.3070517  46.2453413  18.3191311
  78.6295366  47.2916698  17.2740567  10.0630530  44.6586180  74.7792912
   9.7876509  43.8542652  74.3395138  10.2165850  45.2801418  74.0676975
  52.2715044  80.6733704  32.1265054  51.8975639  80.2089405  31.3777065
  52.9787254  81.1994171  31.7532253   2.4178466  61.2151957  19.0889037
   2.6064070  61.5015984  18.1952310   2.4938067  62.0103741  19.6163046
  73.1704044  75.6196785  30.8501124  72.9901791  76.3561869  30.2659011
  73.9649677  75.8747482  31.3189888  22.9057770   4.5027327  44.3870068
  23.5062103   4.9493574  44.9838591  23.2011204   3.5922407  44.3870878
  15.3960733  11.1019968  20.2443480  15.6320124  11.4355635  21.1099696
  16.1402588  10.5581163  19.9862432   2.3041876  61.8224907  33.4268045
   3.0120333  61.2694836  33.7575126   1.5316733  61.2575006  33.4422946
  67.4875450  51.2514496   9.5548308  68.0140400  50.7103348   8.9664209
  67.7732515  50.9985399  10.4326904   1.8777903  50.6444836  66.2721252
   1.0051497  50.2654552  66.1669588   2.3857077  49.9593735  66.7067194
  29.1239031  67.7152014  16.6496813  28.7375983  68.3187771  16.0151005
  28.7971362  66.8536615  16.3904345  75.7781410  73.9514971  25.9869266
  75.9285688  73.3573675  25.2516627  75.4755449  74.7636271  25.5805850
  68.2666302  81.9607067  67.7016497  67.3917770  81.6244507  67.8960657
  68.7504721  81.8574333  68.5210800  83.9849377  40.4858160  56.3627434
  84.2347622  39.5917821  56.1292458  84.7894001  40.8785439  56.7016172
  77.0336771  59.8230362   4.9306911  77.1970654  59.2159748   4.2088762
  76.5045023  60.5198288   4.5425108  88.7709141  61.9790316  29.6973038
  88.0536079  61.6056776  30.2094722  88.4914589  62.8755474  29.5118356
  57.3434019  69.5703459   4.1958606  57.5375128  69.0845156   3.3942854
  56.9200182  68.9298916   4.7675213   1.8579348  27.0324111  18.9966571
   1.0265883  26.7250299  18.6352456   2.1163710  27.7537823  18.4230125
  60.8992147  59.7135353   7.6724118  60.3046894  60.4276419   7.4425644
  60.3727055  58.9208651   7.5689995  55.0110416  16.2944101  54.7530174
  54.1899185  16.6143869  55.1266575  55.6878262  16.8273329  55.1703835
  88.8590908  77.0174885  31.6700959  88.5083675  76.9883156  32.5602508
  88.7908745  77.9377747  31.4158273  30.4153848   1.5353417  17.9116273
  30.3436399   1.9402425  18.7759995  30.1454544   2.2223254  17.3021829
  33.5966996  59.7989870   0.3906909  32.6397923  59.7836019   0.3726532
  33.8543919  59.7522307  -0.5299832  57.3024321  15.2683854   5.9493166
  57.4099541  15.9636378   5.3002453  56.4539862  14.8765767   5.7422948
  89.7871304   3.6121219   5.5192381  90.2205849   4.0968359   6.2216669
  89.3019772   2.9206041   5.9694159  47.7637223  83.6327396   6.5611905
  47.4108723  83.6454872   5.6714910  46.9910315  83.6563330   7.1256578
  80.8447407  39.8232998  74.4514077  81.3425969  39.3414276  73.7909779
  81.3947295  40.5776747  74.6627352  63.0413342   0.5728604  33.4350991
  62.2899866   0.0657255  33.7425447  63.7181664   0.4222116  34.0949750
  45.5343390  14.5129275  14.9011087  46.2325335  14.2399192  15.4962754
  45.8740425  14.3175995  14.0277946  38.2266617   6.7517596  24.5056415
  38.7456608   7.3234117  25.0714016  38.1096053   5.9510249  25.0168681
  20.5887277  73.9641039  55.2732179  19.8966176  74.0345447  55.9306869
  20.1220662  73.9060466  54.4394967  36.5493945  81.6516147  14.7545815
  37.3336056  81.3377053  15.2048123  35.9565476  81.9120033  15.4595375
   6.1227567  55.4989998  64.2362032   5.5591781  54.7713332  63.9733062
   6.3339622  55.9465103  63.4168384  29.4885090  72.5158299  20.8785605
  29.2729024  72.5215913  19.9459767  29.8172263  71.6320003  21.0429382
  74.3849850  12.2292078   8.0794519  73.5130119  11.9498146   7.8004557
  74.8187828  12.5029266   7.2712886  16.1808927  56.0962169  62.4027572
  17.0686586  56.2159197  62.7400586  15.8114583  56.9790094  62.3821196
  65.9685612   9.6708959  40.4996157  65.1906252   9.3493122  40.9552813
  65.6321764  10.3156435  39.8772168  51.7861060  83.5496364  24.1380072
  52.4161986  84.2011593  23.8302183  51.5771464  83.0323834  23.3601785
   2.7360467  66.7839135  42.0580053   3.3338789  66.0434712  42.1608400
   3.0174903  67.4130321  42.7222586  37.5663832  78.3960731  30.2803254
  37.7572373  77.4640770  30.1745439  37.5899438  78.7478895  29.3904376
  23.7606677  25.8483434  23.5608840  22.9166278  25.6470752  23.1567669
  23.6068877  26.6593742  24.0454578   6.6515425  50.4889656  20.9049416
   5.9026602  51.0802198  20.8286071   7.2818235  50.9688855  21.4422059
  48.1144953  16.4543343  18.3443511  48.0806780  17.2039723  17.7501023
  47.9230547  15.6990874  17.7883089  63.1516886  11.6004121  24.5954990
  63.0436134  12.1320486  23.8068843  63.0811214  10.6970727  24.2869043
  43.3327511  79.9557949  30.7680511  44.0993193  79.3959893  30.8914185
  42.9233674  79.6282567  29.9672031  65.1646471  11.3580215   6.3397688
  65.7518005  12.0790505   6.5669233  65.7368422  10.5930257   6.2797129
   5.8730463  61.7093826  24.5912385   5.0018171  62.0128466  24.8463893
   6.1897973  62.3758794  23.9815807  89.5001410  57.4246769  58.1645057
  90.0952719  56.9876199  57.5553796  88.6265276  57.2410386  57.8191039
  21.3565377  50.6935478  49.9704695  21.2812499  50.7074882  50.9246016
  21.2361077  51.6059614  49.7073555  83.5470867  21.1345339  44.1334438
  84.2426777  20.4988050  43.9654160  83.7740898  21.8876958  43.5880613
  84.9526642  51.2084078  70.4657418  84.0559720  50.8781492  70.4100320
  85.1272629  51.5747725  69.5988369  64.2116331  78.6423438  56.9670555
  64.1462563  79.1864865  57.7518258  65.0826596  78.2490032  57.0202133
  81.6288471   6.9534254  42.9713440  81.4538765   7.0340627  42.0337343
  81.5682602   6.0143214  43.1464005  29.5035294  74.9991525  37.0446539
  28.6660126  74.7330607  37.4241185  29.9703292  75.4205693  37.7662754
  29.5154572  46.5774441   1.9667690  28.7807369  46.6274023   2.5782588
  29.7342253  45.6462717   1.9307780  72.6719618  16.3179195   8.9676160
  72.9752254  16.9423306   9.6266866  73.4750605  15.9646034   8.5849577
   6.2270744  32.6590602  64.4763312   7.1598060  32.7037542  64.2659840
   5.9880216  31.7468064  64.3123875  60.2427578  15.3951883  27.4045086
  59.6696186  14.9231219  28.0085707  60.9853506  14.8064911  27.2694969
  30.5115155  74.4805265  30.3438663  29.5741776  74.3047775  30.4259634
  30.8953599  74.1087879  31.1380339  12.2504500  65.0201608  50.4711056
  12.6963500  64.1941954  50.6586885  11.3984374  64.7584892  50.1220560
  13.6394937  41.7265651  68.1293765  14.2972476  42.3917356  67.9265514
  13.2866962  41.4708822  67.2770891  62.8128052  36.2406492  22.2116756
  62.4662352  35.4174113  21.8675780  62.7008009  36.1700416  23.1596732
  46.3598347  24.4232011  25.2545547  46.9267082  24.5270324  24.4902849
  46.9265699  24.0372610  25.9224558   9.8664645  70.6819190  52.9456282
   8.9122466  70.7473374  52.9079437  10.0660256  69.8457623  52.5246191
  37.6510838  74.2166532  22.7798343  37.8404454  74.9976123  22.2597575
  36.8676118  74.4459249  23.2796741  39.8382258   5.5486941   9.9853367
  39.6912169   4.6177909   9.8178887  39.7207737   5.9669441   9.1323984
  24.9787358  73.1022383  57.2121143  25.3649644  73.6555601  57.8910065
  25.5507401  73.2192887  56.4535999  65.8068155  35.3418325  71.6878626
  65.1556681  35.4471074  72.3815166  65.9029411  36.2180029  71.3146103
  61.2586355  12.8836954  17.2348773  60.3720140  12.7657342  16.8939662
  61.6570902  12.0156848  17.1714449  23.2324389  83.9973646   2.0317037
  22.8439072  83.7729267   2.8772235  22.5377110  84.4613520   1.5644789
  28.4436635  72.4839140  15.8636725  28.4146718  73.4349657  15.7593024
  29.1934374  72.2078598  15.3365433  12.9706315  16.0126201  71.3388083
  13.0744389  16.0126487  70.3872541  13.6085538  15.3700725  71.6493166
  42.3750687  34.0462208  26.8752789  43.3229113  33.9480758  26.7847610
  42.1819353  33.7098861  27.7503872  70.5281569  81.9841201  18.3649838
  70.8095427  82.8705055  18.1383228  69.5988704  81.9620694  18.1365716
  89.6216774  20.9195542   2.8785476  89.9145126  21.2216759   2.0187786
  90.3577328  21.1059475   3.4613973  46.8707418  13.6514843  21.0861993
  46.4718962  14.2974043  20.5031538  46.7633581  14.0212691  21.9625330
  36.5521502  19.4038379  41.6364574  37.3003864  19.8681164  41.2611961
  36.6881108  18.4896517  41.3874388  38.1004953  19.6398795  18.1070364
  37.3415947  19.5206547  18.6780787  37.8656268  20.3805757  17.5480735
  28.3480242  68.9945413  46.1235142  27.6620511  68.7014569  45.5237007
  29.0194968  68.3144642  46.0701084  63.1696223  30.6516402  50.5005643
  63.2988714  29.8111098  50.0612066  63.0635928  31.2809877  49.7871826
  18.6965663  40.4240756  65.0509295  18.1078870  39.6827875  65.1929895
  19.5649678  40.0854610  65.2687350  65.3655291   8.9613080  23.5416341
  65.8744717   8.1751972  23.3435416  64.7418880   9.0313238  22.8188634
  56.8794011  57.3545711  71.7989946  56.9653152  57.5280719  70.8615789
  56.0549854  56.8748455  71.8792138  79.9220799  51.0907965  68.9176593
  79.0678071  51.5224682  68.9278016  80.0157260  50.7660626  68.0221090
  22.6691846  68.6000074  14.8128247  23.2728175  69.1819538  14.3510914
  23.2039860  67.8443302  15.0560820  70.6442928  11.1093664  14.0612066
  70.9788561  11.3293529  14.9306357  69.6996117  11.0165799  14.1845119
  75.1915593  78.7906743  16.1953628  75.0669999  79.6905113  16.4970422
  74.3690116  78.3503289  16.4092410  34.4053602   6.1660522  17.3088408
  34.7530794   6.7861700  17.9497588  34.2832613   6.6858798  16.5144205
  40.5076722  79.5473922  21.2322116  40.3031806  78.7492902  20.7449222
  39.6546534  79.9404300  21.4169240  23.4672383  82.6398329   4.7049233
  23.9772919  83.2170288   5.2731860  23.0277804  82.0387665   5.3064424
  67.3990393  28.5099912  38.8261461  66.8206644  28.7423086  39.5526052
  66.8406820  28.5593438  38.0502367  19.6708420  82.2980685  28.6747360
  20.5063799  81.8645776  28.5009742  19.6897582  83.0829115  28.1271076
  67.2201824   4.5891637  52.3954535  67.2572708   3.9457434  53.1031704
  68.0010319   5.1284075  52.5208426  14.5613555  55.0307251  35.5253863
  13.7413004  54.9956013  35.0329351  15.0764779  55.7066465  35.0849175
  48.6968831  74.3656696   9.2733485  48.4006623  73.7290097   9.9238467
  49.0593222  73.8334752   8.5650837  41.4611197   5.9871656  53.6116505
  40.9276915   5.4286897  53.0461454  41.3513708   5.6160223  54.4871140
  73.8325596  10.6338942  43.0531931  73.1126070  11.1300385  43.4427261
  74.0150213   9.9395305  43.6862803  66.2214279  31.9294786  16.8457103
  65.4225302  32.4367142  16.7018020  66.2500000  31.3145447  16.1127234
  30.9319905  79.5344306  29.1755462  31.5506867  80.1507772  29.5674229
  30.0727585  79.9273098  29.3291473  18.4241418  85.9412399  56.6811371
  17.6990346  86.3686328  56.2252998  18.5730246  85.1333713  56.1897993
  74.9049568  27.2721601  32.1827364  75.7419300  26.9376516  32.5049329
  74.2589283  26.6353106  32.4881935  61.7387867  28.9981151   0.3690589
  61.2062120  29.1025376  -0.4194161  61.4278650  28.1824541   0.7618128
  59.8882675   6.8435222  30.5178213  60.2163792   6.0165662  30.8709764
  60.6568909   7.2585940  30.1264620  66.1782455   8.7261993  27.4946642
  65.7072926   8.4561801  26.7062950  66.0361958   8.0113357  28.1151676
  87.2987078  51.3277231  74.3303176  86.8901728  51.4569806  73.4743833
  87.2537898  52.1871375  74.7493890  17.7673462  82.3526509   4.5292184
  18.5875872  82.5514800   4.9807781  18.0337647  81.8524555   3.7578180
   0.4976996   8.2943523  19.5006156   1.1592730   8.8472354  19.9164057
   1.0018309   7.6343048  19.0247786  84.7955704  24.7806573  29.4195032
  85.0026798  25.7004595  29.5847440  85.0755215  24.6305895  28.5165381
  78.0002213  11.1338687  13.8649392  77.6555729  10.2869606  14.1481268
  77.8906631  11.7037058  14.6261978   1.4713248  17.4542141  27.0457816
   1.4868220  16.6584969  27.5775957   2.3894175  17.7172542  26.9814944
  46.5470743  10.3428733   6.2651849  47.0362663   9.7715718   5.6731230
  45.7209778  10.5078351   5.8106691  73.9852093  58.7347679  65.3598139
  73.4091900  59.4221883  65.0253174  74.5072697  58.4701638  64.6024052
  41.1128930  85.8997412  38.0890584  41.9278601  85.4020928  38.0226827
  40.5055979  85.4436014  37.5065088  49.0572957  84.2095187  50.6995821
  48.8445357  84.0454123  49.7808647  49.9283198  84.6057705  50.6766272
  54.2063025  71.8015123  25.7086396  53.3879832  72.2587443  25.9023714
  54.1201666  71.5336014  24.7937417  54.4599056  30.7593060  55.3991842
  53.5224819  30.8414578  55.2239180  54.8489571  30.5812669  54.5429277
  57.4837446  32.2977662  27.9775834  57.7966261  32.0322967  28.8423729
  56.7841005  31.6767359  27.7749705  51.0901526  81.6712649  28.7232924
  50.8220843  82.4812661  29.1571927  50.9348086  81.8351040  27.7930975
  62.8625488  20.6088424  38.1202102  62.9203796  20.7178473  37.1709967
  62.4273777  21.4044476  38.4265900  46.5492296  17.6832879  26.0257483
  45.6845999  17.2867393  26.1325169  46.3682985  18.5804498  25.7453966
  70.8484650  17.2928369  44.5097017  71.3189077  17.7964759  45.1739836
  71.5269995  17.0160031  43.8939238   9.7564943  54.4413953  66.8775425
  10.0631482  55.2798586  67.2227624   9.7042377  53.8712447  67.6446334
  63.0445460  68.6223019  38.5572338  62.4224356  69.1345907  38.0407429
  63.9038447  68.9470757  38.2882214  13.0266913   8.9915955  32.6168799
  12.9676875   9.8686963  32.9956198  12.5528105   9.0563577  31.7877412
  38.1184936  27.4992466  23.9175057  37.8079772  27.5569797  24.8210979
  38.1895590  28.4094930  23.6300468   1.6334304  25.2597022  42.8648853
   0.8081206  24.7761631  42.8289318   2.1478804  24.9098659  42.1374321
  40.6695557  23.4213543  26.4577389  40.8575487  22.6042080  26.9194341
  40.2852201  23.9903212  27.1246696  88.4840107  31.8627262   2.5218418
  88.9132977  31.5636659   1.7202790  88.4992123  32.8177857   2.4596758
  64.9820089  27.9475164   7.5234824  65.6601000  27.2824454   7.6422316
  64.2133522  27.5875401   7.9659963  17.1207789  81.4166693  10.0186896
  17.7134350  82.0519567  10.4204345  16.9799594  80.7574243  10.6982458
  79.3610620  16.7722619  18.7125719  79.0850258  17.3794699  19.3991089
  80.2860451  16.6078782  18.8959301  15.6692798  41.4212121  73.5346872
  16.5709550  41.4848774  73.2197865  15.7521016  41.3512540  74.4857280
  80.5809593  56.1932898  30.5478406  81.2994385  55.5623674  30.5037045
  80.8327961  56.8861532  29.9373031  43.9076853  22.6542664  21.7338252
  44.5127630  22.6216483  20.9928441  44.4037533  22.2852349  22.4645543
  75.9072065  29.1147017   4.5389423  76.8269300  28.9043856   4.3773660
  75.6416941  28.5108280   5.2325344  77.4192475  44.5917857  67.2057775
  77.2059678  43.6915480  66.9601849  77.3221777  45.0907232  66.3946853
  72.3801327  24.4255805  16.0034502  72.4881506  23.7112594  15.3755116
  72.2401524  23.9874315  16.8428934  52.5925636   9.5691377  30.4717278
  52.7752781   8.7718052  29.9746299  51.6499901   9.7027963  30.3720808
  27.4179295  69.6379269  15.3495526  27.6399020  70.2682234  14.6642172
  26.7560843  70.0828672  15.8789170   9.6408422  40.6234511  69.3069914
   9.3250568  41.4652343  69.6354887   9.0532071  40.4139547  68.5810242
  10.3721552  36.0041799   1.7967441  10.4153614  36.7598136   2.3827341
   9.8561411  35.3572263   2.2777965  52.4856806  12.5270295  33.7816381
  52.9144049  13.1918478  33.2427073  51.5598917  12.5884342  33.5463190
  83.1892300  22.3420930  53.8376045  82.2410393  22.3607445  53.7078714
  83.4854889  23.2102990  53.5643291  43.2659006   7.5842971  52.3860598
  42.5169802   7.1293569  52.7712631  43.6554050   8.0652869  53.1162405
  56.9909048  26.2998033  61.2988663  56.6737270  26.5317011  62.1717072
  56.1961079  26.1423612  60.7892179  90.9735775  30.2275777  36.6239738
  90.0735474  29.9022579  36.6423178  91.4757252  29.5202494  36.2192822
  56.9164658  55.5103207   1.2305003  56.4870739  55.8520937   0.4462514
  56.2715244  54.9186850   1.6181204  19.5384339  56.3176728  49.0962887
  19.5403508  55.9813429  48.2001257  18.6129407  56.3481022  49.3387127
  89.7629929  18.6284113  16.8928742  89.3415928  17.7980828  16.6710460
  90.2771854  18.4342015  17.6765299  42.9313830  72.2432221  55.6284523
  43.1547383  73.1711329  55.7014370  41.9827965  72.2146595  55.7533598
  58.8748789  29.5615315  18.8547242  58.8668633  29.2495131  17.9498422
  58.8124704  30.5137897  18.7802815  75.9057331   4.6966341  50.3310061
  75.6109715   4.7422159  51.2405491  76.5120459   3.9561814  50.3125429
  85.7409096   6.4408773  34.8677397  85.1947880   7.0059645  35.4142427
  85.9404850   5.6888479  35.4252791  66.7296934  25.3733468  49.4776869
  66.3974333  25.9041023  48.7537146  67.5141048  24.9524927  49.1258240
  73.3577394  15.3321469   5.8057392  73.3659554  16.2773407   5.6548303
  73.7006569  15.2283287   6.6933566  53.7220240  21.0281205  33.3432961
  53.9520741  21.8962073  33.0120325  54.5616150  20.6276798  33.5690618
  40.0951413  84.4568262  31.1078525  41.0422019  84.5249478  30.9867644
  39.7377375  84.4823999  30.2202487  33.3174399  79.4286735  48.4058189
  33.1765727  80.3749604  48.3753443  32.5154809  79.0552426  48.0402470
  43.0693293  24.7088504  18.9960885  43.0047607  25.0228858  19.8980010
  43.4625483  25.4377866  18.5162365  17.6470307  65.6106044   7.8475064
  17.2154215  65.9642089   8.6252642  16.9350222  65.4615904   7.2253591
  34.7683581  32.7795362  29.1585040  33.9263877  32.5346422  28.7746453
  35.4022845  32.6383805  28.4553385  70.2810955  15.6023049  34.2294621
  70.2384663  15.2538574  35.1199675  71.1315632  16.0391557  34.1836643
  78.9344882  85.7726734  73.9102279  79.3747090  86.5376012  74.2808078
  79.6461915  85.1775901  73.6744570  87.8644466  25.2694297  28.2245135
  88.7104416  25.6259847  27.9535937  87.2267818  25.9253645  27.9427981
  85.5079556   5.6707668  38.8803649  85.9117508   6.4588314  38.5168600
  84.6089172   5.6891811  38.5522962  52.7989674  16.3659990  19.8178220
  52.6940727  17.1455550  19.2723656  51.9875479  15.8742309  19.6913421
  55.7103205  23.4639978  28.1517410  56.4442444  23.1792402  28.6962628
  56.1203194  23.8096189  27.3588467  63.1056690  36.7041183  10.6532800
  62.9473257  37.6462221  10.7132649  62.6344156  36.4316964   9.8659199
  84.8296642  50.0506687   4.8089615  84.3587112  49.2841339   4.4820714
  85.1959991  49.7674274   5.6467009  12.3634108  15.3895438  12.9864013
  11.6862925  15.3341687  13.6606979  12.1374186  16.1721563  12.4837315
   1.3781222  22.8458095  13.4426308   0.4352816  22.9572845  13.3207250
   1.5915927  22.0543003  12.9484880  51.3306379   5.5440569  34.4583154
  50.6804085   6.1483216  34.1001320  52.1560812   6.0266811  34.4141078
  75.0610924   8.7234461  41.3837957  74.8476601   9.5934200  41.7211723
  74.6335077   8.1195432  41.9910049  12.4394854  54.1132402  12.9192805
  13.1884631  54.0275049  12.3294413  11.7361983  53.6304188  12.4851096
  87.7931737  71.2925904  62.8486929  87.3206328  71.9262021  62.3088107
  88.1580399  71.8128340  63.5645470  49.4287613  84.2301319  32.5229168
  49.9163416  85.0537843  32.5134683  49.0562132  84.1824245  33.4033489
  20.8316001  28.0707574  57.9494047  20.5016287  28.1897855  57.0587969
  21.6985472  27.6818657  57.8336430  60.4373217  18.0781090  33.5654831
  60.1832294  18.8661039  33.0851364  61.3859510  18.0228138  33.4502578
  62.8791026  76.8615622  36.1132264  62.6661376  77.3157067  36.9284749
  62.1632937  77.0874078  35.5192161  79.3580294  20.0228548  36.0058641
  79.2925072  19.1252136  35.6800103  78.8921404  20.5483651  35.3554654
  64.2113400   8.4378171  56.7276525  64.2351103   7.9281300  57.5375223
  64.7288847   7.9251426  56.1067295  82.6562880  75.3722494  68.4730927
  83.1534670  75.7360022  69.2057094  82.5407218  76.1088555  67.8728536
  58.6373711  14.0384185  47.7894402  58.6362076  13.7341666  46.8818808
  59.4819736  14.4765151  47.8941011  68.3438443  50.3924130  62.7189157
  67.5417660  50.8752095  62.9184422  69.0500949  50.9996234  62.9396829
  33.1968689  15.3548169  25.5997157  33.7600327  16.1232734  25.6921983
  33.0191302  15.0785339  26.4987755  88.3350945  22.4139857  28.3616209
  88.3127117  23.3391809  28.1171918  88.0194092  21.9531870  27.5842905
  62.3829746  22.7226305  28.8752866  61.5140820  22.4845409  28.5519147
  62.5255966  23.6105108  28.5473180  71.7253016  55.9058778  74.5287737
  70.8160208  56.1954348  74.4540031  72.2038697  56.4570384  73.9095578
  88.7111759   6.9125867  18.7860203  89.4904327   6.6488874  18.2966721
  88.9447117   6.7699635  19.7032726   9.1800026  69.2971517  15.0046372
   9.8234871  68.6221601  15.2203894   8.8038162  69.0120102  14.1719258
   4.2004737   2.4633412  56.0158300   3.4995135   2.1721636  56.5990114
   3.8280924   2.3876169  55.1372957  78.1659222  46.8577909  44.4622040
  79.0256310  46.9941711  44.8603630  77.7079058  46.2804985  45.0730991
   2.5816020  39.2006230   3.8860315   3.5032233  39.3788862   4.0732911
   2.1161326  39.9655080   4.2244488  60.9315252  21.1402512   7.1178061
  61.8006182  21.0793114   7.5142884  60.7206154  20.2417970   6.8637854
  84.8076153  19.7286904  28.0300641  84.2345905  20.4110360  27.6803803
  84.3511772  19.4080245  28.8079262   7.3603705  72.3974193  43.9977217
   6.8786338  73.2232226  43.9506817   8.1567744  72.6120497  44.4834232
  70.6466464  66.3171400  44.1448116  70.4002551  65.8293606  44.9306822
  70.6876067  67.2292949  44.4320869  27.4693993  84.8349445  27.0041323
  26.5896109  85.1676151  27.1817279  27.5964335  84.9821116  26.0668826
  66.7778492  34.3543959  30.4185152  65.9139538  34.7069860  30.6320500
  67.3004532  35.1230693  30.1899123  82.8233337  52.2827005  65.5895376
  83.0825901  52.9270744  66.2481737  82.0099640  52.6291752  65.2226400
  54.2495680  24.9049878  39.8966384  53.4164381  24.4537449  39.7605896
  54.8549032  24.4782424  39.2902637  54.1437244  23.6282873   6.6499943
  54.0490484  23.1458712   5.8286881  54.3494940  24.5231986   6.3797653
  89.6831703  37.9637313  23.6283016  90.1159859  37.1657085  23.9317179
  90.3970814  38.5191488  23.3151412  77.7416468  23.0137157  22.1538830
  77.2824764  23.8166213  21.9074345  77.5251675  22.8879547  23.0777621
  72.4654654  86.0331923   2.9230651  71.8798426  85.8861481   2.1803340
  72.0578650  85.5580770   3.6471885  54.9968604  83.8363860  40.0307417
  54.8468474  82.9766966  39.6374726  54.3975237  83.8665090  40.7764769
  45.9348631  11.3200498  26.2987208  45.8567238  10.8589542  25.4635477
  45.0381947  11.5744233  26.5166831  50.4749468  82.0178051   3.1656742
  51.1661318  81.4540676   2.8182578  50.1720122  82.5194789   2.4088478
  14.7579983  14.3036548  58.6068687  15.5068234  14.8218910  58.3120475
  14.0163067  14.6511833  58.1115434  25.5944851  83.4195135  22.8946948
  24.9544409  84.0844364  22.6408291  25.2236298  83.0176930  23.6803389
  47.0198154  11.3368905  62.3075247  47.3332167  11.1490583  63.1922483
  46.2584543  10.7673430  62.1971750  88.4011459  50.8933401  32.9938006
  87.6451969  50.4865313  32.5703955  89.1158009  50.7813215  32.3669434
  44.1883162  85.6812854   4.7591573  44.6713999  84.9379933   5.1202357
  44.1205577  85.4911507   3.8234812  69.0289640   8.9648485  11.3635051
  69.8657608   9.1596198  10.9415245  68.4804344   8.6189932  10.6594229
  81.7756557   1.8393946  28.0868077  81.0687160   1.3534607  27.6621485
  82.1594429   1.2148928  28.7023854  61.3195086  15.5924976  37.2697878
  61.8361187  16.2969029  37.6611447  61.2682199  15.8203745  36.3415241
  12.9259833   1.9716500  52.3045683  12.5630911   1.1221256  52.0538712
  12.3234233   2.3023221  52.9707575  18.4683827  72.7615226  11.9886971
  18.2440308  73.2121790  12.8028274  17.6267508  72.6118351  11.5580225
  80.5313301  46.9186068  58.7407207  80.8060837  47.8062296  58.5107803
  79.6009588  47.0024061  58.9495659   4.4904191  33.8556658  72.8773889
   4.8075683  33.3450406  73.6223103   4.9967391  33.5321252  72.1322769
  70.5563688  30.0940466  46.6234255  69.8722076  30.5403280  47.1224117
  70.0988150  29.3862677  46.1696386  79.5247698   5.2483577  27.7760196
  79.5084667   6.0759598  27.2953534  78.7707138   4.7624919  27.4419999
  31.4852770   1.3036078  14.4389486  32.0282229   2.0739681  14.2716575
  32.0132216   0.5670075  14.1308391  80.8152676  24.4024634   8.1713134
  80.3323650  25.0381398   7.6431501  80.6084156  24.6364546   9.0761304
  89.1549301   4.8119467  31.8578887  88.4355736   4.1872907  31.9503975
  88.8142967   5.6261230  32.2284532  54.0446663  24.5495129  23.1793189
  53.8991690  24.9108171  22.3049498  54.4643736  23.7037086  23.0221820
  77.1451855  18.8587224  33.3733368  77.3058748  18.9095294  32.4310899
  77.9870796  18.5970330  33.7461185  53.3747530   0.2399461  24.2571807
  52.7383947   0.9225231  24.4701791  53.2125044  -0.4484596  24.9021649
  72.6494646   0.2746977  19.6254146  71.8609619   0.7713103  19.8442030
  73.2844114   0.5256190  20.2963185   8.6640508  53.9045923  71.9060412
   7.8979690  53.6419432  72.4163023   8.5627896  54.8494511  71.7910621
  57.7132654  22.5229526  19.8185849  58.4472275  22.2447419  19.2707431
  57.9976654  23.3557343  20.1951766  60.8067513   8.2964057  49.6911764
  61.3923693   8.6484325  50.3615189  61.2035894   7.4621683  49.4405794
   9.8298958  83.8934755  17.4005282  10.1951007  84.7712588  17.5116849
   9.8436240  83.5152463  18.2797241  67.6147699  29.8003483  27.4860430
  68.3165979  30.4270959  27.6617026  67.2180891  29.6388364  28.3420753
  87.3020077  16.3107550   6.7036885  87.9923344  16.9329512   6.9329321
  87.0708275  15.8930910   7.5333548  70.3933620  32.5508571  14.4931972
  69.7926235  32.6875544  15.2257669  70.9959936  33.2933164  14.5358825
  53.4569597  14.3456662  31.8675494  53.4111261  14.6882463  30.9749293
  52.8514814  14.8943925  32.3660755  37.2378993   5.7327396  34.4801497
  37.5343037   4.9270105  34.9034429  37.4453473   6.4239496  35.1089787
  60.1123953   2.6012245  29.4158316  60.4098082   1.7691344  29.0478587
  60.2798986   2.5213513  30.3548717  73.3226156  13.0395722  35.8799005
  73.9478207  13.6900818  35.5602336  72.6745749  13.5490537  36.3664222
  77.5001717  29.7709036  49.5557833  77.9688120  30.1969576  50.2734804
  78.1851912  29.3390942  49.0453768  21.7536858  63.7126637  56.0672283
  22.6335791  63.8591648  56.4144421  21.7897776  64.0512205  55.1726294
   3.4362944  46.8574286  33.6676288   3.5491141  47.7801704  33.4394789
   4.1181811  46.6862059  34.3171978  82.9957676   6.6899157   9.9143457
  83.8668156   6.6159344   9.5244282  82.8815174   7.6275754  10.0691712
  80.0153542   0.4997031  35.4289842  80.5214405   0.8151907  36.1776972
  79.9879456  -0.4504454  35.5416727  56.9988775  16.8007994  25.4731941
  57.1022892  15.8882749  25.7430792  56.0879517  16.8638718  25.1860189
  71.0074690  81.4559455  33.0277014  70.8018855  80.5217410  33.0627894
  71.7760542  81.5108908  32.4598193  14.7128705  84.6088360  50.4199886
  15.4353074  85.0091895  50.9037590  14.4741324  85.2618978  49.7621536
  65.2974081  29.9124932  19.1643047  65.2243090  29.9812579  20.1162291
  66.2239122  29.7299314  19.0078032  81.2877464  23.0866838  23.7577510
  81.7294979  23.9210081  23.9158154  81.0088253  23.1328321  22.8432536
  76.1897278  48.0765200  37.6501155  75.5380154  48.2108831  36.9620395
  76.0747290  47.1636200  37.9139686  78.9401197  25.2641869  46.8972015
  78.3580351  24.8836756  47.5549364  79.7432995  25.4670191  47.3767805
  69.5847034   0.0418952  53.9225435  68.7271070   0.3488462  53.6283684
  70.1172209   0.0207935  53.1274223  68.6508369  33.1010032  41.8910694
  68.8899755  34.0277481  41.8773794  68.5359478  32.8969765  42.8191853
  73.8755989  47.6929045  56.5271807  73.3137894  46.9805050  56.8322754
  74.7435427  47.4760294  56.8675852  14.6762618   1.6383047  38.4652829
  14.6403559   0.6836021  38.4062481  13.8498267   1.9331771  38.0828118
  90.7889652  19.1312277  63.2979727  90.8099842  19.3204391  64.2360497
  91.1676311  19.9090040  62.8882122  57.2558165  10.3929353  16.3587010
  57.6658535  11.1499012  16.7771542  56.3209915  10.4989731  16.5350318
  68.0180788  14.9505544  23.8527012  68.1853390  15.3323829  24.7143650
  67.2289419  14.4225156  23.9738059  78.3364391  28.3055758   3.8794285
  78.7178802  27.4737453   3.5987359  78.9729452  28.6644197   4.4977474
  65.8462095  21.1396623  38.3137941  66.1212158  22.0559454  38.2817054
  64.9520254  21.1458683  37.9722834  36.8469456  77.2515399  45.1312304
  36.5517310  78.1518317  44.9950075  36.2521247  76.9022585  45.7948732
  54.3128395  17.2856987  24.5768547  53.8086939  17.2230542  25.3881168
  53.6845922  17.0711660  23.8872790  51.1853170   9.1686761   9.0015304
  51.8785000   9.6074551   9.4946861  51.2276697   9.5599526   8.1289816
  68.4279013  10.3701675  50.9685898  68.7777901  11.0606396  51.5316725
  69.0421057   9.6432179  51.0711956  83.5054774  17.4601022  58.3781264
  84.3174977  17.8987304  58.6320183  83.3979101  17.6731292  57.4511514
   1.1366328  44.8326302  18.3633268   0.9817370  45.2168608  17.5004208
   1.4706286  43.9549017  18.1782258  88.3054303  65.3461568  59.7215912
  87.5130509  65.3010814  59.1864893  88.8904618  64.6923678  59.3387947
  58.9902735  39.3278098  14.6934259  59.6441746  38.9549518  14.1021383
  59.2921305  39.0842962  15.5685353  59.3383694  25.0985122  44.8718834
  58.9595509  24.6713781  45.6401825  58.6616516  25.7089329  44.5791864
  68.3279085   5.2258587  39.2950916  67.9952192   6.1183619  39.3898988
  68.5256100   4.9476817  40.1893854  27.1087224  20.2650325  73.8648837
  27.4107320  19.3796413  73.6621507  26.8056829  20.6126611  73.0261033
  59.7052172  80.3367759  30.8597755  59.7851733  80.9389872  30.1200604
  60.3824023  80.6205232  31.4739013  90.1099110  23.1448841  30.1440978
  89.6137619  23.0022454  29.3380380  90.3589058  22.2662115  30.4307461
  88.7205982  46.9181681  60.9305239  88.8796425  47.6346016  61.5450573
  89.5939064  46.5975046  60.7052755  72.5645876  24.9028993  49.4354963
  73.0177641  25.2917624  50.1835918  71.8949127  25.5452991  49.2007828
  58.3311462  28.6122370   6.8602264  58.3516598  28.2698607   7.7538645
  59.0601444  28.1755686   6.4196432  19.0230235  20.0556517  61.6072464
  19.2435893  20.9755540  61.4610815  19.0735873  19.9451625  62.5567007
  78.7009239  35.0175071  25.7360530  78.6853409  35.9582543  25.5600286
  79.2584276  34.9276543  26.5089345  24.0404538  31.5009395  70.4138908
  23.7945441  30.8057682  71.0242117  23.2064370  31.8449108  70.0939975
  66.0009623  35.5882287  41.1057281  66.8548679  35.6640124  40.6798887
  65.4988289  36.3304591  40.7692957  75.4209232   8.3756423  38.6816359
  75.1864624   8.5468590  39.5937443  74.5811176   8.2819605  38.2319903
  83.1902027  54.2508411  21.4816165  82.5084877  54.5507050  22.0829272
  83.2498360  54.9427748  20.8228993  14.4685706  28.0540991  37.4150300
  13.7946089  28.2170558  38.0749154  15.0070246  27.3570132  37.7896905
  83.4293747  15.8076096  10.8744514  82.9147148  15.2945638  11.4974666
  83.2432461  15.4089057  10.0243795  80.6600808  69.4441574  67.2036210
  80.6901406  68.7292712  66.5678022  80.2038001  69.0737073  67.9591403
  82.1617699  66.2924671  47.4089146  82.6716137  66.7210293  46.7214346
  81.6581059  65.6202984  46.9498491  15.0147113  28.1673932  44.9685717
  14.3897589  28.8835311  44.8553848  15.8695468  28.5684466  44.8116112
   1.1966857  42.5753307  33.6414886   1.1837824  43.3160686  34.2475986
   0.3103312  42.2163391  33.6830926  86.2661457  18.9181077   4.1424364
  86.6395950  19.0767670   3.2754907  85.4496574  18.4494543   3.9694008
  78.7835646  -0.2505152  43.3808088  79.0053654   0.5190134  43.9050817
  77.8451872  -0.1636836  43.2130575  34.7002276  24.8246264  17.7532947
  34.9437960  24.6215582  16.8501508  35.1783236  24.1841960  18.2800794
  40.9183747  52.7585958  65.5656478  40.6959588  53.4749918  64.9710551
  41.7973287  52.4897109  65.2984760  65.1840019  48.2163668  21.4547968
  65.3381586  49.1534567  21.5745425  64.2741108  48.1586504  21.1632586
  78.6858319  44.6780627  53.8802574  79.0773533  44.9153163  54.7208831
  77.7576493  44.5499823  54.0759799  24.9081067  75.4556550  26.8795037
  24.4483641  74.8548532  27.4659395  25.7421044  75.0222243  26.6983366
  13.7014159  27.6758194  59.7389174  13.0198630  27.2164202  60.2294970
  13.9296874  28.4245467  60.2898550   5.4444369  25.8550644  13.2876801
   5.6128939  25.0747228  12.7595496   4.4986209  25.8452725  13.4345579
  82.4565411  10.1570749  20.6842303  83.3889580   9.9642724  20.5859470
  82.1891689   9.6592677  21.4568424  12.9363211   1.7945483  21.8315387
  12.2122248   2.1157941  22.3688602  13.6642321   1.6952801  22.4451494
   6.2392958   7.1998900   9.3331367   5.7441481   7.1848321  10.1521826
   6.6810473   6.3512021   9.3046826  72.8811789  23.0474043  42.3390102
  72.9297256  23.3486199  43.2462835  72.4392748  23.7578940  41.8740797
  73.1051636  39.7830915  48.2184553  73.8330173  39.4034171  48.7107038
  72.6180744  39.0273666  47.8900480   3.2186373  28.9452648  43.6074209
   2.5644835  29.6221757  43.7809324   4.0502318  29.4182348  43.5761356
  46.2105989  55.1783848  19.4102609  47.0513821  54.8529196  19.7318077
  45.5582762  54.7261667  19.9452424  37.5263643  38.5825586  24.5573378
  36.7838669  38.7648463  25.1332736  37.2555447  37.8154445  24.0529299
  81.9803047  46.2781954  50.6679058  81.2812901  46.4548254  51.2975216
  81.8988895  45.3440809  50.4754448  52.8895760   1.3467242  33.5946918
  52.7531338   0.5229796  34.0627313  52.9351854   2.0091966  34.2841005
  72.7977276  47.3491383  23.0777359  72.5761938  48.2423639  22.8144932
  71.9556427  46.9456768  23.2883120  85.1346207  52.3747969  20.4533648
  84.5002937  53.0571461  20.6730604  85.1640034  51.8160677  21.2300158
  81.2559700  46.6950130  22.4090981  81.5583420  45.8873558  22.8244185
  80.5627346  47.0159292  22.9858732  15.6266219  85.8560340  64.8341468
  16.4492423  86.2735050  64.5787099  15.8088405  84.9176376  64.7848306
  61.2953520  28.1520033  42.4524403  61.0485983  27.2597122  42.6956654
  61.7847490  28.0510592  41.6360235  68.6942339  39.9690890  37.6799417
  69.3950367  40.1185465  37.0452952  67.9223442  40.3737402  37.2841239
  11.7499980  21.7565989  40.1627588  11.1412963  21.5385079  40.8685637
  11.2165030  21.7266107  39.3685794  58.5990667  24.5889878  21.3798428
  58.9164019  25.2877569  20.8077860  58.1039572  25.0436330  22.0613098
  66.7514467  14.3761587  19.7217929  67.6065874  13.9461112  19.7171342
  66.1540508  13.7253451  19.3532908  20.9323938  69.8100536  62.5047490
  20.8315522  70.2704589  63.3378706  20.6803186  70.4541819  61.8430946
   5.5795058  30.8793116  46.7099714   5.6366690  30.2640533  45.9789324
   4.7620829  30.6504297  47.1522951  69.3908119  54.2665148  45.7459354
  69.4872284  54.1226149  44.8045349  70.1307869  53.8014793  46.1363363
  61.6159247  70.2008574  74.2533470  61.9469904  70.4426973  73.3883956
  62.1118473  70.7490056  74.8614820  50.5325678   9.9132387  68.5748765
  51.3105372   9.7305385  69.1017643  50.6126479   9.3307630  67.8195355
  12.2534045  46.1793041  32.7194095  12.4765547  45.9433126  33.6198211
  13.0942687  46.2033319  32.2626901  65.4371977  36.2641406   7.2839504
  64.6598434  36.4185381   6.7471874  65.1008749  35.8514142   8.0794221
  23.0432852   5.6073052  72.2603559  23.8421305   5.2651262  72.6615858
  22.3504313   5.3918242  72.8846645  55.8121089  12.5428621  71.5675232
  55.0023154  12.4559061  72.0704218  55.7161120  13.3729211  71.1005977
  91.0365677   3.8863868  23.8535428  90.1408482   4.1290370  23.6189342
  90.9345055   3.1642976  24.4735456   4.8421820  43.5394144  25.2806211
   4.8167666  42.9796982  26.0567045   5.4253825  43.0823326  24.6746635
  74.7414303   3.5094732  30.5920339  74.0871382   4.2068481  30.5495906
  75.4042435   3.8395074  31.1986589  65.3971767  58.6218119  29.7193837
  64.9604607  59.3971062  30.0721288  66.2653732  58.9321709  29.4621921
   4.3155535  42.5994444  60.9210634   3.6679419  42.4348736  61.6064405
   4.9524840  41.8915701  61.0184145  77.4906969  20.6673646  20.3177357
  77.9689837  19.9291074  20.6951571  77.8661966  21.4384627  20.7427526
  66.4303207  15.9510612   4.4569129  66.1654234  15.3036964   3.8034752
  65.7383394  15.9214664   5.1176071  46.8436432  45.3744316  11.3109958
  46.0473871  45.8310080  11.5825653  47.5436831  45.7973576  11.8082952
  74.3639851  14.0678012  12.8829217  73.9227629  13.2455540  12.6697016
  75.2716923  13.9297163  12.6123035  25.5748136  76.5737026  69.2146102
  25.5514867  76.2260978  68.3230618  25.3264577  75.8326237  69.7671965
  32.5239972  17.9070226  57.1041629  32.1567563  18.6593572  56.6400907
  31.8029383  17.2792379  57.1510479  85.8956623  15.3017235  55.7113361
  85.0279140  14.9016845  55.6547403  86.1491680  15.1952088  56.6281891
  21.7865236  43.4009248  70.8290521  20.8910997  43.6395002  71.0689232
  22.2959192  43.5511550  71.6254044  51.3694172   2.9285406  44.4463348
  51.5394764   3.7570738  44.8944807  51.8891888   2.9790472  43.6441422
   3.9429530  12.9948282  12.6525140   4.2723616  12.2712219  13.1855369
   3.3482703  12.5804210  12.0273352  55.7146890  64.9380558  68.3750073
  56.1462838  64.0849607  68.4217802  55.9274251  65.3600590  69.2074076
  69.0253805  69.2480509  66.3183722  69.0582107  69.5549743  65.4123077
  69.6036218  69.8441856  66.7942885  54.1605139  47.7714348  15.2942145
  53.6259937  46.9918251  15.4449904  54.0613413  48.2881498  16.0938406
  42.0767764   5.0195829  63.7445102  41.9138697   4.1362087  64.0751741
  42.3000077   5.5294458  64.5232556  82.2648621   2.1519487  50.3316259
  82.8263092   2.2914781  49.5690346  81.4109993   2.4935031  50.0661087
   0.3867301  47.4096346  27.3750019   0.2659568  46.6461754  27.9396057
   1.2882384  47.6874065  27.5373864  75.4044676  35.6899071  36.8014169
  74.5619965  35.6782913  37.2556567  75.2800989  35.1086211  36.0511684
  72.7686003  79.2490680  28.1949472  72.7893523  78.3169199  28.4115148
  73.6889533  79.5115740  28.1780267  18.9234665  78.9904965  38.2357144
  19.1692141  78.0742581  38.1078649  18.9724043  79.3759109  37.3609042
  84.1252804  48.3399296  25.1026487  83.4473324  47.9597855  25.6613040
  83.6706352  48.5582829  24.2891073  69.1233206  41.4230299  30.1660800
  69.2297602  42.3705435  30.0816870  69.4503975  41.2224293  31.0430145
  83.4562492  40.0795031   2.0193826  82.7719498  39.7810102   2.6184428
  83.6358166  40.9798002   2.2903916  50.3129053  13.4363449  43.6834478
  50.6336212  13.9264154  42.9263449  51.0902119  13.0014753  44.0340424
  65.9355593  17.8109860  32.4772215  65.5088329  17.0325017  32.1193099
  66.8419838  17.5409174  32.6244950  89.1355991  24.0486908  39.4662452
  89.4346046  23.1402469  39.4268107  88.4976578  24.0601087  40.1797819
  75.4482126   6.6221595   3.9388198  76.2605906   6.1792296   3.6936897
  74.9190378   6.6105783   3.1412798  76.7008208  66.3593619  52.1953699
  77.1026133  66.3198202  53.0632589  76.8755864  67.2498505  51.8908737
  13.7686927  82.8831236  73.9131262  13.1990487  82.1316474  74.0774964
  14.4308860  82.5533717  73.3056742  66.8473033   1.5503303  60.7451091
  66.0291079   1.8866579  61.1107120  66.8431929   0.6189004  60.9656749
  70.8018589  34.5852017  24.0900302  70.1020622  34.0580487  23.7045169
  70.5141497  34.7446632  24.9889326  69.5042610  55.4438686  51.5411806
  69.6215916  54.9767780  50.7139587  69.5298147  54.7585297  52.2089291
  29.7661761  78.1942053  13.7838852  29.8015479  77.4107272  14.3326497
  29.7290019  77.8579683  12.8884554   6.6241702  38.3149552  22.3486066
   7.3278388  38.8080549  21.9267797   7.0343264  37.4918389  22.6141000
  81.5203381  32.8854084  29.9301744  81.3774300  33.7231827  30.3705645
  81.7897511  32.2900486  30.6295991  79.7598743  38.8322306  45.2127361
  80.5551052  38.8766146  45.7436514  80.0403690  38.4210062  44.3951464
  87.2865772  23.9923787  25.1209688  88.0856514  23.8683081  25.6331444
  87.5967884  24.2200327  24.2445135  75.0122595  64.3090391  24.4399142
  74.4869804  63.7455511  23.8717651  74.7005558  64.1151428  25.3239274
  69.1854477   6.8402427  16.4355171  69.4321203   7.3597020  15.6703067
  69.9627876   6.8523771  16.9939387  41.7338713  52.3895454  17.1060252
  42.5765761  52.0207739  17.3707736  41.3151797  52.6446438  17.9281259
  20.1602038  32.6047325   8.1290275  20.0936373  32.6959324   7.1785104
  19.3545874  32.9980993   8.4643900  72.1561602  66.8587101  32.7638292
  71.8168238  67.5306190  32.1725392  71.3800124  66.5144683  33.2057953
  43.9965561  14.2315523  62.0647809  44.7723273  14.6974031  61.7527017
  43.2898358  14.5343343  61.4946065  26.3303621  50.6985151  58.4674368
  26.4673383  51.3612007  59.1444275  26.0312612  51.1935483  57.7047369
   8.9831836  79.7200816  61.4378295   8.0947454  79.8052685  61.7837379
   9.5485885  79.9955218  62.1594140  89.1870308  14.3972492  36.2033892
  89.4020462  14.2784870  35.2782440  88.8320065  15.2846897  36.2547660
  30.6996495  48.4714704  72.0590161  30.0566251  48.0926709  71.4596308
  30.2554757  49.2294823  72.4389682  58.5474089  14.7158424  71.6329071
  57.9319934  14.3614141  72.2746808  58.6933211  13.9966003  71.0183907
   0.2585372  39.9640727  22.3890257   0.2534445  40.8299112  22.7971077
  -0.2494279  40.0750732  21.5853620  27.7207907  53.4410191   1.8670438
  28.1514605  53.1808758   2.6813388  28.3385714  53.1926012   1.1793940
   1.6710719  46.4358234  13.2695997   2.4695071  46.0628128  12.8959596
   1.5636214  47.2728825  12.8179216  81.1749649  51.5600443  31.1680603
  80.3263950  51.8489456  30.8323717  81.5310860  51.0056925  30.4737210
  68.6407614   7.2260368  25.0615501  67.8212547   7.2791541  24.5697999
  68.4307194   6.6794652  25.8187628  68.1513929  35.8921790  36.8673873
  68.9586210  36.0140371  36.3676190  67.6280975  35.2931929  36.3348389
  55.7240057  67.2848272   5.1152235  56.2117910  66.6306496   4.6148828
  54.8576880  66.8963146   5.2368140   4.4976003  53.2424467  59.4449136
   3.7100513  53.7198846  59.1840527   4.1703994  52.5001000  59.9529419
  49.6302795  21.2977386   7.4712378  49.7086477  20.4749632   7.9540771
  50.3104019  21.8593597   7.8430581  77.8623867  57.1994162  14.0215683
  78.0168819  56.3264179  14.3824565  76.9482327  57.3879528  14.2337132
  70.4890347  43.2417727  34.6783257  71.2320995  43.7618017  34.9843502
  70.1268721  43.7468195  33.9503169  23.0455168  35.4572630   3.1128499
  22.4619349  34.7172475   3.2802969  23.3731326  35.7043886   3.9776233
  47.8857374  23.6710382  30.0864172  47.1129417  23.3952665  30.5793333
  47.9591274  24.6092653  30.2612734  63.7340879  50.2702379  18.3627439
  63.8619614  51.1259031  17.9532182  64.5497656  50.1070595  18.8363206
  52.2406816  14.5175087  26.0100317  52.6096249  13.6862934  25.7113791
  52.9922867  15.0066495  26.3447952  67.2542620  21.7084146  43.9619255
  67.9084587  21.5326738  44.6382141  67.6856565  21.4658713  43.1425953
   6.9077548  26.8897867  38.3091521   7.6745852  27.4626327  38.3024287
   6.2740096  27.3312998  37.7437639  11.3306529  55.7192247  60.9151075
  11.2391193  56.4379387  60.2895639  11.2688119  56.1391060  61.7730746
  83.4481812  42.5504160  39.6749353  82.8725624  42.6883078  38.9226890
  84.2832184  42.9372311  39.4116354  90.5387402  12.5809848  49.1009521
  90.5221176  12.2592187  50.0022936  89.7375202  13.0978251  49.0163279
  76.3836908  30.5356121  23.4654093  76.3162470  31.4779305  23.6194158
  77.3242760  30.3701854  23.4008598  61.7195177  36.3429952  33.4957504
  61.0028219  36.4888406  34.1132498  61.8040419  35.3907585  33.4474826
   1.2163123   2.1443669  44.2339993   0.2683505   2.2768578  44.2406893
   1.3984069   1.6757648  45.0485468  27.9032859  44.0908432  25.4786897
  27.4176749  44.4179344  24.7214437  28.6715468  44.6591091  25.5342340
   5.7669170  69.1482394  62.8988931   5.1992948  69.6741002  63.4623692
   5.3199966  68.3046620  62.8290794  71.1285925  42.8281212  19.3739247
  71.3006735  42.4876833  18.4960175  71.9292021  42.6416492  19.8643112
  81.3420200  47.2503567   9.4472224  81.3425827  46.9866705  10.3673863
  81.6018963  46.4612675   8.9717901  90.5098820  57.5226498   5.3135192
  90.4138851  57.4315023   6.2615216  90.9361172  58.3716869   5.1964784
  84.8654652  27.8942966  62.4100304  84.3466187  28.6398125  62.7120829
  85.3452110  28.2278442  61.6518641  63.5739802  81.4381211  69.6167547
  63.7724923  80.5090778  69.7338063  62.6819490  81.4505785  69.2698315
  55.8939818  84.3893966  28.5364151  55.6040839  85.1852150  28.9823556
  55.1241854  83.8204988  28.5371208  83.8001633   3.2572356  41.1175776
  84.6778393   3.4974909  41.4145660  83.2702732   3.2533500  41.9147158
  82.6337193  75.8605545  50.5976412  82.5045346  76.0990517  51.5156076
  83.2403039  75.1206129  50.6255028  80.1790810   6.7187881  37.1402216
  79.2952061   6.5203995  37.4494791  80.2054405   6.3687789  36.2496996
  62.5805521  19.1387725   4.2949960  62.0610523  19.2107296   3.4942636
  62.5202847  18.2147312   4.5373732   5.5377299  78.3006136  73.6151925
   5.8642585  77.6336734  73.0112008   5.1858051  78.9862173  73.0474554
  18.3365973  45.1818514  26.2214923  17.3933943  45.3245258  26.1424685
  18.6680182  45.9866047  26.6199422  84.4625282  39.1781378  53.0435991
  84.2095852  38.9966416  53.9487600  85.1096535  38.5040760  52.8359938
  87.7397537  44.5941734  23.8960195  88.4189034  44.8727608  24.5103312
  86.9357204  44.9901152  24.2321563  78.1293917  47.7895117  59.9506664
  78.7687874  48.0564499  60.6110859  77.3196030  48.2291794  60.2098274
  87.7442265  48.2731915  21.3796186  86.8336391  48.1444597  21.1141276
  88.2373619  48.2575750  20.5593705  78.9741325  47.1531820  24.2624474
  78.3249283  47.7981424  24.5431399  79.0281010  46.5348911  24.9911737
  14.9833068  13.1438398  18.3707631  14.8526152  12.4047148  18.9647686
  15.9130725  13.3559072  18.4532547  76.7080832  43.3215618  32.6286221
  77.4745178  43.4562302  32.0712399  76.8157530  42.4353075  32.9738641
   4.5739325  45.9526253   4.5618278   3.9300307  45.9605169   3.8536137
   4.0708789  45.7133818   5.3402448  50.8785418  22.6538316  63.5260627
  51.5454653  22.8505603  62.8682349  51.2878302  22.0013610  64.0943966
  23.5820826  18.6675787   0.0939564  23.8872393  19.5712733   0.0136675
  22.7088984  18.7429297   0.4787923  54.0057659  11.5365994  13.0809736
  54.3928528  10.9863031  12.4001122  53.7657738  10.9240985  13.7763000
  90.4192066  40.8506584  35.7762027  91.2401485  41.3425875  35.7592463
  90.6308937  40.0168848  35.3563881  68.2503223  36.4812565  21.7666745
  67.4775505  36.6587305  22.3029208  68.6861753  37.3296833  21.6864538
  14.0926845  67.5959675  65.5974612  13.9132459  68.5057514  65.8347944
  14.9271018  67.3976653  66.0225025  62.3347521  49.6202612  15.9448993
  62.9733706  49.7818804  16.6393614  61.5085030  49.4797564  16.4072812
  31.0122040  79.6737076   6.1454725  30.3611926  80.3524137   6.3237208
  31.7015341  79.8274381   6.7915559  22.4053078  60.0306567   3.9246586
  22.5238686  59.1133471   4.1710642  22.0556908  59.9962159   3.0342558
  63.6174440   4.7687072   8.9989007  64.4731998   4.6699476   9.4162333
  63.3463955   3.8739350   8.7936020  75.1826525  40.7877159  52.2867537
  74.7161722  40.0660610  52.7084589  75.5315876  40.4084873  51.4801168
   2.1899375   5.9008580  20.8243990   2.2262057   4.9450907  20.8621478
   2.1324214   6.1016536  19.8902667  47.5407648  60.7150030  10.0123191
  47.7305412  59.9906111   9.4161075  48.0629396  60.5265045  10.7920849
  60.4557228  27.6363492  24.3176603  60.2322340  28.5572457  24.1826177
  61.2810516  27.5187182  23.8473105  68.4788322  27.6278281  22.2821975
  69.3463230  27.4802995  21.9054699  68.6525583  28.0294204  23.1335330
  33.9702368  42.1410322  10.1158369  34.0659571  41.2785435  10.5197954
  34.8589301  42.4960709  10.0957644  90.6639857  77.9739470  40.7878494
  89.7074480  78.0044265  40.7693624  90.8989139  78.3415712  41.6398430
  79.2838812  61.4155293  41.6978168  79.1232061  62.0005465  40.9574366
  79.5150661  60.5782223  41.2956953  55.1226282  25.3299594  42.5186634
  54.2846107  25.1992106  42.9623604  54.9072647  25.3003645  41.5864754
  10.1094539  83.8659971  55.7462118   9.7721345  82.9709904  55.7087252
  10.8427722  83.8200777  56.3596997  53.9586830  23.1562972  31.7130876
  54.4851303  23.9546108  31.7552543  53.8640785  22.9809546  30.7768512
   2.6496466  21.6146278   3.4174296   2.0233973  21.2182856   4.0232044
   2.1880873  21.6413236   2.5792855  57.7962160  85.4896641   4.9030957
  57.1344328  86.0309792   4.4726849  58.6270905  85.7873154   4.5325863
  54.9289206  82.8857637  21.3331246  54.9586848  82.9114328  22.2895169
  54.7768668  81.9644041  21.1228704  63.9716148  41.8773031  20.4388428
  64.6133614  42.5849295  20.3782940  64.3607378  41.1578798  19.9416065
  73.2597971  60.1061440  19.2268431  73.3769178  59.1564798  19.2013681
  73.6721992  60.4200077  18.4220791  27.9371890  52.5122833   8.6505991
  27.9206046  53.3661985   8.2184142  27.1880873  52.0432329   8.2830727
  90.7763241  69.5136516  69.8433230  91.3161610  68.8180177  70.2186943
  91.2311839  70.3226297  70.0776020  78.4830093  65.9049273  27.3579383
  77.6083469  65.8364630  26.9751787  78.3257961  66.1127281  28.2789898
  65.4692439  37.4996034  57.9730389  64.8962191  37.9758016  58.5739634
  65.9474543  38.1841318  57.5050876  71.1210775  44.5788240  16.9768929
  71.4611053  43.7041140  17.1652913  71.6487503  44.8873949  16.2402964
  22.4942073  38.5147500   9.7920483  21.6643008  38.7268043   9.3648267
  23.0678614  39.2510104   9.5797569  15.5441027   1.9803404   3.4253418
  16.1284094   2.2426294   2.7139860  15.7151442   1.0460066   3.5436225
  18.7709674  56.4835310  11.3812780  18.9531001  55.6271648  11.7681777
  17.9421004  56.7535686  11.7766070  51.2719229  49.7740499  63.3535311
  51.0821131  49.7414533  62.4159071  50.6116561  49.2066518  63.7514398
  74.0153694  13.9072526  28.8395000  73.7421179  13.0913615  28.4201097
  74.4437075  14.4033706  28.1419158   7.6700553  42.5376987  35.2150249
   7.7324923  43.4898853  35.1397085   8.1000765  42.2063684  34.4266510
  77.7198601  49.8628473  14.3005943  78.2249069  49.0677500  14.1303647
  76.8103027  49.5664263  14.3333495  15.5941924  36.6048837  10.4262722
  14.9683818  37.1783066   9.9838108  15.0610312  36.0916376  11.0333562
  79.6312046  49.6389866  23.3560085  79.3049908  48.8150597  23.7178946
  80.5025387  49.7404861  23.7390304  89.0638065  33.9488959  11.3951075
  89.6881294  33.3514142  11.8067610  88.2107258  33.5381889  11.5358746
  20.2650031  42.9471254  17.1168935  20.8637866  43.4314632  16.5484691
  19.4438895  42.9129744  16.6261482  38.4181336  35.3664915  60.9950361
  38.1846169  35.8485691  60.2017495  37.8733233  34.5799820  60.9664509
  78.4219503  48.2523251   7.1263641  77.9109526  49.0522003   7.2500807
  79.3334341  48.5421324   7.1643227  15.0797232  59.0944719  17.9818821
  15.1604327  59.3002272  18.9132166  15.9810122  58.9670992  17.6857555
   8.2889327  18.4210074  24.5125794   8.5353907  17.5404251  24.2296219
   7.8301772  18.7947285  23.7601805  82.0440578  32.2833490   2.0566253
  82.4902248  33.0531216   1.7036074  81.1583996  32.3339558   1.6970699
  22.7199515  53.7842941  43.0164862  22.4793395  54.6898651  42.8208303
  23.6761435  53.7944174  43.0592060  57.7332476  83.9860348  13.8753378
  58.3760718  84.4716845  14.3922102  58.2358721  83.6268420  13.1441844
  78.7301874  11.8729222  58.4500742  79.5110989  12.1183300  57.9539061
  78.7908792  10.9216237  58.5371351   0.2473887  15.4813492  25.1709151
   0.5380305  16.3767207  25.3443193   1.0442885  14.9546766  25.2326059
  15.5867939   9.9589514  17.1394813  15.9501104   9.7065138  17.9883063
  16.0283785  10.7806086  16.9247425  84.9328423  64.8955202  12.8357208
  84.8681450  64.4136047  12.0112193  84.1042137  64.7197819  13.2815123
   9.0397223  47.9022360  14.7212958   9.9570426  47.6288271  14.7239435
   9.0307292  48.7154675  15.2260828  35.0960692  38.9474726  36.7081285
  35.0376853  38.7567472  35.7719398  34.1857299  38.9947033  37.0001602
   3.4754522  83.3065622  69.4008831   3.1890828  82.4060266  69.5534063
   2.6745422  83.7764900  69.1686234  84.3827915  60.3305149  53.8401031
  84.5274067  60.7711363  53.0027437  84.6294212  60.9802103  54.4983625
  23.5586243  14.6706270  58.9747572  23.5557728  15.5916094  59.2355347
  23.2353859  14.6757959  58.0738020  74.1669226  61.2280512  15.9458363
  74.0739536  62.1138668  15.5952382  75.0305843  61.2232113  16.3585043
   9.5375594  24.1741371  73.2269526  10.1524886  23.7106228  73.7955093
   8.8521536  23.5321760  73.0416775  70.6828070  63.9185715  36.3916206
  70.2646208  64.3297148  37.1481395  70.7633162  62.9961729  36.6343665
   5.4767188  72.2452927  26.5686917   5.2131327  72.2133160  27.4883270
   4.8341044  71.6989136  26.1162043  91.3796043  52.3987293  42.3466539
  90.6108475  52.2133064  41.8073416  91.2465286  51.8797684  43.1398773
  88.4123707  60.3903103  46.9237137  89.1113758  59.9309778  46.4582586
  87.6364517  60.2613974  46.3782310   0.7368144  26.6401625  51.3912344
   0.3238162  27.5032568  51.3640785   1.0050830  26.5316200  52.3036385
  85.0650024  10.1034915  29.0765691  84.1958046  10.4002321  28.8069749
  84.8981667   9.3250799  29.6080518  63.0356932   3.4623197  17.0317852
  62.9951191   2.7449736  16.3993299  63.3927774   4.1990119  16.5357947
  25.5155905  61.5426826   8.2058406  25.8505686  61.2990427   9.0687799
  25.5246791  60.7263184   7.7061462  84.0281582  29.2881417  38.7218857
  83.7198639  28.6252379  39.3397427  84.2803001  30.0296354  39.2721963
  61.6732883  43.2052898   9.6357799  61.5950966  43.1570721  10.5885613
  62.1988773  42.4409533   9.3996090  26.1941011  81.3962595  73.9892818
  26.2058980  82.0605629  74.6783361  26.0466249  81.8902962  73.1828011
   8.2081183  43.7476683   7.1623063   7.5693949  43.8625050   6.4586914
   8.6970481  42.9624367   6.9161403  59.7400618  49.2100286  13.6654890
  60.3796053  48.5261154  13.8641918  58.8906288  48.7916756  13.8057494
  87.1318129   1.2943880  59.2038450  87.9164389   0.9240381  58.7995729
  87.4547175   2.0310060  59.7228405   1.6618689  68.1688070  25.0737381
   1.8189009  67.8532267  25.9636712   0.7709178  68.5179520  25.0971460
  84.0199641  80.4439403  10.6952417  84.2353991  81.3174448  10.3684270
  83.0847243  80.4867257  10.8945870  23.1938607  81.2149303  74.0496624
  24.1451509  81.1282508  74.1110093  22.9669435  81.8501346  74.7288222
   3.3116301  69.6894693  31.1711121   2.4127062  69.9587250  30.9822869
   3.5881194  70.2625608  31.8862033  76.8540382  52.7145290  50.2337646
  76.1373615  53.1992960  49.8243618  76.4209604  52.1120739  50.8385134
  13.6689453   4.3622469  64.1570377  13.2568436   4.8638796  63.4536409
  14.2998104   4.9682879  64.5455647  21.0531768   4.3007383   0.6918718
  21.1568602   5.1336849   0.2317815  21.7920741   4.2691821   1.2995428
  75.6743383  55.7960558  31.0417509  75.3237438  56.5492725  31.5171194
  74.9813795  55.1376152  31.0916901  57.7610663  26.3919155  73.7240253
  58.6166361  26.8118326  73.6351777  57.9600981  25.4604236  73.8185661
  52.8825331  40.2566814   3.7099403  53.4692717  39.9369144   3.0245820
  53.4221411  40.8542299   4.2276198  29.3654401  82.2453492  68.3733371
  30.0600679  81.6143291  68.1848005  29.1766030  82.6532857  67.5282577
  73.3262491  35.5332470   9.4711834  73.1816816  34.6578836   9.8304462
  74.2655325  35.5655432   9.2897058  66.8068409  57.1950340  23.6974978
  67.5282478  57.6448202  24.1373825  67.1067524  57.0869875  22.7949405
  11.8231066  25.6269765   9.0336204  12.4150904  26.3764501   9.0974510
  11.8648966  25.2145934   9.8964226  80.2716064  28.4258509   8.7380403
  79.9032211  29.1219711   9.2820424  80.0225163  27.6162767   9.1838825
  62.2534323  77.0443630  15.2502286  63.2023859  77.1369028  15.1656675
  62.0848751  76.1215353  15.0599515  85.2041149  56.7026329   4.0750462
  85.6065655  55.8428526   4.1976658  85.8647346  57.2114944   3.6050710
  70.4174500   4.4927000  48.9958811  70.5920391   4.3432688  49.9250841
  69.4868736   4.7139143  48.9595652  54.5516443  72.3825073   3.6119995
  54.3174171  71.6988373   4.2396659  53.7964678  72.4390888   3.0265588
   3.3874758  24.0112138   1.7691657   3.0459841  23.2538009   2.2444999
   2.7194747  24.6871090   1.8839394  86.0282993  46.1570120  34.3454528
  86.8854904  45.8793354  34.6684909  85.8747101  47.0014668  34.7691679
  11.7825278  65.6786013  23.1829071  11.2056025  65.0347757  22.7719665
  11.9494589  65.3269482  24.0573835   9.8354968  33.6901641  10.3397667
  10.7450064  33.7439728  10.6332254   9.8927935  33.6709547   9.3844759
  61.2482262  65.8810759   3.7791762  61.4893484  66.0987043   4.6795803
  62.0710325  65.6156301   3.3683726  11.7681742  43.4774637  69.4390106
  12.5791681  42.9920673  69.2876482  11.6754830  44.0356588  68.6669636
  31.4150852  46.4604380  17.7255848  31.1138973  45.7374035  18.2758072
  32.0936998  46.8906902  18.2457760  30.7131843  71.0838803  25.5011585
  30.7105449  70.7750901  26.4071777  29.8640583  70.8119091  25.1529434
  79.9718658  35.7564235  59.1838312  79.2053453  36.1687422  59.5821667
  79.7395066  35.6607246  58.2602072  54.0396111  28.3827527  10.3934505
  54.2276107  27.5599225   9.9419620  54.7795819  28.9497025  10.1760986
  78.0465475  52.7316332  52.7148628  77.8476945  53.0193281  51.8238401
  77.9514459  53.5207796  53.2481861  47.2949740  62.7314921  26.5128448
  47.0210310  63.0125125  25.6397941  48.2359620  62.5766774  26.4303520
  40.4893145  73.1633886   9.2066410  39.7635105  73.0461319   8.5937050
  40.0917908  73.5787447   9.9719455  87.4143020  77.5304270  52.4393654
  86.6105480  78.0041790  52.6533127  88.0085952  77.7278376  53.1632948
  49.8777323  17.1111233   6.6822841  49.3634682  16.3798602   6.3402012
  49.2272466  17.7124722   7.0448902  35.2168312  52.7677967  28.1208828
  34.4574692  52.8873422  27.5505283  35.7925662  53.5029586  27.9104068
  72.6752262  20.0232251   9.7992733  73.4280198  19.4930060   9.5377376
  72.1085244  20.0315077   9.0279033  74.4989768  25.9677267  55.6524563
  75.2582148  26.3268948  55.1933432  74.8560540  25.6182337  56.4689016
  49.5878511  12.5137885   5.7114055  49.2886155  13.4149630   5.5906894
  49.1689437  12.2290928   6.5236213  69.7736088  38.3799052  55.8874226
  69.7380034  38.3804846  56.8439579  69.1445390  39.0515208  55.6239223
   6.8793365  71.8581804   4.9488714   7.3189446  72.7053269   4.8759535
   5.9551760  72.0538219   4.7943189  45.7666641   0.5373700   5.6761100
  45.1927572   1.0638173   6.2326267  46.1844843   1.1723549   5.0943496
  50.7715341  19.3388056  50.2868652  51.5664264  19.0758013  50.7507753
  50.9880444  19.2312407  49.3606997  83.7562959  14.5573647   3.4814241
  82.9329937  14.1062338   3.6682060  84.0984028  14.1187031   2.7024725
  82.9423002  76.9501019  33.6562681  83.7798420  76.4867735  33.6471367
  83.0979607  77.7366018  33.1333709   0.1858471  32.1854305  65.4072952
   0.0803297  31.9068027  66.3169479   0.3861081  33.1196880  65.4646587
  67.8172890  25.3508496  56.8858957  67.6858059  26.1863256  56.4376497
  68.0702154  24.7433162  56.1907959  42.6075586  71.4711841  46.1978653
  42.2575756  71.6398247  45.3230503  41.9560107  71.8431576  46.7923000
  24.1342711  63.1929398  61.7594528  23.6573672  63.4077883  60.9578085
  24.8845959  63.7872839  61.7583609   1.3846284  32.8181553  23.2956624
   0.5711597  33.2621169  23.0560827   1.7181832  32.4673128  22.4699020
  78.0642431  12.5402338   7.5884369  78.1275528  13.2534630   8.2236793
  77.2771578  12.7400143   7.0816639  79.3921486  43.1118155  36.4523673
  79.6018974  43.3259916  35.5433202  80.1347796  42.5877094  36.7524362
   5.2544290  50.0593758  65.4114151   4.8481342  49.2272949  65.1689434
   5.2843785  50.5581856  64.5950079   6.8176091  57.5485420  61.8343687
   6.7467481  58.1716013  61.1111784   6.0989022  57.7811718  62.4222279
  32.8354577  82.0398744  26.3223674  32.3937100  81.5046390  26.9816139
  33.1412294  82.8086861  26.8036773  24.0442157  51.1011696  60.3085899
  23.6120772  51.6416025  60.9699678  23.5584545  50.2764463  60.3184652
  73.9612392  57.3601627  62.5165749  73.9238445  57.1024752  61.5954733
  73.1709579  56.9829416  62.9030848  52.8817455  45.7818556  59.4742298
  52.8999964  46.7228460  59.6486807  52.5097839  45.7083750  58.5953236
  11.5155768  10.5953979  40.5390930  10.5788279  10.5149078  40.3594923
  11.7447412  11.4711022  40.2278709   7.7777624  61.1382103  34.2894340
   6.9731694  61.1785173  34.8063827   8.2197922  61.9679737  34.4692326
  43.5476729  72.9394968  35.9657123  42.6463851  72.6691206  35.7901981
  43.8269922  73.3780511  35.1620510  82.3624175  14.8002179  22.4186447
  82.6119631  14.9006064  23.3372715  82.4818318  13.8677294  22.2385433
  12.2513568  30.7200074  72.4957180  12.7738512  31.0072851  73.2445192
  11.3452196  30.8752322  72.7622747  52.4794957  48.1449612   8.5445812
  53.3379837  47.8039276   8.2937267  52.0336005  48.3063610   7.7131012
  70.6556677  23.8057692   0.8127620  69.9356263  23.2093747   0.6076029
  70.5197244  24.0383465   1.7312696  20.5892611  42.3251438  51.1260366
  20.0283241  41.9157362  50.4672718  20.3777862  41.8665075  51.9391537
  79.8810416  22.0922883  18.7131908  80.3651946  22.4072249  19.4765022
  78.9725535  22.0409567  19.0102604  23.6450195  52.9706240  63.4137201
  23.3985901  52.0467186  63.3701038  22.8821325  53.4382963  63.0738401
  54.7695443  74.6377309  35.3488281  54.5944806  75.0493630  34.5025757
  55.6953832  74.8153909  35.5146244  64.8722640  16.8225241  68.9249086
  65.8100740  17.0076656  68.8752556  64.7209517  16.1678469  68.2431984
  78.4683589  44.9538374  56.5864563  79.2924146  44.4745779  56.5000200
  78.1456403  44.7203350  57.4568367  82.8130475  24.3337727  74.1685820
  82.2987077  24.1111445  73.3926153  83.4579144  23.6298680  74.2385435
  18.2552969  59.6462011  58.9086771  17.3066020  59.6164942  59.0324831
  18.3894300  59.3408823  58.0114508  80.3154711  55.8002329  34.5643830
  79.5382122  55.9987974  34.0422034  80.8383600  55.2246475  34.0062404
  50.9158563   4.6867020  17.7361324  50.2304440   5.1218493  17.2290924
  51.7091154   4.7989924  17.2123363  11.1139762  60.4903650  58.4849787
  10.2271819  60.3627396  58.1480265  11.3721406  59.6287155  58.8123083
  36.0948839  80.4251965  31.1477688  36.8234351  79.8485454  30.9177234
  35.3434693  79.8386653  31.2348869   5.6204069  53.4047031  55.1812649
   5.2196592  54.2739153  55.1711559   4.9296278  52.8188610  54.8716736
  75.5962626  45.2663994  62.2668743  75.5616978  46.2150383  62.3898458
  74.8555354  44.9321699  62.7726841  16.9987118  35.0126338  61.6542578
  17.1481645  34.1830754  61.2006855  17.0990634  34.7997808  62.5820780
  48.0478173  12.8463633  25.1112201  47.3017650  12.4760611  25.5829361
  47.6604049  13.4890492  24.5169952  63.5763070  84.8254021  16.8605163
  64.3071457  84.3251999  16.4973285  62.8798481  84.1796549  16.9796398
  10.5424734  56.6248270  10.8318546   9.7213217  56.9203921  11.2250259
  11.1700770  56.6314288  11.5545585   7.6412660  57.8072023  28.4285665
   7.0745111  58.5784245  28.4438872   7.9304862  57.7044630  29.3352246
  81.6398249  41.7290735  57.3955011  81.8904576  42.5120831  57.8857183
  82.4707977  41.3077688  57.1759176  10.1652026  25.8240390  66.2381077
  11.0113692  25.9483433  66.6679716   9.9349022  24.9132347  66.4214897
  53.8551824   5.4137022  27.4269989  54.6783762   5.0034125  27.6920345
  54.0454458   5.8028157  26.5734031  35.5578950  84.3327292  16.1797741
  35.0055185  84.7085722  16.8652275  35.4141250  84.8969992  15.4200580
  28.2766208  80.7678350  23.7795856  28.1562082  81.4571079  23.1264141
  28.8049562  80.1054676  23.3342006  81.6533201  41.9535191  30.9160450
  82.1664994  42.3086102  31.6418483  82.1372025  42.2119362  30.1316192
   8.0331832  43.3113003  60.5308294   7.8710240  42.3876858  60.3387880
   8.8934493  43.3212376  60.9504414  79.5757323   6.4076216   3.6361101
  79.6114736   5.7111342   2.9804781  78.8445549   6.9598658   3.3592775
   2.4598438  53.0665493  67.5197887   2.4466525  52.9567337  68.4705782
   2.1457073  52.2296000  67.1776390  40.2505582  19.1919596   6.9535282
  40.2358144  20.0596507   7.3574188  41.1111598  19.1356451   6.5382793
  42.7138456  72.5893386   3.3384063  42.9252371  73.2420381   2.6709297
  43.0852076  72.9439338   4.1462352  69.6940175  31.5280747  33.6452699
  68.9011303  31.8519235  33.2178569  69.8074237  32.0998430  34.4045138
  89.6176430  61.0454798  27.1047354  89.8384594  61.9411469  26.8493056
  89.0891079  61.1456060  27.8964782  27.0340483   4.7607882   4.9660709
  26.7029732   3.9098103   4.6789100  26.2475794   5.2843029   5.1197841
  79.6828095  34.1840458  32.8467321  78.7922827  34.2842388  33.1831193
  79.6769551  33.3363605  32.4021792  68.6911260   9.9324210  39.0947654
  68.0448191   9.2546017  39.2924526  68.7248879  10.4693539  39.8864677
  15.4306936  53.9270496  64.5170832  14.7359776  53.8146114  63.8682699
  15.6012988  54.8688936  64.5245409  16.2023556  45.5173683  34.7657752
  16.2368894  44.6173811  35.0899053  17.0113087  45.6228161  34.2650700
  89.6986382   9.7651799  20.9368541  90.4600184   9.5509369  20.3977611
  89.4573467   8.9364703  21.3506820  85.9247944  58.3616018  42.3282576
  85.1018611  58.7736273  42.5914049  86.3458059  59.0079975  41.7615509
  23.0653954  64.9782038  30.8678031  23.9363456  65.3098774  31.0861325
  23.2200623  64.3381310  30.1730967  33.5701101   4.7597344  47.3235061
  32.6200741   4.7702582  47.4399212  33.8358681   5.6718285  47.4405220
  84.7308192  78.0375910  46.7931318  85.3078685  78.7847185  46.9514084
  84.8185078  77.8614569  45.8563757   3.9250514  64.6434927  44.2949247
   3.5017002  65.4800177  44.4878674   3.2270235  63.9949894  44.3867540
  69.9728434  54.3540223  11.7875698  69.2699455  54.9186928  12.1089962
  69.5260846  53.6927540  11.2590244  15.4911983  61.5881157  51.1030769
  15.2095926  60.7106781  50.8441687  16.3264322  61.4495707  51.5496397
  78.8248435  44.3959045  48.9088917  78.7849418  45.0506878  49.6059513
  79.4853524  43.7699556  49.2057896  43.0006695  82.0007896  44.4001007
  43.1675434  81.8264198  43.4738302  43.5917807  81.4089966  44.8655081
  25.7398391  65.3650188  58.8225365  24.7977042  65.2757502  58.6788511
  25.9848976  66.1458826  58.3261204  63.9478277   9.7401364  29.0852192
  64.6269124   9.2963154  28.5771873  64.4225635  10.3902228  29.6031406
  25.4292560  32.5084972  73.0339193  24.8971224  32.2808146  73.7963009
  25.6888175  31.6653156  72.6625633  48.5480460  77.0377382   8.8822677
  48.7976381  77.4766644   9.6954563  48.8228032  76.1292561   9.0063694
  17.1891975  49.7040558  49.7580194  17.8976321  49.4839907  50.3629398
  16.3888788  49.5451498  50.2584934  25.8465266  61.0868359  70.6937313
  25.2569461  61.7513704  70.3373337  25.6054759  61.0236359  71.6179228
   5.3155863  61.5894508  68.6817789   5.8574694  62.2357130  69.1344833
   5.8659041  61.2760401  67.9640388  55.1844048  26.0286744   6.1373356
  54.7632383  26.5848763   5.4819753  56.0717874  25.8956940   5.8040168
  79.0558641  52.0346863   5.9206321  78.9685099  52.9764588   5.7734993
  80.0000136  51.8774159   5.9116104  79.5211594  28.8996918  15.5968216
  79.3761986  29.4585068  16.3603332  78.7679963  28.3090527  15.5858448
  10.0801456  68.3956099  27.9367661  10.2010381  68.4670210  26.9899201
   9.1636807  68.1404352  28.0426383  88.4283488  51.1901123   6.2116459
  88.3909362  50.2454407   6.0619095  88.4273498  51.2818177   7.1644428
  12.2211862  38.2479358  42.4567890  11.8622410  39.1013885  42.2138691
  12.3284853  38.2948399  43.4068012  78.3050137   1.5911801   3.6240556
  77.5247329   1.8348153   3.1260231  78.3729070   2.2601683   4.3052890
  54.6304509   6.1169123  50.8885145  54.8532840   5.5064367  51.5912914
  54.7570702   6.9834684  51.2748909  87.1578571   3.4504770  69.3815708
  86.6549703   4.2608522  69.4630575  87.6655504   3.5634302  68.5780048
   9.1719362  83.4910115  36.7694500   9.7653362  84.1643341  37.1022442
   8.3929893  83.5644635  37.3208931   7.8467037  24.9740441   7.3729065
   8.6523510  25.4304154   7.1302345   7.5471689  25.4213316   8.1643894
  42.9251259  28.1800873   5.8323219  43.5704332  27.9401333   6.4973285
  42.5234084  28.9819748   6.1667278   4.4801566  47.0238686  74.1472721
   3.8270658  47.6809978  74.3878698   4.3414512  46.3094711  74.7690725
  25.5756450  54.4891930  65.2432680  24.8964047  54.0584612  64.7242975
  26.3942862  54.0980339  64.9382257  29.8598027  62.6795864  59.9254227
  29.1110945  63.1716347  59.5884418  30.3165507  62.3723555  59.1423416
  19.1710687  58.7314844  29.7925735  19.9858344  58.3968163  29.4178915
  19.0238225  59.5628786  29.3416476  28.3550167  66.8091869  67.9577780
  28.3634329  67.3852015  68.7222195  28.2108617  67.3972130  67.2163773
  24.4140768  72.9486179  68.1481123  24.6966147  73.7661552  67.7381945
  24.9011278  72.2673988  67.6844788  58.2476156  16.7718823  30.4416778
  57.8523307  16.7830212  29.5699814  58.0842667  17.6483805  30.7899597
  10.8624005  49.4220352  57.0858717  10.3172767  48.9162636  57.6885891
  10.6126213  50.3325081  57.2436094  42.1832991  85.0493526  53.5142660
  41.9340611  84.5668316  52.7260542  41.5673351  84.7501564  54.1830683
  36.9391632  78.0873919  62.5611973  36.2255979  78.5379982  62.1095228
  37.5589347  77.8639984  61.8667841  85.8075517  38.6256154  13.6496093
  85.0952833  39.2266400  13.8679626  86.2339514  38.4451230  14.4873645
  41.4794775  21.4738249  22.0966792  41.2970718  22.3158812  22.5136971
  42.3374089  21.5896486  21.6883039  12.1007514  72.1384716  45.6596851
  12.6056409  72.3782873  46.4367390  11.1930871  72.3307705  45.8950520
  47.1664858  23.2496619  54.9923563  46.9948864  23.4059548  54.0637255
  46.3233948  22.9682732  55.3476715  75.0511413  41.3012822   5.7960346
  75.2409594  42.1301968   5.3566005  74.0955274  41.2464840   5.8015945
  17.1760544  84.4334086   8.4805515  16.6177114  84.0370282   7.8116920
  16.6137287  84.5019349   9.2521217  17.7271605  68.4966135  58.2394361
  18.6086762  68.1586027  58.3972692  17.5163376  68.9940262  59.0296030
  83.4184473   6.0661871  53.0879524  83.8665073   6.2816269  52.2699859
  83.3007329   5.1168711  53.0537155  20.1194429  45.5384064  65.4108047
  19.8864913  45.4455423  64.4870424  20.2063656  44.6392918  65.7274532
  16.2873363  48.8557863  57.4140215  16.4437699  48.1492805  56.7874384
  16.3019931  48.4253836  58.2688713  25.3598834  27.3476870  16.9162967
  26.0150529  27.6553996  16.2899616  24.6987964  26.9132311  16.3773754
  13.5663315   4.3568491  44.1103268  13.8568136   4.7242521  43.2755375
  14.0869852   3.5605787  44.2156839   6.9996044  67.0291193  12.6734855
   7.9361507  67.2122487  12.5988224   6.8803545  66.7582067  13.5837772
  64.4323038  17.4372942  17.5515011  63.5889389  17.1320374  17.2171619
  64.5062392  18.3359368  17.2302463  17.0929956  36.3773775  26.7334580
  17.3916876  36.9858932  27.4092698  16.1845601  36.6298342  26.5684080
  19.4998074  45.5209017  62.6183462  18.8976121  45.7378054  61.9066238
  19.2880607  44.6149874  62.8435421  14.1304064  33.5871005  58.4966183
  13.2379413  33.2424712  58.4654999  14.1605484  34.1014361  59.3033314
  20.4724803  62.3168429   7.5713756  21.3327410  61.8982812   7.5399330
  20.6311407  63.1585701   7.9986408  86.0742996  80.2244949  35.4922533
  86.0336588  81.1035252  35.1155710  86.2215737  79.6489000  34.7417688
  65.1248168  14.8193581  22.4408367  64.8280343  15.6460745  22.0604541
  64.7458821  14.8104317  23.3197906  91.2409251  27.6347811  39.3940857
  90.6824320  27.1320136  39.9870041  90.6280558  28.1169064  38.8389518
  15.1915122  16.7151339  12.1682193  14.8271085  16.3973744  12.9943397
  14.4258357  16.9079144  11.6271141  59.2032925  18.2263882  22.0581653
  58.9497774  19.1491206  22.0810440  58.3731621  17.7504714  22.0332077
  27.3888087  63.3098412  57.9165268  27.9869032  63.8036251  57.3555517
  26.8974733  63.9801550  58.3913898  88.2018248  68.3552265  69.5855761
  88.8883033  68.9728355  69.8376417  87.6353056  68.8539696  68.9968967
   8.3651638  64.3724155  43.4378576   7.7832699  63.9974928  42.7767467
   8.4830707  65.2822590  43.1648779  17.7989924  17.6669085  60.6404734
  18.4743464  17.1377504  61.0648823  17.9684973  18.5591006  60.9429550
  88.7857201  27.6668310  55.3593063  88.6131490  26.7258263  55.3282833
  89.3846483  27.7762771  56.0979128  19.8459089  79.3897295  40.6410265
  19.5260727  79.3031168  39.7430086  19.3007767  78.7884331  41.1484718
   1.8642576  85.1702690  64.4861650   2.4439813  85.6642246  65.0659609
   2.4552414  84.6398640  63.9517164  13.0662632  43.0428934  38.6727047
  12.8447115  42.1872950  39.0402579  12.2914910  43.2958269  38.1707239
  72.6490644  50.6755114  66.0769510  73.4953300  50.2599335  66.2423754
  72.7222840  51.5385151  66.4844990  25.2438354  29.0253377  73.4866667
  25.0605893  28.2056332  73.0276012  24.4016290  29.4795609  73.5111952
  85.3404543  41.1474371  64.0851021  86.1069605  40.5786085  64.1567516
  85.0740037  41.0759783  63.1685162  26.3695717  64.6077824  55.4423094
  26.0485482  65.5029726  55.5509806  26.1350799  64.3766975  54.5435047
  17.0960546  59.5235252  56.1490631  16.4233494  59.4223213  55.4756737
  17.6611459  58.7586737  56.0399532  51.6235539   0.3026556  66.0766745
  52.5671526   0.4623293  66.0956287  51.3274332   0.7132315  65.2642870
  69.7286764  50.9554911  44.6667910  70.3574959  50.9913349  43.9460087
  70.1970331  50.5074930  45.3711843  10.7753587  40.9562731  53.1386852
  10.0746393  41.2162161  52.5406456  10.3567064  40.3487539  53.7485075
  60.1863347  49.3279488  17.6427295  60.3369077  48.5368283  18.1601265
  59.2916285  49.2336781  17.3158577  34.5955205  68.7254238  64.0786266
  33.8558531  68.6801910  64.6845007  34.9706459  67.8449011  64.0924597
  20.6309199  60.9729910  62.0085526  21.5269947  60.8765268  62.3310089
  20.1071453  60.4190493  62.5873804  54.5429707  82.0224762  61.6964817
  53.7890291  82.3958492  61.2399817  54.8073196  81.2792873  61.1542416
  21.5024044   2.0024664  23.7456825  20.7786943   2.6278336  23.7083652
  22.0604373   2.3239167  24.4538524  25.7050705  48.4041309  59.7367382
  24.7884870  48.4045744  60.0126123  25.9172463  49.3287563  59.6091557
  88.0799288  72.7779245  53.9447784  87.3879493  73.4099436  53.7499714
  88.7001014  72.8713083  53.2216597  55.5527025  15.9605439  15.4317119
  56.3564437  16.3115199  15.0482490  55.3829413  15.1576931  14.9389293
  12.1104264  55.8259392  44.1571426  12.8513718  56.0325480  44.7268295
  11.9124413  54.9084663  44.3449545  58.4028482  81.0394382  50.9606266
  59.3203926  81.1779976  50.7257938  58.0931759  81.9022751  51.2360477
  73.3987575  31.7985041  20.1855972  72.7225642  32.4039443  19.8815658
  73.5379284  31.2047751  19.4477966  54.0470409  84.3130112  73.1951237
  54.7986603  83.9129829  73.6324787  53.9935398  83.8634968  72.3517323
  47.4046883  68.5892733   6.8369606  46.4592775  68.7352093   6.8706253
  47.7227363  68.8816555   7.6911285   7.3003384  12.7363657  42.2768402
   6.3741251  12.4962019  42.2507381   7.6089498  12.4089502  43.1217051
  75.2275985  13.0983050  23.7685707  75.7108264  12.3517640  23.4144619
  75.8709185  13.5715182  24.2962482   3.5269190  26.8371565   3.8638904
   3.0377318  26.4484723   3.1387308   4.2320682  27.3276169   3.4414652
  49.5645361   5.2099545  29.0130546  50.3357964   5.1286108  29.5741012
  49.7720032   5.9357245  28.4244468  30.4918814  53.3742857  62.0518017
  30.8773327  52.5557756  62.3643684  31.1848998  54.0245247  62.1664715
  17.2255393  56.9299646  28.7650325  17.2222361  56.1768015  29.3557575
  17.8087887  57.5617238  29.1856601  69.8645210  82.3712635  57.5990438
  69.9660540  81.5764809  57.0753717  69.2683840  82.1189785  58.3041668
  62.6686481  43.6691315  18.2632663  61.7646063  43.8148148  18.5420444
  62.5948872  43.0916054  17.5034931  52.4531453  20.3073056  19.6168258
  52.3834335  19.4962580  19.1132667  51.6513883  20.7874520  19.4097641
  20.9547564   0.2100061  72.3720503  21.6774579  -0.3517271  72.0920610
  21.0109469   0.9754919  71.8001223  65.7268163   7.9878123   0.1971653
  66.1947232   7.6093562  -0.5471918  66.3845526   8.0433829   0.8903625
  85.4576414  21.9389994  20.8646705  85.5679648  22.1833594  21.7835548
  84.7610729  22.5130780  20.5461433  85.1373403  34.1998465  14.6523025
  85.6285231  34.5213206  13.8962486  85.5420583  33.3577521  14.8604038
  18.7497903  35.5871518  18.9454105  18.1102087  35.2512343  19.5733574
  19.2003395  34.8070414  18.6218860  30.2358270  71.7840815  65.1602507
  29.5481586  71.8551636  64.4982147  29.7721934  71.8492603  65.9951305
   8.9145243  49.1652203  31.4630604   9.8058379  49.5100451  31.4093018
   8.7271988  48.8468981  30.5799913  26.5300911  78.5740765  11.9736889
  27.1072566  78.8700612  11.2697628  26.5681502  77.6186856  11.9288566
  82.9404414  71.6447099   1.8516805  83.4762323  71.8023761   2.6290491
  82.2519267  71.0512575   2.1516731   9.5095807  78.4605742  35.8517385
  10.3046036  78.9158583  36.1290193   9.4282126  77.7275229  36.4618587
  30.3312541  20.7571251  16.5579727  30.9796859  21.4307387  16.3529995
  30.5611087  20.4638131  17.4396637  75.4601674  23.0919392  -0.1998160
  76.3213079  23.3314736   0.1426628  74.8618286  23.2383616   0.5328348
  25.3427482  44.8047686  69.8407030  24.6848559  45.3622580  70.2561760
  26.0019636  44.6648645  70.5204773   3.6268932  47.2516298  58.7152290
   3.0110133  47.2307920  57.9827785   4.2895946  47.8905392  58.4528255
   8.9192867  66.2501383  71.2657499   8.9959198  65.4850292  70.6956959
   9.8179996  66.5631151  71.3686705  33.0426836  75.5750370  35.4087734
  32.4793673  75.6227779  34.6363568  33.7603855  74.9985218  35.1465392
  72.9212448   6.0562872  48.0160093  73.1754323   6.6503977  48.7221575
  72.0841524   5.6898188  48.3009911  75.8184307   8.3750517   0.2473238
  75.8214169   8.6572392  -0.6673310  75.3761964   9.0834649   0.7150915
  14.1761863  37.8950024  74.0401697  13.4188688  38.2771754  73.5967207
  13.9664638  37.9605389  74.9718094  79.8837689  49.1718864  20.5885458
  80.1611117  49.2554855  21.5008640  80.0661222  48.2590771  20.3654623
  72.1131059   5.8183264  71.5809679  72.7609607   5.1188635  71.6662979
  71.4577314   5.4656385  70.9790373  51.2995669   9.9667810  56.2509632
  51.8379065  10.7547735  56.3250303  51.3518139   9.5589041  57.1153355
  77.1895186  71.3610792  53.6911869  78.1000046  71.6499853  53.6297131
  76.6772131  72.1662092  53.6167526  69.9206897  65.3815826  21.5334346
  69.5746776  66.1991843  21.8912532  69.4745799  64.6952446  22.0295742
  90.2481861  41.9363308  60.0614214  90.2522202  42.4253225  59.2385578
  89.5589168  42.3489714  60.5818701  25.2392483  49.6934986  71.2987757
  24.8827910  49.8509693  72.1730566  24.4866920  49.7815800  70.7138538
  63.6733096  37.2560437  17.7821186  63.1609835  37.8317196  18.3498790
  64.2452075  36.7760355  18.3810833  74.4135611  14.5180542   3.2616832
  73.7967985  14.8518736   3.9131429  73.8983958  13.9066870   2.7353122
  11.7492604  56.6813707  38.6430979  11.9528103  57.0961523  39.4814038
  10.8195341  56.8628311  38.5055780  24.1456510  23.5149558   9.0365436
  24.9513914  23.0184061   8.8935211  23.8373472  23.2287390   9.8963478
  85.9425680  55.6997871  42.2198963  86.8810029  55.5731773  42.0801020
  85.8173702  56.6469717  42.1615744  20.9889572  39.9473507  30.9935215
  20.0338929  39.9813015  31.0476234  21.1702435  39.7627671  30.0719478
  85.1481304  56.3150501  70.8713102  85.7229749  56.4642906  71.6219854
  85.5871937  55.6311131  70.3656530  27.9480379  20.4843075  10.6570461
  28.5812657  19.8450692  10.9835842  27.1848696  19.9614222  10.4112842
  80.9163778  16.7831166  36.6313198  80.8606832  15.8561690  36.8634727
  81.6232007  17.1250851  37.1787574  31.5549992  60.2148279   9.2965534
  30.7876777  59.9319848   9.7939899  32.1460861  60.5798920   9.9550178
  88.3644450  81.0665989  65.6707335  88.2393131  80.2769470  65.1443958
  88.8655712  81.6543579  65.1053715  25.3420211   6.1281235  17.3803165
  24.7078992   6.5625079  16.8098476  25.3521921   5.2196104  17.0790985
  15.4720116  60.9287930  41.3729811  16.1708391  60.9487438  40.7191658
  15.8748591  61.2845230  42.1650648  62.4787924  21.6600258  21.4472034
  62.1728276  22.2036440  20.7211807  63.1508056  21.0991652  21.0598209
   1.9521919  83.9829826  72.8184032   1.9476654  83.2373238  73.4185791
   2.2107413  84.7268295  73.3625269   7.6934475  69.7364473  51.1839628
   8.0691564  68.8673353  51.0435343   6.9229966  69.5789909  51.7297173
  33.0523699  42.8191979   7.7537754  33.3557265  42.5134308   8.6085918
  33.8421052  43.1445534   7.3216942  36.6581297  85.6169415  68.4481859
  37.1618009  86.2993622  68.8918591  36.7124128  84.8608875  69.0327120
  45.9714358  23.7639363  15.7363250  45.6687599  24.6218235  15.4385784
  45.4001718  23.1397994  15.2887275  64.2351481  74.4899734  13.2138851
  64.0508672  75.3636177  12.8688934  65.1625010  74.5162424  13.4495952
  20.8488441  47.8904486  39.2033625  20.9615183  46.9575739  39.3858004
  21.7239642  48.2629824  39.3111444  16.1573554  48.8151772   5.2614191
  16.8903972  49.2685158   5.6777885  15.3875781  49.3281014   5.5075767
  23.1463385  26.7569900  58.2367134  22.8833389  26.4439464  57.3712254
  23.1939435  25.9657764  58.7733221  81.2426703  17.5989087   5.2995565
  81.3487022  17.7964814   6.2301281  81.0572331  18.4461005   4.8944500
  11.6852462  74.4127655  66.2612724  11.1284757  74.7900915  65.5801964
  11.6531026  75.0483465  66.9762802  30.1969243  27.8015358   2.5636556
  30.0674249  28.5825188   2.0255830  29.9026157  27.0779974   2.0103910
  78.4506933  52.1373844  60.9463453  78.7317542  52.8613806  60.3868151
  77.6209716  51.8489504  60.5660820  12.7104926  51.5451384  51.3604021
  12.3603070  52.3903799  51.0790443  13.5290861  51.7616367  51.8067980
  70.3546535  36.1007197   9.0528133  71.2118929  35.9812005   9.4615772
  70.3177314  35.4281504   8.3727291  46.9729778  24.2502474  60.5019283
  47.8465911  24.5703482  60.7267952  46.6152760  24.9198317  59.9188900
  65.2578132  21.5677912   6.1090877  64.4660672  21.8049366   5.6262424
  65.8791559  22.2678502   5.9088733  74.8953251  43.2456827  44.6106863
  74.4927207  42.6649427  45.2563477  75.2674667  43.9590073  45.1292515
  81.6380880  51.7601633  54.7445440  82.3738215  51.1500835  54.7968340
  81.1211184  51.4488173  54.0015507  16.3732922  38.3744979  54.6726513
  16.4275205  38.6544347  55.5863953  15.8248532  39.0363836  54.2515182
  39.8970595  37.3622950  25.1924827  39.2497780  37.9532643  24.8077610
  39.5540782  37.1662941  26.0643699  66.4431325  44.4600248  70.0163460
  67.1012322  44.9352407  70.5236006  66.6276876  43.5369253  70.1897335
  16.0151732  62.7074909  72.1220398  15.6025660  61.8946123  71.8301344
  16.5624189  62.9766798  71.3842773  20.6764986  13.2241614   0.5202701
  21.3255073  12.9300101  -0.1188633  19.9590780  12.5956233   0.4397371
  27.1407771  83.3731842  46.0293579  28.0864692  83.4627533  46.1471510
  27.0311141  83.2014179  45.0941038  82.5848112  69.8187208  63.0631351
  81.7385141  69.5792246  62.6854420  82.3663846  70.4036570  63.7886524
  90.0729617  46.7196321  25.1080656  90.8303204  46.9608402  25.6414127
  89.3247039  46.8159485  25.6971884  67.2031861   3.1565602   3.3109930
  66.7560064   2.4784548   2.8045967  68.1218403   3.0817111   3.0527189
  35.7265306  80.4418182  19.3621838  35.2835798  80.5695248  18.5233045
  35.0350165  80.1498985  19.9561739  14.8567760  63.0843639  45.5035114
  15.6226289  63.5508537  45.1687145  14.2834437  62.9883814  44.7430468
  57.9525324  68.3822950   1.8580511  57.9347011  69.1679820   1.3116052
  57.0735833  68.0125316   1.7746332  11.7572892  61.8167257  68.0379248
  11.4248979  62.3735571  67.3338795  12.5283313  62.2796583  68.3656740
  52.2834512   2.0304274  71.7610979  51.4534804   1.7269682  71.3932800
  52.9194137   1.3650488  71.4983225   9.5767409  61.6156006  51.9483566
  10.2921009  61.6892004  52.5800800   9.6558505  60.7278395  51.5992880
  38.9145198  69.4976886  25.3287628  38.4495398  69.7042068  26.1395481
  38.8607087  70.3007086  24.8105934   5.3137661   3.6943419  28.6552265
   5.2320649   2.9268820  28.0890396   4.4258238   4.0477021  28.7092998
  50.8839580  84.6058329  13.8196685  50.2447959  85.0922259  13.2989719
  51.3265320  85.2749880  14.3417671  42.5195735  21.5982802   7.0834758
  42.2575026  20.9215672   6.4592865  42.7504556  22.3504574   6.5383556
  87.6561198  68.5496378  41.1545992  88.4383411  69.0668154  41.3466644
  87.7342338  67.7792358  41.7172813  36.5515971  74.3385077  52.3191214
  37.4816871  74.3096256  52.0947838  36.4842796  73.8302135  53.1274176
  87.4665683   1.2760718  25.6943348  87.0852893   0.3984482  25.6692436
  87.6059549   1.4501317  26.6251972  75.2336936  31.5633614   8.4122589
  75.6419533  32.0218308   7.6778438  74.7596233  30.8369906   8.0074527
  45.0063857   3.4158491  47.7107763  45.4962441   4.2084765  47.9299116
  44.0965196   3.7063669  47.6477051  85.4538665  53.8927412  31.0245824
  86.0057852  53.9930439  30.2489805  86.0602561  53.9678192  31.7613888
  50.1876163  68.1312513  63.8991356  49.6329689  68.4653997  63.1941891
  49.6315002  67.5078440  64.3663979  46.7246437  62.9133701  33.0344081
  46.2364912  63.4632397  33.6472559  47.6394129  63.1632328  33.1647754
  38.8968253  75.5605078  43.5481310  38.3769035  76.3255644  43.7943029
  39.5044518  75.4390240  44.2776918  23.1234815   6.8002581  65.7352924
  22.9272297   7.5456118  65.1676989  23.8644418   6.3659548  65.3126955
  47.0878836   6.9509386  63.6700439  47.8578850   6.4589952  63.9551973
  46.4005324   6.2905191  63.5827398  74.8621198   6.1643385  53.1010342
  75.3452369   5.4911589  53.5802603  75.3298780   6.9771456  53.2928371
  48.1378433  17.2891115  72.3089075  47.1859237  17.3856710  72.2813416
  48.2839414  16.3439344  72.2699881  71.1930721  68.0361493  30.2729919
  71.2720113  67.6078255  29.4206169  71.9432264  68.6293347  30.3133514
  91.0631336  85.4576111  48.0982542  91.0700608  85.4736614  47.1412134
  90.9570186  84.5328903  48.3215332  22.9658055  64.6065521  59.5668983
  22.0928383  64.9987841  59.5491219  23.0208182  64.1075516  58.7519073
   1.8904735  52.1729612  45.3170061   2.4785049  52.9045630  45.1293612
   1.0453060  52.5849295  45.4964590  26.6755700  71.5126562  36.4187217
  26.6074324  70.5783176  36.2222552  25.8873224  71.8963194  36.0344076
   6.2292379  36.1686563  61.1340666   5.5311036  36.7311788  60.7987881
   5.7731324  35.4023814  61.4819527  21.0961103  38.8142848  65.3294849
  20.8021665  38.3405828  66.1075830  21.9401956  39.1886759  65.5816412
  32.0637774  63.4959364  65.8990192  31.5173411  64.2117357  66.2234688
  32.7918911  63.4505987  66.5187216  56.9134944   5.2066214   6.2837722
  55.9815692   5.1184208   6.4837005  56.9715159   6.0057147   5.7600238
  12.4237740  69.4195223  54.1258812  13.3002508  69.7605085  54.3040562
  12.0200872  69.3335342  54.9895191  34.7037174  13.7664635   9.3867328
  34.5084335  13.5139496  10.2891376  35.5609800  14.1893656   9.4365337
   4.4054407  64.4265175  67.7126265   4.2492175  63.9847469  66.8779659
   5.3584099  64.4919014  67.7743292  19.9126995  69.5188665  51.7511797
  19.3226957  68.7976170  51.9701004  20.4909301  69.5941305  52.5102663
  74.5721989   5.8215697   0.9188965  74.5460217   5.3981621   0.0608328
  75.1650183   6.5639050   0.8016899  28.1898904  73.5668898  69.7456264
  28.3621144  74.0630722  70.5458641  27.8162956  72.7405453  70.0519085
  82.1651213  20.7750924  31.1116817  81.6760247  20.6399472  31.9233158
  82.6218503  21.6060193  31.2428024  55.5259228  80.7667065  43.6277533
  55.6238842  80.6767845  42.6798344  55.9629107  79.9950123  43.9879799
  67.8348299  32.0088648  61.9299650  67.6633378  32.9429029  62.0499182
  67.0642039  31.5749048  62.2960901  23.3475971  82.8154087  49.7572517
  24.0019894  82.6169109  50.4270267  23.8541102  82.9244709  48.9524031
   3.4862348  29.8152876  69.2347002   2.7784976  30.3579497  69.5823479
   4.1772211  30.4382396  69.0095377  51.9037097  36.6910918   2.6659801
  51.5364026  37.3310215   3.2757404  51.2209003  36.5695317   2.0062616
  41.6357708  65.4094505  49.5768642  41.2923956  66.2826824  49.3876934
  40.9057903  64.8192930  49.3895912   1.1399116  35.1891732  43.8273287
   1.4547831  35.6663394  44.5950556   1.9167477  35.0778842  43.2792664
   8.7358129  60.7884979  69.8029709   8.4789044  60.9965467  68.9046669
   8.8162339  61.6401625  70.2324295  78.5815183  72.1165562  58.2107306
  77.9695157  72.6151133  58.7521362  78.2123855  71.2338352  58.1828737
  63.8083124  79.4444799  50.7196617  64.3197870  79.3113661  51.5177250
  63.8673210  80.3849316  50.5514383  64.0565630  10.1007532  68.1924868
  63.7361356   9.7831606  67.3482800  64.6312853   9.4034552  68.5082483
  35.5424190  76.8523836  59.1236162  35.3632259  77.7923155  59.0981245
  34.7265267  76.4614010  59.4361639  42.3282342  58.9682229   4.5034816
  41.6863709  59.5125229   4.0474346  42.0082062  58.0734379   4.3886831
   1.5996458   6.3188155  17.9144313   2.0473744   6.8207867  17.2334030
   0.9977247   5.7491572  17.4354580  37.5639694  47.1227581   1.8991497
  37.2438448  46.2254841   1.9921472  37.0509546  47.4864991   1.1775234
   0.4482297  66.9685793  49.5776606   0.3076412  66.8145609  48.6434507
  -0.2899027  66.5347624  50.0056696  90.9883114  57.9851151  65.1549435
  90.6737776  57.2988176  64.5664692  91.3720654  57.5108433  65.8925247
  82.8058682  67.3983002  69.5599556  83.4878150  67.3427486  70.2293539
  82.8326104  68.3087826  69.2657757  63.2938194  67.4634838  41.0508823
  64.1241169  66.9972086  40.9537792  63.0235147  67.6606131  40.1540518
  70.2859431  21.5882571  32.8292301  70.7728504  21.9064076  33.5894516
  70.9274011  21.0855229  32.3272159  44.6766853  68.5107613  67.3717546
  44.8061371  67.5861788  67.5830126  45.4193544  68.7345457  66.8108702
  36.3925266  64.6546698  67.1555853  36.2798548  65.5642891  67.4315119
  37.2908115  64.4381094  67.4054193  84.2913168  31.2422068   0.3750303
  83.4039085  31.5562613   0.5485466  84.8605864  31.9013722   0.7721021
  81.9024853  78.3857536  67.0892143  81.9720242  78.8666391  67.9139233
  80.9636108  78.2366705  66.9773245  29.1481018  70.5795908  56.9123220
  29.5980525  70.3778887  57.7327442  29.6232700  71.3306856  56.5569353
  63.3232453   1.6497023   7.8505447  63.5514667   0.9264357   7.2665718
  64.1387229   1.8546994   8.3079364  25.6344034  28.4926159  22.2965839
  25.4455615  28.5930521  23.2295730  24.7911598  28.2656224  21.9046142
  20.5821967  71.5667868  59.9092770  20.5416298  71.1051655  59.0717268
  20.9704828  72.4154186  59.6964693  26.9272256  46.6262388  68.5482979
  26.4586973  47.4516726  68.4243107  26.3161993  46.0751152  69.0373230
  18.5210776  76.4386225  68.8836622  17.7452385  75.9089804  69.0674591
  19.2577040  75.8517933  69.0546751   4.2771128  61.1136150  61.7738676
   4.1868585  61.0003901  62.7200556   3.3837840  61.0414839  61.4377260
  33.8955593  72.9285669  42.9967499  32.9408169  72.9123449  42.9301500
  34.1309023  73.8434839  42.8425646  75.5228969   1.7045378  66.2103128
  74.8221465   1.2874197  66.7115068  75.1159641   2.4844717  65.8330250
  65.5953475  40.0365479  18.8106754  66.4932882  40.2814515  19.0341785
  65.5479836  39.0997918  19.0016487  68.5540530  18.8669085  61.6607475
  68.9279124  18.0446791  61.3438797  67.9712912  19.1519903  60.9569359
  10.0031769  75.6598806  64.4602013  10.2880907  76.5500021  64.6669340
  10.1810396  75.5626631  63.5247087  87.4257386  64.3516254  72.0536375
  88.1875316  63.8233662  71.8152189  87.7565158  64.9675417  72.7074480
  40.0188621   6.8765520  39.0016580  40.6583997   7.0267653  38.3054805
  40.2309325   7.5311731  39.6670318  10.9466554  60.0768692  10.8595493
  10.8954383  59.1840298  11.2007835  10.4764224  60.6066544  11.5033176
  10.5536807  69.3278790  34.7359776  10.7750368  69.7385311  35.5718017
  11.3980162  69.1848850  34.3083310  28.1443525   9.1534113  50.5459309
  27.7945843   9.3948053  51.4036179  29.0415178   9.4870352  50.5506039
   0.7999906  80.0027084  46.6393948   0.8582538  80.5245876  45.8390951
   1.6180606  80.1825523  47.1026993  63.0679119   8.6585600  14.9228504
  63.8403921   9.0575011  15.3232887  63.3283805   8.4881051  14.0176799
  74.3978029  35.0515301   2.5954416  74.9343841  34.8015482   3.3476570
  75.0166517  35.4440434   1.9796541  26.2719655  65.2330160  64.3422461
  25.5760884  65.2462244  63.6851215  26.5614700  66.1433697  64.4028473
  70.3800069  48.7460072  11.0798671  70.0832664  49.5757515  10.7061031
  70.7953875  48.2888634  10.3486278  28.9790654  32.7946854  59.7331762
  28.5238910  31.9739819  59.9215698  29.0375066  32.8223944  58.7781668
  41.8837505  38.1246979  13.5437992  42.0035713  37.4949295  14.2546299
  42.7674811  38.4361680  13.3482578  20.6535384  70.2218612   9.5875766
  20.4016611  70.3375205  10.5037716  20.4154118  71.0483583   9.1675403
  45.4081821  72.4257898  67.9758167  44.8876810  73.0987072  68.4145594
  44.7627687  71.8736506  67.5344324  57.4533987  73.8079453  58.9422274
  57.2123957  72.8815889  58.9451838  56.6175747  74.2727566  58.9025450
  19.3745434  84.6183205  66.8344069  19.8960161  85.3428459  66.4889240
  18.4760368  84.9483490  66.8339014  11.7803766  13.6007578  10.7241657
  12.5071098  14.0523512  11.1533001  10.9977628  14.0524800  11.0399177
  86.1564963  35.0886900  12.2962120  86.8036502  35.6367190  11.8522670
  85.7208841  34.6122534  11.5894725  39.4365573  77.4511814  47.9534197
  39.8669648  76.8686867  47.3275757  38.7655377  76.9066572  48.3650732
  25.1474953  78.3425570  71.1952114  25.2800584  77.7548122  70.4514265
  25.3373528  79.2142963  70.8484268  54.8702165   1.6362547  61.8061352
  53.9151188   1.6215776  61.8678427  55.0707766   1.0705160  61.0605192
  21.8065190  66.5346289  43.2686520  22.4507308  67.1982431  43.5153103
  20.9842467  67.0177650  43.1869221  48.7924668  78.0452641   1.7760208
  48.2052430  78.7776645   1.9630745  49.4073590  78.3905490   1.1287811
  27.1675205  82.8991508  35.3114629  26.2272954  82.8941631  35.4908538
  27.3168993  82.1076012  34.7943878  90.6626528  26.3862784  17.6386192
  89.7827380  26.0244305  17.5335243  91.2381666  25.7384808  17.2319534
   5.0510003  60.1503499   5.5942276   5.8527519  60.5758316   5.8981922
   4.4992043  60.8700592   5.2880027  24.3495440  77.3144436  47.1197033
  24.0744781  76.4252090  47.3429346  23.8044453  77.8785706  47.6682091
  38.5749722  81.1346626  63.8594103  39.3444395  80.8131504  63.3895397
  38.8557315  81.9684029  64.2366171  83.9970463  25.0461276   4.9314478
  83.3809464  25.3460867   4.2631080  84.5999139  24.4707949   4.4605186
  41.9768902  28.7006258  64.6705770  42.7668663  28.2657789  64.3495131
  41.2657675  28.0992960  64.4493675  31.1477304  74.4583845  54.2495394
  31.5037751  75.3463888  54.2194462  30.3772116  74.5282459  54.8131418
  42.7685739  46.5987999  22.9892376  42.5936271  47.3781426  23.5167339
  43.0051519  46.9411786  22.1272400  19.4847490  47.7192337   9.7748687
  20.0985624  46.9859536   9.7328880  19.9110557  48.4172089   9.2775657
  76.9309418  72.3235829  27.6376465  76.3537996  72.7791054  27.0247486
  77.4913066  71.7821915  27.0816639  32.8059340  81.8168354  29.4255209
  33.2748699  81.2000465  29.9875641  33.3832240  82.5784683  29.3717861
  56.8634154  25.6165631   0.0669935  56.9481062  26.3358815  -0.5588171
  56.4159851  26.0047038   0.8189180  71.4194945  85.5109119  42.9607916
  71.5889839  85.3373241  42.0348454  72.1366564  86.0838127  43.2322550
  24.4826272  84.9679621   6.3450458  25.0827601  85.4034337   5.7397106
  24.7748586  85.2456149   7.2132328   1.1471130  32.9592402   0.6428507
   1.1428071  32.7271159  -0.2857659   1.5903093  32.2266610   1.0708025
  63.4024610   8.9595683   9.5575836  64.3230858   8.8478167   9.3205288
  63.1208650   9.7317870   9.0670612  88.9851802  74.0705967  42.3834038
  89.7983881  74.0192175  41.8811226  89.2453245  74.4516945  43.2220459
  67.7317004  34.0570481  14.5734241  67.2953331  34.1864045  13.7313488
  67.0206021  34.0570624  15.2141788  55.3509521  17.3176510  33.4081867
  54.8917555  16.4826424  33.3180168  56.2789928  17.0849593  33.3794429
  89.6109622  70.8251793  33.6889103  89.7590940  71.1491616  34.5773437
  90.2071326  71.3389809  33.1440952  18.9462423  30.4105783  27.8394389
  18.8495970  29.5765448  28.2990932  19.5403779  30.9202266  28.3903408
  81.3564066  69.9536800  72.0020676  80.4288927  69.7358370  71.9098949
  81.7769030  69.1224957  72.2224045  33.3420110  72.0204926  60.5016088
  32.6955223  71.4215660  60.8752012  33.6097026  72.5726032  61.2362814
  59.6583111  35.9424765   6.3013961  59.9952609  36.6356785   5.7337883
  59.7868375  35.1379139   5.7990101   0.4870893  52.2997696   6.6312530
   0.0471760  52.6384003   5.8514812  -0.1127552  51.6385586   6.9765213
  11.8269348  60.6921387  25.6328058  11.1674261  61.3780546  25.5288744
  12.0023155  60.3914213  24.7411561  27.6748157  45.1114607  63.7067080
  28.1433058  45.2672052  64.5267677  28.2862425  45.3899908  63.0249405
  79.7273450  17.9981167  12.1721103  80.6785648  17.8951199  12.2004726
  79.5262163  18.5704310  12.9125335  70.6084668  14.8676426  10.8034733
  70.4062515  14.2312701  10.1176384  71.4410036  15.2548726  10.5329731
  37.4905753  52.4736500  63.9337063  37.6513577  53.3079720  64.3744850
  38.2689834  52.3337221  63.3945084  88.3034009  42.5966549  64.2567968
  89.2405564  42.4419355  64.3752575  87.9223082  41.7209387  64.1925812
  17.1312082  85.3771400  69.7655678  17.0329630  85.8154392  68.9203024
  16.7148209  84.5240307  69.6428299  18.2594776  51.6753531  52.4105072
  18.9077258  50.9751034  52.4857235  17.8761351  51.7418146  53.2850695
  32.6817775  75.8392954  63.6441851  33.5523343  75.9684420  64.0205908
  32.3407650  75.0638533  64.0898609  22.7504398  64.8317845   7.0890930
  23.0766679  64.1811306   7.7107456  23.1944753  64.6218140   6.2675216
   3.4905651  54.6600914  56.8795586   3.0091441  54.8460007  57.6857233
   2.8242660  54.3411398  56.2708282   0.6972457  32.7884991   4.6575143
   1.0496642  33.5561306   4.2072084   0.6502153  33.0507500   5.5768898
  73.1099885  21.9732697  12.9478004  72.2589760  21.5583117  13.0885818
  73.4235256  22.1813376  13.8279369  28.2869625  72.2531414  63.5014105
  27.4311996  72.6520634  63.6587667  28.4192681  72.3348141  62.5569248
  18.3813918  63.4898615  45.5521631  18.8148427  63.2402563  46.3682842
  17.8788257  64.2727041  45.7775927  26.1185339  18.1358789  49.0463066
  25.7364341  17.3735308  48.6114836  25.4058286  18.4907507  49.5776653
  59.4190685  79.8510075  71.3243818  59.4875780  79.4906235  72.2084951
  58.5572330  79.5697403  71.0172033  34.2762780  81.3034344  69.4263792
  34.9773049  81.7236900  69.9245548  33.4988666  81.8281651  69.6174860
  43.7932895   1.1375529   7.2968509  43.7928603   0.2139002   7.0456722
  43.2335494   1.1751276   8.0724170  54.3285715  55.6654866   2.1088579
  54.3643903  55.3240044   1.2153604  53.3941059  55.7696755   2.2881677
  88.8496988  37.6547177  17.4914768  89.6623366  38.1393845  17.6362064
  88.4221070  37.6429207  18.3477810  18.5662366  25.0360234  13.1570079
  19.4243146  25.4319699  13.0048206  18.3297683  25.3100569  14.0431335
  72.8672450  44.1240342   3.9285400  72.7476042  43.6254914   3.1202200
  73.8117318  44.1067059   4.0830543  44.4812870  69.3410158  61.1222315
  44.4332552  70.2965307  61.0919666  44.0688038  69.1066790  61.9535971
  12.2879316  33.0786068  20.7815960  12.9092933  33.2486374  21.4895656
  11.8435766  33.9156229  20.6467464  67.6272707  19.4909651  18.5427883
  68.0720507  18.6681349  18.7461307  67.3385887  19.8235686  19.3926552
  87.4782535   8.8118147  48.6050415  87.8374120   9.2566847  47.8373623
  87.7253744   9.3696665  49.3425751  77.7647821  72.9813385  49.4795895
  78.6492733  73.3135223  49.6330738  77.4505869  73.4771252  48.7234735
  62.4126545  13.7923701  11.1639335  62.4902553  12.9423649  11.5971782
  63.2773887  13.9473088  10.7838466  55.8206477  74.2857583  23.5711792
  56.6634597  74.6845944  23.3547714  55.9247284  73.9798768  24.4722011
   9.8037244  35.1551135  20.8132770  10.3134157  35.6357987  21.4654949
   9.6659233  35.7846291  20.1054981  52.1268770  73.4890231  26.0566929
  51.4450237  73.1494649  26.6363552  51.6492697  73.9722713  25.3824546
  25.6779456  85.7930183  47.7896404  25.2625155  84.9932575  48.1121969
  25.0104070  86.2052822  47.2413158  49.0259700  37.7211602   7.2728660
  49.7809463  37.2210247   6.9628551  49.3225806  38.6312134   7.2665527
   8.0771138  51.2303288  13.4681633   9.0138842  51.2263520  13.2714966
   8.0159165  50.8626778  14.3498256  24.0192166  -0.0000406  46.3430929
  24.9622711   0.0726389  46.1961317  23.8611093   0.5071520  47.1393299
  61.0858604   5.5593466  67.1266794  60.8562585   4.9358248  67.8156948
  61.8055030   5.1403975  66.6546345  80.5151905  -0.0143045   3.4171560
  79.7448458   0.5510050   3.3603885  81.0749973   0.4083926   4.0684440
  39.7447181  70.5057049  38.9032269  40.3515768  71.2433052  38.8407564
  39.7147298  70.2986670  39.8372865  76.1244270  13.5065340  66.8109703
  76.1706516  13.1148600  65.9387970  76.6223737  14.3204474  66.7347097
  18.6423874  75.6220913  49.6582842  18.2787049  74.8608875  50.1105404
  17.9229736  76.2530661  49.6348429  79.5866864  26.6333325   0.3053215
  80.0835042  27.3831017   0.6328085  80.2087336  26.1546786  -0.2425692
  58.2632705  36.0463698   1.4472559  57.9122864  35.3792889   2.0372083
  57.5517487  36.2191708   0.8307245  27.9520273  27.0646238  64.3801785
  27.9226351  27.8564858  63.8432217  27.5477695  27.3219681  65.2087784
  44.6711063  78.0340862  71.3919163  43.7768888  78.1313324  71.7192554
  44.5904160  77.4363136  70.6486893  12.5529969  73.5517740  28.6983466
  13.2279813  73.4992027  28.0216885  12.1297729  74.3972921  28.5492873
  88.1756227  13.2596953   5.2890327  88.8413828  13.5572131   4.6689727
  87.8763979  14.0595992   5.7212951  67.7310848  76.2862062  55.6372166
  67.7465820  76.0622835  54.7067070  67.1910810  75.6053019  56.0384607
  74.0703098  77.2605991  63.1249332  73.9051679  77.6686764  63.9748955
  73.4734682  76.5127373  63.0983019  75.3428010  42.4128485  24.4975281
  74.4922558  41.9776821  24.4389296  75.9786657  41.7218542  24.3119669
  11.8796122  85.8587742  57.9947853  11.7936707  86.5064812  58.6943007
  11.6509140  85.0268269  58.4092712  80.8321163  26.4007925  59.7926235
  80.9364721  25.5388807  60.1956654  81.4728424  26.4118647  59.0815830
   3.8189280  73.5440159  42.3085976   3.6576188  74.2577839  42.9256392
   3.5439178  73.8934374  41.4609528  47.9907545  26.8517088  62.1457148
  47.7269646  26.8506884  61.2255812  48.5721692  26.0959028  62.2290277
  44.2220688  68.0181122  56.2881088  45.1002455  68.3530283  56.1068010
  43.9136362  67.6859236  55.4450464  30.4928088  62.6191998  74.5412874
  29.6351290  62.4912119  74.1360283  30.9147787  61.7618942  74.4847107
  44.4283542   7.3848604  47.1889973  44.9105569   8.1684183  46.9248867
  43.9025124   7.1574186  46.4221907  40.6465742  20.4687571  44.2219734
  41.2915942  21.1735224  44.1629314  40.0042775  20.6743979  43.5427094
  26.4870836  33.0233414   3.3198908  27.0663215  32.2676356   3.4179857
  26.5622903  33.4922392   4.1509798  15.2791440  77.1502876  70.3899670
  15.8098757  76.6626263  71.0198402  14.3778336  77.0205641  70.6849957
   9.6583807  74.2381811  55.6851816  10.4581392  73.8702583  56.0610151
   9.5075309  75.0417900  56.1828709  25.0478317  48.6499245   4.8836353
  25.7518579  48.2606633   4.3649223  24.5142032  47.9050095   5.1603582
  81.6329806  56.7686684   6.8604686  80.9308069  57.3344929   6.5395000
  81.4480226  56.6633446   7.7937057  68.2200071   9.2698740  64.8330975
  67.5401756   9.9136709  65.0320625  69.0264770   9.7824835  64.7777224
  15.1949561  80.4604816  64.9353647  15.1695836  79.5075464  65.0219584
  15.2364421  80.6141949  63.9914989  24.7449161  42.2084839   4.9898698
  24.6095754  41.4804585   5.5964019  25.5440332  41.9794781   4.5153167
  63.8505032  39.9280007   6.3492992  63.2419341  39.2712052   6.6876819
  64.3508976  39.4666512   5.6762531  19.0704824  66.5483887  23.3197239
  19.3762828  66.8713601  22.4721363  18.3690025  67.1509964  23.5667446
  42.0552398  58.1695969  24.1687229  41.5336849  58.8033612  24.6612289
  42.8267385  58.0184205  24.7147682   1.7141034  25.8775790  57.2218063
   2.3980953  25.2640660  57.4901130   1.9766642  26.7130072  57.6082733
  80.3471204  27.9269289  52.1649027  79.8441240  27.4363588  52.8149557
  80.3923580  27.3438047  51.4071703  71.6004249  27.1089720  57.6744699
  72.3614618  27.1609472  58.2527065  70.8852979  27.4885916  58.1850672
  20.0991058  40.5860472  68.7833214  19.3106067  40.9651279  68.3949947
  20.7810926  41.2391329  68.6264658  40.3942534   9.0230726  45.5178833
  40.5019900   8.9466738  46.4659309  39.5917943   9.5332693  45.4083633
  52.7267790  77.7739048  73.6199570  53.3889055  77.8432178  74.3077183
  53.1676149  78.0881166  72.8305483  45.5646774  12.7947783  74.1678238
  45.8089610  11.9678568  74.5834637  45.3619954  12.5573420  73.2629633
  81.8353412  74.1685772  72.9666090  80.8800093  74.1265249  72.9241276
  82.1314160  73.4257841  72.4404621  30.6511307  80.8207321  38.7092590
  30.4335213  81.3238144  39.4939804  29.8941445  80.9341145  38.1344986
  68.1506368   7.9801249  56.1376429  68.8829991   8.5182642  56.4381170
  67.8061768   8.4477209  55.3767681  61.7490717  65.9369118   7.0766094
  61.1027459  66.5936024   7.3359516  61.2838871  65.1031144   7.1445587
  59.7086431  30.8994038  30.9594085  60.2667498  31.6090376  31.2774875
  60.1338082  30.1012928  31.2732341  56.1208916  86.0716152  46.4259529
  55.6199074  85.3807640  46.8595123  56.3354111  85.7086182  45.5666256
  26.7416310  83.7673283  57.6005363  26.4957523  83.4107971  56.7469168
  26.2400341  83.2492352  58.2299852  34.5515633  76.1648560  72.7923346
  34.3194270  77.0451784  73.0879259  35.0187731  76.3042116  71.9686127
  47.0551627  14.9187977   9.1028431  47.3028176  15.1069863  10.0080898
  46.9801848  13.9651616   9.0683391  86.3066884  13.6959623  70.4312181
  86.1416408  12.7751612  70.6339741  85.8632728  13.8403582  69.5952940
  74.1195684  83.4197171  10.0850418  73.5899501  83.1703694   9.3277099
  74.9784379  83.6293538   9.7181251  66.0475632  21.6833376  49.4125223
  66.2380859  20.7707953  49.1952753  66.0331079  21.7037558  50.3693962
  28.7924719  83.4715843  65.9615660  29.4171691  84.0094566  65.4750729
  28.1598902  84.0980434  66.3131571  30.3531028  44.9920018  30.8261421
  29.5111181  44.9804528  31.2812927  30.1462652  45.3116162  29.9479129
  26.4361856   6.1027533  10.4967144  26.2768529   6.4075762   9.6034458
  27.1436403   5.4639441  10.4091861  69.0608131  39.1196282  21.5075615
  70.0151383  39.1907341  21.4865806  68.7634515  39.6733601  20.7856300
  88.8507884  47.1783287  14.5257595  89.7757094  47.3601563  14.3593528
  88.3978694  47.9788907  14.2608097   8.2713224  40.6333477  15.4864528
   7.8368951  41.4247735  15.8044937   7.7528454  40.3637154  14.7283485
  60.3281931  41.1694367  17.5299766  59.3883473  41.3442929  17.4815300
  60.6530417  41.3605339  16.6500976   3.9375521  18.2185538  26.1328533
   4.7027279  18.7311633  26.3935592   4.2824222  17.5670893  25.5222061
  72.2641775   1.2454008  27.1110535  72.3237201   0.3207468  27.3512650
  73.1165143   1.6101145  27.3492622  71.1530392  73.7045891   9.2851379
  71.9430058  73.4624989   8.8018348  71.2369614  73.2510312  10.1238659
  75.3268119   8.1653666  63.9703083  75.5873462   8.8353132  63.3382320
  75.3100416   8.6228155  64.8109579  58.8147899   0.7161116  72.2047997
  59.0805360   1.5630411  71.8465757  59.6155616   0.1917433  72.1991062
  34.8782516  51.1203432  31.9179797  35.3673840  50.9714794  31.1087704
  35.5520558  51.2727928  32.5805354  25.4576446  33.4690840   7.9613331
  25.1602746  32.5723441   8.1151321  26.1403610  33.6108239   8.6170986
  69.4620906  61.4508660   6.5930870  70.3690939  61.5946515   6.3230827
  69.4215106  60.5194123   6.8098381   1.5896226  33.1911499  20.2374199
   1.0578610  32.9211171  19.4887283   1.0214855  33.7792094  20.7350567
  70.3227644  26.4956171  11.9520881  69.8761432  25.8901865  12.5438812
  69.8733001  26.3866789  11.1140278  23.0037357   6.8365557  11.4543274
  23.7618305   7.2978528  11.8131092  22.8417016   7.2610934  10.6118610
  42.1997166  69.4512224  65.9590530  42.7879906  68.9161730  66.4918709
  42.5580549  70.3365660  66.0221958  66.7762434  34.0504153  26.9771412
  67.7186065  34.1799242  27.0839622  66.6898494  33.6032898  26.1352089
  72.9979782  46.9401104  33.2370212  72.6307791  46.3076336  33.8545826
  72.4730020  47.7305062  33.3631256  85.3592747  59.1500790  25.3552940
  85.4058521  58.7596066  26.2279823  86.2354486  59.5047982  25.2045372
  80.6842157  32.2824739  56.6066456  81.4368841  32.4753355  57.1656895
  81.0431882  32.2643637  55.7194948   1.2925769  34.8933156  27.0349338
   1.3867356  34.8850424  27.9874637   1.0610177  33.9923699  26.8093136
  61.5054604   5.1178812  50.2299213  61.2349769   5.3065084  49.3313169
  60.8545109   5.5611109  50.7740259  34.2340230  12.9855227  64.7273064
  34.2056757  13.7290644  65.3294468  34.9674469  12.4542116  65.0371790
   4.9361877  26.4029955  52.2625589   4.5823460  25.7022928  51.7148018
   5.8831053  26.2638926  52.2473478  43.7853699  15.0882696  71.5336990
  43.8734322  14.1405272  71.6349268  43.3169537  15.1982664  70.7062197
  80.6469556   6.3991713  74.4172001  81.4265367   6.0013651  74.8047924
  80.1778337   5.6667589  74.0175390  17.1273805  23.7414868  10.7726028
  17.4415733  24.1563876  11.5759590  16.5819980  24.4087012  10.3559330
  71.6717407   5.2167772  60.1762342  70.7333871   5.3636526  60.0572586
  71.9874116   6.0152792  60.5992889  63.7555477   2.4431776  40.1419687
  64.0066573   3.3647512  40.2042532  64.5842716   1.9756483  40.0377560
  62.2493669   9.1029715  23.2552457  62.3090836   8.1980299  23.5614038
  61.3781687   9.1664003  22.8638077  60.2507111   2.3686098  38.6172080
  60.3160449   3.2326578  38.2105398  60.4889509   1.7572474  37.9202747
  56.2773487  17.4336981  67.2413731  56.1521527  16.5756487  66.8360186
  56.7597624  17.2497248  68.0473900  23.8604569  70.8090115  64.2578936
  23.0146551  70.9389019  64.6868181  23.6518741  70.3256416  63.4584665
  48.3855392  26.2134058  10.1991489  48.5759450  25.2965767  10.0006511
  48.1219102  26.2094958  11.1193206  10.5474842  66.0549450  58.5770988
  10.5782449  66.5406609  59.4013309  10.0161409  65.2833605  58.7734699
  14.4793035  51.4274628  20.8879306  14.2628147  50.6538708  20.3674343
  13.6311246  51.7797501  21.1575821  46.8819427  60.3879213  32.1756291
  47.8172445  60.4452419  31.9802809  46.6340446  61.2785673  32.4236727
  33.5640193  50.8655293   3.6214807  33.0637933  51.6389687   3.3610895
  34.4690753  51.1724980   3.6750629  62.0007965  29.1366457  52.1584177
  62.3077818  29.6959089  51.4448261  61.0577890  29.2958330  52.1987724
  76.2861034   2.2923063  36.9931889  76.8370124   1.5095591  36.9873834
  75.5039903   2.0383715  36.5032458  32.3224878  83.3272266  51.4135695
  33.1213379  83.4402657  50.8985043  32.6203871  82.9362106  52.2349072
  70.3280493   4.9992250  69.1117334  70.7560512   5.5645727  68.4687424
  69.9445626   4.2928385  68.5919380  32.7910948  62.8022766  61.2176704
  32.0434713  63.0563688  60.6766272  33.3310509  62.2614670  60.6413031
  81.1604587  25.3321218  51.2767410  81.9209704  25.3052449  51.8573713
  80.5539898  24.6905065  51.6465473  70.7686011  40.7673931  35.8362985
  71.7065064  40.7423830  36.0258698  70.5610672  41.6999245  35.7767344
  24.4487047  33.5695410  21.6246843  23.5844469  33.1612206  21.6752791
  25.0405526  32.8507781  21.4025855  31.5301549  32.2310325  17.4988773
  32.4776348  32.1057077  17.4458912  31.1709414  31.3437923  17.5008609
   4.5644331  21.2981510  59.5813704   5.4356247  21.5847349  59.8554611
   4.0039468  21.4807200  60.3355312  88.4809548  22.2788668  54.4949245
  88.8915094  22.0196939  53.6699963  87.5416727  22.2587895  54.3116808
  30.5072379  17.5503349  69.5825481  29.9497938  17.3880589  70.3435707
  31.2910795  17.0250392  69.7434425  45.7664308  45.8287882  20.8311203
  44.9216064  46.1561858  21.1398533  45.6366929  45.6764289  19.8950699
  86.4157593  39.3681707  20.3275325  86.6785157  40.1354115  19.8190715
  86.4859784  39.6497946  21.2396648   2.5599238  79.6060737   2.5609424
   2.3072072  80.5276926   2.5063350   1.7354270  79.1264804   2.4807480
  82.0687643  30.0774074  67.9536009  82.1676258  29.1275311  67.8888273
  81.1351780  30.2314615  67.8089762  45.7757327  54.1105672  12.9941299
  45.1767012  54.5382675  13.6060646  46.0442385  53.3087607  13.4427288
  72.1474174  46.0511208  68.8546133  71.6314570  45.4039383  69.3354177
  71.5213100  46.4612436  68.2579374  61.6340205  50.6152852   2.6978662
  61.3955804  51.5105887   2.4574306  61.0181972  50.3817399   3.3924511
  26.0757947  21.1598158  71.3748646  25.1872921  20.9194994  71.6376257
  26.0378027  21.2099290  70.4197311  80.2708224  17.7195358  43.6486959
  79.5636371  17.1740234  43.3044052  80.2033285  18.5378253  43.1566811
   4.5808414  39.9281144  50.9170437   4.0386695  39.7798610  50.1422548
   3.9538449  40.1124287  51.6164255  87.9127053  25.0093412  55.8744955
  88.7601981  24.6886706  55.5660200  87.5824562  24.3095136  56.4378834
  48.3333095  72.0882901  15.1856258  48.0730471  71.8167528  16.0658386
  48.6583480  72.9817112  15.2968910  58.1536747  83.0453748  53.7072468
  57.3358030  82.6505170  53.4049129  58.1513805  83.9231114  53.3254004
  44.3247613  81.4445909   5.8336380  45.2669903  81.3291415   5.9565571
  43.9405450  80.6244191   6.1433628  81.1541454  56.8922806  42.1421814
  81.2764165  56.2728930  41.4227104  81.4921073  56.4348269  42.9120827
  60.9614617  81.9856081  68.8673639  60.7055633  82.6449565  69.5123482
  60.1472015  81.7636431  68.4157610  34.8380333  63.0808218  17.0991924
  34.0933764  62.8519245  16.5430191  34.4479140  63.2885583  17.9482391
  16.5600812   3.2424799  44.6376324  16.5296650   2.2859806  44.6172428
  16.2997210   3.5092402  43.7559938  46.5376350  55.9825810   2.6259449
  46.2520965  55.6801804   3.4880665  47.4756571  55.7931753   2.6042583
  87.1123949  25.1074433  45.9271049  86.6795955  24.3711352  46.3592720
  86.3948817  25.6321168  45.5719662  55.1146480  69.3788775  16.9948127
  55.4514309  70.1615675  17.4309375  54.3841049  69.6961459  16.4638832
  68.0293313  24.1091299  42.1934700  68.4238974  23.2821679  41.9165564
  68.1440512  24.1229129  43.1436729  67.6580039  16.5628576  64.4237947
  67.4737350  17.4191606  64.8098278  67.7426497  16.7360198  63.4861994
  16.9258618  48.6581516  64.9181080  17.7259374  48.2774782  64.5559025
  16.2170088  48.1803703  64.4874287  31.4327741  31.1871028  58.9118862
  30.7470679  31.4870524  58.3151674  31.4843130  31.8703270  59.5802975
  84.3452585  44.1299645   9.8095539  84.4422615  44.5857679   8.9734581
  84.3873608  44.8242581  10.4671409  15.4951572   4.1039208  51.8234539
  15.5213118   3.6645803  50.9734392  15.2230394   4.9992496  51.6220331
  13.3453059  48.9531708  55.7888126  13.5141182  48.2054949  56.3621521
  12.5652349  49.3669748  56.1582565  21.3880702  53.3422275   9.9453094
  20.7982501  52.6120063  10.1327160  20.8439311  53.9756115   9.4773700
  24.9342394  39.9352503  28.0852628  24.4693518  40.3308249  28.8225770
  24.2558622  39.4690156  27.5967336  41.8247196  77.2006019  15.2366378
  41.3873061  76.7894658  14.4910743  42.6660642  76.7485174  15.2998283
  24.8801454  11.8965124  23.4164214  25.1054140  11.5759825  24.2897749
  25.7244005  12.0390104  22.9884529  18.2747424  20.5031466  57.7813911
  18.5639131  20.5371356  56.8695498  18.4192455  19.5943093  58.0447674
  64.7907265   1.9109328   1.2146118  64.0944963   1.6533692   1.8188932
  64.6128260   1.4117606   0.4174831  90.1186192  80.1902517   3.1270149
  89.9381578  79.2726263   3.3310440  89.2550957  80.5787929   2.9870393
  10.9491968  29.5027614  28.0440927  10.1710045  29.0465593  28.3642960
  11.6227818  28.8242149  27.9983854  71.0623781  30.6561017  30.7826567
  71.1379615  30.4870892  31.7217803  70.6927363  31.5372849  30.7268715
  20.3323921  61.7118510  31.1101844  20.5194130  61.7864521  30.1744011
  20.2579817  62.6170143  31.4124706  21.5405679  41.4141655  56.9482613
  21.5058804  40.4739857  56.7719269  20.8730531  41.5567827  57.6193142
  65.6236137  81.2951438  61.6445017  65.5407302  80.6968815  62.3870945
  65.5380807  82.1675206  62.0290470  88.9921213  30.7193255  60.3428888
  88.6661235  31.5479541  60.6940699  88.7099158  30.7192683  59.4282341
  26.3839817  36.0075808  35.5368352  26.2365246  35.1598620  35.9561944
  26.9565129  35.8115554  34.7952056   2.2380546  17.9383051  49.2393637
   1.9854836  18.8297105  49.4798565   1.4908685  17.6031065  48.7437963
  31.6319333  50.5646857  22.5636890  30.7826262  50.9930261  22.6706150
  32.0773527  51.0804274  21.8914917   6.7303699  34.6292090  69.4437647
   6.1078799  34.6743846  68.7180233   6.6005379  35.4481506  69.9219990
   7.1339270  40.8552653   6.9049766   8.0436894  40.7365204   7.1778515
   6.6238161  40.7080362   7.7014282  39.6536532  58.4228869   1.0040357
  40.0551399  57.6231309   1.3437870  40.0950899  58.5762807   0.1686695
  78.0619209   7.9704792   9.3472412  77.8928142   8.4630759  10.1503494
  78.4921091   7.1686156   9.6441963  28.8023515  68.2798089  55.3253412
  28.8976331  69.1019953  55.8061361  29.6787925  68.0976034  54.9863958
  32.7239823  10.6833851  41.0925770  32.5916910  11.6136909  40.9102011
  31.8737769  10.3780949  41.4090872  30.0335510  60.2352186  15.8110264
  30.0778182  60.9874328  16.4013221  29.7889376  59.5018800  16.3754871
  82.2460811   4.1230328  10.6050708  82.1244710   5.0503094  10.8090427
  82.8158562   4.1197045   9.8359230  40.2471113   1.3088369  69.1139269
  40.8962345   0.7517382  69.5434713  39.4173813   1.0738823  69.5293522
  35.0859618  29.0142155  39.8918247  35.3903008  28.1759715  39.5440316
  34.5856357  28.7815428  40.6739807   5.6249297  26.0656190  72.6845980
   5.5543238  26.8598747  72.1550655   6.2925982  26.2723446  73.3385944
  77.8715829  61.5146637  46.1141348  77.4698726  61.0347462  45.3898859
  78.7458793  61.1341143  46.1979198  64.8842303  73.9576387  47.9963398
  65.0943939  74.0446138  48.9261198  65.6674162  73.5663843  47.6093340
  53.6378069  72.9916275  51.9407129  54.5240147  72.9226447  51.5855932
  53.4549237  72.1229173  52.2986603  19.1049111  30.7650304  44.5282793
  19.5220363  30.0853229  45.0576496  18.9841616  30.3595161  43.6696720
  12.1257579   9.6636677  37.2584915  12.5092769   9.0966904  37.9275823
  11.1952066   9.4393748  37.2591710  22.2106338  31.0840225  43.9023781
  21.6153741  31.5316176  43.3010817  22.2133970  31.6308761  44.6879816
  70.4038472  57.2000266  40.8584929  69.7744538  56.4862324  40.9614229
  71.2501759  56.7619897  40.7685852  78.9892606  53.5237026  45.8668137
  78.7923769  52.5880241  45.8223534  78.6707894  53.7948179  46.7278051
  37.6945325  81.3582738  10.3350856  38.3671024  81.5935906  10.9742382
  37.4779567  82.1832117   9.9005726  61.9920721  17.8999455  12.4331215
  62.5695274  18.4305794  11.8843010  61.7000457  17.1918900  11.8590095
  27.8221797  72.8899415  11.0181072  27.2768017  73.0849012  10.2560165
  28.6380058  73.3637365  10.8563163  30.5021548   4.6114591  59.7142601
  30.1257277   5.1411009  59.0113974  29.9166465   3.8576216  59.7859621
  18.9346099  45.4704714  68.0357456  19.4339716  45.5292082  67.2212410
  18.0658185  45.8017969  67.8084707  72.8037587  60.8259773  40.8673429
  72.5864390  60.3392696  41.6624022  72.0078627  61.3163424  40.6616259
  63.8104645  51.5253878  59.5554399  63.8879172  52.2663021  58.9543772
  63.0152050  51.0720825  59.2756081  76.5997712  34.0100431  27.2927380
  77.3798624  34.3134809  26.8283963  76.9087855  33.8133526  28.1770778
  15.8724761  51.7376709  43.8995695  15.8479321  51.0245180  43.2615709
  16.6514146  51.5605450  44.4269371  59.2110827   8.0053170  24.5785072
  59.9172617   7.5322278  24.1383674  59.5690168   8.2236321  25.4390075
  82.1884172   3.9638169  -0.1967165  82.7980488   3.4584982   0.3410890
  81.3518374   3.5082562  -0.1027367  15.1980885  41.4519770   6.7081382
  16.0612520  41.8339730   6.8670776  15.3777834  40.6497568   6.2178543
  27.8561449  63.2464981  63.0326509  27.6687217  63.8274145  63.7699699
  27.5951123  63.7479830  62.2602463  14.7226560  30.6901240  55.7543468
  13.8380051  30.3262711  55.7894802  14.9560690  30.8411551  56.6702795
  25.7607305  81.2632664   6.6846969  25.3940808  81.7987116   7.3883274
  25.4813611  80.3714999   6.8919113  17.7006710  47.5261164  47.5638866
  18.2815540  48.2843542  47.5016117  17.3875165  47.5379467  48.4683371
  73.0967588  78.2119484  36.7640591  72.6468618  78.0746580  35.9304070
  73.3308096  79.1400833  36.7599058  80.1289122   7.7623923  26.5892437
  80.0362854   8.1386406  27.4645069  79.9361961   8.4877284  25.9951141
  80.5546109  44.4754648  65.1009512  80.7979146  44.4933128  66.0265398
  80.1722590  43.6076975  64.9704981  53.8020860  11.1398489   5.6472805
  53.0209159  10.5899317   5.5872848  53.5144424  11.9122584   6.1339786
  47.9595001  74.6950377  37.7035570  47.3271759  75.3982748  37.5557184
  48.5763819  75.0573922  38.3394718  15.0782406  50.3401136  38.5508871
  14.1524148  50.5052567  38.3725476  15.0752008  49.6417904  39.2055392
  15.9197724  17.3735845  73.9648008  16.7774487  16.9565463  73.8829374
  15.4789257  16.8808186  74.6569443   2.0079620  41.7245770  36.5607214
   2.1303205  42.3761749  35.8703017   1.9648285  42.2365665  37.3683357
  45.4052814  66.5141924  44.5691612  44.5447585  66.7910250  44.8839595
  45.5755469  65.6922158  45.0291565  14.5209813  25.5585837  55.9160423
  14.5804107  26.4463425  56.2690067  13.5879958  25.3479362  55.9534168
   9.0389091  44.8958492  41.8664742   9.9268949  44.5409441  41.8245745
   8.9099866  45.3194523  41.0178471  86.3121996  41.3587046  69.2520332
  85.6288622  41.2192965  68.5964060  85.9178273  41.0683966  70.0744820
  24.9142170  75.4625607  30.3030753  24.4052029  76.2707090  30.3665638
  24.5289612  74.9944067  29.5623708  69.0935656  84.6827277   8.9620617
  69.4063302  85.5297192   8.6442306  69.6984788  84.0459021   8.5815838
   5.0777364  60.8133793  57.6975060   5.2579552  60.9956217  58.6197567
   5.6168711  61.4432192  57.2191048  45.9677967   0.8299326  46.5100813
  45.8415469   1.7782187  46.5422630  46.7377039   0.6721281  47.0564985
  46.4438340  66.0915597   6.4070442  47.0273134  66.4223774   7.0899322
  47.0324954  65.7590302   5.7294490  90.1210494  56.1825109  63.3426666
  89.4558258  56.1385442  62.6558065  90.4135532  55.2775694  63.4510803
   7.2151828  28.7275553  62.6494217   7.6895905  27.9897022  63.0324888
   7.3501956  28.6354280  61.7062807   5.5756682  34.4251990  32.2009850
   5.1264018  33.6804605  31.8012881   5.3323948  35.1728249  31.6549969
  84.2575965  35.8278179  43.0906343  84.3159781  36.7744732  42.9615402
  83.9323459  35.4918003  42.2554493   5.8283502  45.2246475  61.2094641
   6.6654587  44.7610188  61.1864328   5.2124679  44.5890188  61.5740156
  38.5496419   1.3685067  19.7007492  38.3092444   2.2701628  19.9139621
  39.3261235   1.1953909  20.2330425  23.6010432  61.9558239  53.5579443
  23.7492514  61.1266661  53.1032324  22.9519057  62.4106073  53.0212593
  34.4796348  30.7851052  63.0059910  34.3310237  30.6355786  63.9396906
  33.8604164  30.2009296  62.5683403  82.3895887  23.7836194  69.2826176
  83.1298963  23.1980348  69.1236591  82.7916769  24.6163273  69.5299101
  13.8122785  51.1568642  62.5557613  13.6451352  51.9558859  63.0556202
  13.5134161  50.4497433  63.1275034  48.8860934   8.6775763  37.5132492
  48.4064763   9.4683440  37.7600124  49.6718173   9.0016110  37.0729473
   9.8790503  34.8603630  63.2668781   9.1588163  34.6255565  63.8519955
  10.0497150  34.0632081  62.7652359  17.2268821  14.6029074   6.4134243
  17.2505428  14.6576054   7.3687675  18.1308795  14.4138319   6.1618831
  11.3825989  38.5550332  49.8734856  11.9107139  37.7687383  49.7353983
  10.4854512  38.2304358  49.9509192  52.2500011  75.5576690  15.7315567
  52.4156543  76.4619955  15.9979942  52.8963276  75.0432785  16.2151840
  20.2022001  69.6369513  16.0197380  21.0257437  69.2043765  15.7941559
  19.5680961  69.2857154  15.3946140  16.7212558  54.0540886  46.8639183
  17.1800590  53.2460880  47.0938635  17.4105740  54.6405411  46.5522432
   9.8451948  54.0651751  39.3829608   9.7735095  55.0184536  39.4314861
   8.9965212  53.7452793  39.6889853  48.7165090  58.2561549  26.6068580
  48.4838601  57.6653095  27.3230961  49.5701548  57.9440947  26.3066223
  39.3217840  46.0543241  15.4017856  38.6986413  46.6789534  15.7729461
  38.9191612  45.7740252  14.5798614  40.9849310  28.2864213  55.2453661
  41.3695621  28.6677194  56.0346079  41.7360497  28.0750942  54.6909332
   4.2567533  26.0816550  19.4185424   3.3696076  26.4410973  19.4161558
   4.5010594  26.0406661  18.4939528  18.9012086  16.3187802  50.9157848
  18.7232351  15.3794253  50.9623718  18.0368721  16.7227817  50.8387327
   4.0583685  77.3517752  66.9199228   4.5447060  76.5635681  66.6781807
   4.7348896  78.0000067  67.1157360  24.7183013  34.7220421  51.5649652
  24.4257617  34.6349645  52.4722004  24.9470830  35.6471157  51.4748240
  15.1919460  37.5941205  50.9719992  15.1316786  37.2854543  51.8760586
  14.4459736  38.1852722  50.8705139   6.2241983  71.6216135  65.0798464
   6.8263859  72.3630047  65.0170660   6.1377925  71.4621544  66.0197067
   7.4115080  34.2544746  13.8685608   7.1728253  33.5366821  14.4551086
   6.5921521  34.7274828  13.7231243  76.7204101  78.6363775  55.1278830
  77.3325796  78.7940932  54.4091320  76.3680918  77.7632887  54.9551964
   8.0610412  41.2344122  42.6821470   7.7504414  41.4061880  43.5711050
   7.6065397  41.8798065  42.1407366  87.7756704  50.9186554  24.3799543
  88.5539744  50.9365320  23.8230371  87.7686549  51.7741489  24.8092675
  13.9913404  17.3272371  39.1325140  14.9009967  17.0316994  39.0949130
  13.9770901  17.9687512  39.8427868   3.9664972  49.0596962  55.0638056
   3.2750794  49.2707729  54.4364119   4.7677484  49.3897533  54.6572447
  11.3920224  69.8397160  43.4822226  11.8969476  69.0813828  43.7758446
  11.6926980  70.5578518  44.0390968  84.7017512   1.8081817  45.3323269
  85.2139465   1.0336731  45.5647564  83.9394001   1.4610320  44.8691416
  90.9474404  54.2790556  27.9757071  90.4712745  53.6226845  27.4671054
  91.3146350  54.8708010  27.3190236  19.0902102   3.2156974  45.2145767
  19.2086291   2.3690890  45.6452274  18.1423068   3.3026734  45.1138496
  80.9587685  56.0250950  54.5679951  81.8899319  56.1557055  54.3888140
  80.6407288  55.5151415  53.8229942  42.6684507  83.8325365   1.2223270
  42.0512792  84.0529402   1.9200065  42.1247133  83.4504136   0.5334451
   7.1966499  59.8535967  55.1528120   6.4084744  59.5658970  55.6135082
   6.8760550  60.4606915  54.4858122  25.9165478  28.3715582  45.7284737
  26.0038352  27.9224682  46.5692663  26.3516450  29.2138672  45.8605337
   6.8551654  12.2300601  63.3308172   6.3860726  11.6972423  63.9729166
   7.7480119  12.2848213  63.6714935  16.3050675  34.2156839  48.3418465
  16.9137800  33.5015702  48.1527948  15.4479349  33.7926388  48.3927155
  30.0002379   2.2919075  71.6079316  29.8252506   2.6826088  70.7517976
  30.2477689   1.3881198  71.4126772  61.8430492  82.6043256  17.0848968
  61.8367001  81.6965517  16.7813423  60.9360405  82.7793344  17.3357704
  37.7676034  25.9154987  53.1238031  38.4959459  25.5382705  52.6304007
  37.4469972  25.1948667  53.6661482  26.0450554  35.2664661  39.4552517
  25.4102302  35.8022285  39.9308419  26.8004704  35.2138972  40.0407553
  25.9140778  20.4169703  32.9469562  26.3314819  20.4348302  33.8081694
  25.0928569  20.8933735  33.0688906  12.3370267   3.9138205   1.0451439
  11.4304687   3.9704354   0.7431772  12.2902585   3.3935244   1.8472269
  77.8534607  52.8984690  68.3373117  77.6341728  53.7487984  67.9564142
  78.0322877  52.3370600  67.5829458   2.0580302  62.7177811  45.1316404
   1.2346206  63.2043648  45.0933743   1.7999621  61.8018055  45.0285959
  76.0541777  70.1092720  57.6102209  75.8005170  70.9752131  57.2907829
  75.4098181  69.9058676  58.2882023  68.3179566  70.1424392  24.4547393
  68.9754888  70.7051786  24.0458324  68.7778207  69.7283610  25.1850155
  60.4606501  44.5988321  66.5023375  60.7129351  44.0717888  67.2604990
  59.7413102  45.1451397  66.8190861  16.5520155  54.0948105  60.6722736
  16.2430263  54.6514368  61.3870621  17.1296191  53.4597683  61.0957432
  80.9222761  64.3212557  37.9943037  81.6331045  63.7125015  37.7933764
  80.8578030  64.8785639  37.2187471   9.5891231  27.6945686  59.4478893
   9.6684718  27.3970246  58.5415745  10.4606903  27.5618887  59.8207140
  40.7116795  13.6517668  64.1012859  41.4775372  14.2243099  64.0578508
  40.1546001  14.0473664  64.7716618  89.2451667  70.6524897  41.8683815
  88.7808756  71.4890051  41.8984842  89.8107549  70.6645584  42.6405191
  26.9463810   2.7516626  26.8823528  26.4901518   2.1465658  27.4671054
  26.6016736   2.5498270  26.0124850  75.8709173   7.9122431  27.2850826
  75.6853228   7.8308709  26.3495758  75.8810621   8.8557513  27.4460628
  47.7799754   0.3609116  27.0263508  47.1737795   1.0938294  27.1340015
  48.6484664   0.7533200  27.1156242  20.8678102  62.2006989  52.4122858
  20.2749014  61.6176987  52.8864145  20.4079437  62.3980188  51.5963030
  66.4177839  42.6324749  21.6782737  67.2500316  42.8272724  21.2473989
  66.5980855  41.8553972  22.2073007  84.8864946  55.7850552  45.2963114
  84.8681144  56.4918423  44.6510649  85.7931773  55.7637215  45.6024218
  65.2696887  24.4580579  58.1109953  64.4896594  24.7379327  58.5900068
  65.6367055  25.2680373  57.7567863  21.3076302  20.8580278  58.4954977
  20.3534194  20.7841372  58.5114431  21.6057685  20.2580713  59.1791725
  48.8687023  69.3745264   4.6552828  48.3326456  69.1130289   5.4039457
  49.0577027  68.5550483   4.1981533  50.9819814  79.0860709   0.4075983
  51.4747187  79.5460804   1.0871818  51.1159870  79.6104654  -0.3818819
  48.6132320  77.2288807  22.9493644  48.9405521  76.5489157  22.3605182
  48.0538007  76.7603143  23.5688045  57.7087857  48.3104546  16.4455440
  57.0060610  47.6630719  16.3881138  58.4590212  47.8872616  16.0280731
  15.2191603  52.2822380  32.4133968  15.2616572  51.8046093  33.2418251
  16.1343575  52.4194574  32.1688223  24.2263293   8.5213745  59.0182066
  25.0440621   8.5682946  59.5135307  23.5415292   8.5106444  59.6869135
  16.2285054  32.2300506  67.4875355  16.6231084  33.1009603  67.4424410
  16.5501332  31.7806125  66.7060041  89.9691260  69.7450956   8.0446937
  89.1563142  69.5199283   7.5920704  90.5808342  69.0515002   7.7977588
  19.8487318  35.0244904  35.0421929  19.6117353  35.8394456  35.4848170
  20.3199720  34.5200634  35.7053041  14.0524530  54.5507431  23.2155180
  14.6119726  55.1867008  22.7697325  13.8762295  54.9443054  24.0700841
   3.8755471  33.1082153  65.9270430   4.3093815  32.9582262  65.0870895
   2.9556569  32.9015255  65.7617712  68.2423226  76.5446186  69.0356159
  68.2691518  76.2121630  69.9328232  67.3964111  76.2515831  68.6967993
  65.7363897  20.1484950  15.1629856  64.9787374  19.6322806  14.8878219
  66.4885723  19.6848090  14.7949531  74.4412605  47.6353931  41.0661697
  74.3126623  48.1059551  40.2426004  74.6754543  46.7462826  40.7999659
  83.9277547  18.4915335  18.4691360  84.7159975  18.8569863  18.8708236
  83.2303827  19.1000826  18.7132099  33.9409494  79.7750815  10.1416710
  34.8697343  79.8791870  10.3484466  33.4861132  80.0486668  10.9382370
  72.1566490  43.4323883  30.7243538  72.9296390  43.7681103  31.1782336
  72.1546332  43.8904333  29.8838639  16.3443232  67.6727533  67.2706795
  16.5932107  68.2113457  68.0218124  17.0748889  67.7628231  66.6588020
  10.6265104  43.2777977  61.2872601  11.2988794  43.5867119  60.6800318
  10.9630716  42.4429274  61.6127586   9.9905735  47.8693390  17.9281449
   9.0355355  47.9050541  17.8746772  10.1843250  48.0169821  18.8538301
  13.8470507  19.9063194  40.4576635  13.1100583  20.4904914  40.2792883
  14.0539098  20.0565052  41.3801003   7.1156311  29.8895121  40.3852606
   6.4818358  29.3133116  40.8124971   6.5845215  30.4584575  39.8280764
  34.2680192   5.0443655  72.5247717  33.8654232   4.4232839  71.9178057
  33.7376332   5.8370018  72.4432182  86.3072739  44.0960169  40.8790684
  86.7728562  44.3486071  40.0817823  86.8657864  43.4313440  41.2821913
  16.4823008  45.2120829  56.9273901  16.7482793  44.9129438  56.0579062
  15.5744016  45.4942226  56.8162632  14.6749973  15.1402962  61.6114855
  14.3217576  16.0044861  61.4002323  14.7376573  14.6941650  60.7669306
  24.7281981  76.8231726  55.0168514  23.8362479  76.6136885  55.2939272
  25.0369477  76.0281610  54.5822620  21.5422031  83.8933905   9.6394470
  21.6173312  84.1099270   8.7100914  20.8071306  84.4220885   9.9498966
  81.4507830  51.3948252   2.7396658  82.1937001  51.8492754   2.3424509
  80.9393323  51.0763355   1.9958856  13.6238110  24.1487837  31.7151380
  13.9475226  24.7988129  32.3387623  14.0250802  24.3956470  30.8819079
  16.7252278  17.7355552  42.3058605  16.7014837  17.6188660  41.3560963
  17.4844408  18.2979834  42.4591637  57.9691439  22.0160277   4.1186836
  57.1668505  22.1484644   4.6236780  58.6678108  22.0226653   4.7729423
  80.9120361  31.7500329  27.3308325  79.9727169  31.7446876  27.1467566
  80.9800414  32.1001363  28.2191086  69.8801919  41.1322722   2.7195909
  69.5187422  41.9945095   2.5143268  69.1173765  40.6008748   2.9475382
  25.2991843  23.1379604  24.3257546  24.6443272  23.7892079  24.0742183
  24.9326563  22.3039222  24.0320373   3.4795707   4.9397680  65.2354574
   3.4131077   4.8813084  66.1885548   3.5301659   5.8786386  65.0560284
  11.4488518  11.9559097  58.7013912  12.3527586  11.7254221  58.4867764
  11.0627937  12.2155178  57.8648567  13.6967015  26.8395305  49.4865465
  14.5242810  26.3586450  49.4768381  13.2863736  26.6270471  48.6482620
   9.0642112  29.8290324  44.9173737   8.6701196  30.2778530  44.1693830
   8.8923836  30.4066920  45.6610250  84.6982870  40.5107164  44.3317699
  85.2342788  41.2245607  44.6772718  84.0463249  40.9452248  43.7818813
  16.9142663  47.4870968  67.4434662  17.1215415  48.0910444  66.7303658
  15.9988391  47.2487926  67.2970533  86.3094900  18.9679956  39.9503207
  86.2589461  18.0141592  39.8880887  85.3975192  19.2580223  39.9296999
  17.6388562  47.6859808  70.0112391  17.8767443  48.6097622  69.9320555
  17.2723711  47.4589252  69.1566229  88.9419199  55.1053095  53.1418753
  88.2695407  54.8908997  53.7885380  88.9250094  54.3721771  52.5266838
   9.4444036  43.1800270  70.6488895   9.0504742  44.0130806  70.3898954
  10.3825200  43.3034515  70.5041933  21.7066312  50.1378059  28.6807728
  21.8955469  50.2201748  29.6155238  20.7524347  50.0785398  28.6335754
  65.3477966   6.7718251   3.9685419  65.1440655   5.9151633   3.5932329
  64.8681693   7.3934014   3.4209707  77.7501837  54.5635176  35.3566813
  77.4800698  54.1207170  34.5521951  78.6954061  54.6797228  35.2603316
  64.7362181  85.0090035  34.9371841  65.2243682  85.0947865  35.7560756
  63.8840553  85.4029234  35.1239326  37.8458276  36.3457193  18.3996608
  38.2525798  36.6403075  19.2145183  38.1449857  36.9735845  17.7419880
  14.9825860   4.8050101  24.5387199  14.5021011   5.5112202  24.1067150
  14.8109867   4.9342329  25.4714992  77.2486738  46.0269356  41.1849451
  77.5343815  45.2943277  41.7307329  76.8055502  45.6146240  40.4434109
   7.3960936  15.5185676  33.9847517   7.4179089  15.5104899  33.0278349
   6.6845948  14.9203789  34.2131639  90.0129846  29.2871451  64.7799158
  90.1850641  28.5512590  65.3673601  90.6190484  29.9699569  65.0674677
  71.3500231  37.4745400   2.0335367  71.9562953  37.9492600   2.6021316
  70.4815929  37.7071221   2.3621156  63.3954995  26.3210518   1.4725568
  62.7155153  26.7545302   1.9882562  64.1549178  26.8994362   1.5431669
   8.1430781  40.1553774  60.2230501   8.8812572  39.7829342  59.7407532
   7.9862028  39.5364928  60.9362125  87.7476950  82.1155352  61.6115046
  86.9298811  81.8563602  62.0360565  87.5551815  82.9680223  61.2210751
  54.2512374   2.3953421   3.7700632  55.0195020   2.7734024   3.3421924
  54.4752555   2.3868782   4.7006395  84.4000826   7.4703753  22.2121525
  84.9962584   7.7439344  22.9092693  84.5660273   8.0872470  21.4992976
  88.0204154  46.7367458  51.0935879  87.9715563  46.7191839  52.0493793
  88.7138624  47.3677588  50.9007597  32.0389518  62.5444671   0.8825662
  31.8525478  61.6055950   0.8844211  31.2106301  62.9526123   0.6305101
  79.3264321  18.4077179  58.4132051  79.7867767  17.9896569  57.6855087
  78.6593787  17.7717316  58.6716461   6.1335748  25.9580112  66.0381126
   5.5411971  26.6644216  66.2956047   5.8061165  25.6693912  65.1862288
  17.2860920  61.7588186  66.3385487  17.3903644  62.6979160  66.4916897
  17.6020753  61.3483429  67.1434689  24.5624518   7.9288638  46.6304922
  23.7572336   7.5717103  47.0050573  25.0716329   8.2172352  47.3879957
   5.7863688  36.2711883  42.7095842   4.9032161  36.0408807  42.4210882
   5.9317344  37.1495581  42.3580647   4.3230978  36.8092203  30.7598042
   4.1431743  37.4856210  30.1068544   4.4494033  37.2922444  31.5764856
  87.6796315  49.2215729  55.3780365  86.8699083  49.0653610  55.8640194
  87.7814300  48.4458542  54.8265553  88.8414092  35.3637791  32.0203543
  89.7277457  35.7220674  32.0679855  88.8014305  34.9365520  31.1647201
  70.9009261  85.2950842  62.9324150  70.6525828  85.9161689  62.2477150
  71.3972695  84.6178123  62.4728727  88.5179150  67.9381307   6.7099788
  89.2379511  67.3274215   6.8674972  87.8247822  67.3983057   6.3299873
  28.6535048  53.8468011   4.8290565  28.4944339  54.5764717   5.4278114
  28.6975200  53.0768939   5.3960970  36.3527384  78.8166626   2.4480131
  36.2693557  79.5897826   3.0061939  36.8472972  79.1224321   1.6876533
  35.5443978   5.0886357  26.1189008  36.2684083   4.5050034  26.3456535
  35.2689648   4.8015258  25.2483058   4.1231453  29.3554711  31.1063910
   4.7135091  29.8044777  30.5013323   4.5931730  28.5588408  31.3527393
  46.1859938  73.3361968   0.1612690  46.9093987  73.3942922   0.7854011
  46.3393947  74.0559228  -0.4508517  58.5841157  24.6963580   3.0727413
  57.7939843  25.0947316   2.7077463  58.3546949  23.7746842   3.1915405
  23.1063175  62.5351238  47.1351051  22.1952534  62.4721670  46.8483448
  23.4413671  63.3181286  46.6982126  76.5121237  30.0768685  64.0008020
  77.0747069  29.4598460  63.5328150  77.0712987  30.4356074  64.6899080
  12.7457416  32.3753595  51.1834145  12.3219252  32.3282480  52.0403814
  12.1177638  32.8407741  50.6309080  29.3097281  46.4331913  41.2342596
  29.4255042  46.9609880  42.0243597  29.5446730  47.0214987  40.5166721
  48.9863246   3.6287720  32.8499153  49.6293705   2.9659302  32.5982025
  48.7236731   3.3829815  33.7369564  60.7183572  12.6945670   3.1134346
  60.7371882  12.4955971   4.0495374  59.7882581  12.6947625   2.8872755
  24.3920493  25.3579903  28.7449050  24.8843861  25.0766110  27.9737616
  23.5169125  25.5557132  28.4113288  88.5015667  56.3635302  70.9465027
  89.4560895  56.4221334  70.9875441  88.3232228  55.4288197  70.8428717
  18.2689083  33.6680555  40.8862400  18.1345904  33.4385300  39.9667263
  19.0976775  33.2494855  41.1189890  45.1083427  -0.0582950  15.5597809
  44.6643811  -0.4971950  16.2853744  44.9893050   0.8750708  15.7355526
   6.8461430  35.1150060  55.2051687   6.4064616  35.9451890  55.3887558
   6.7298394  34.9853945  54.2639399  83.4865067  66.0287285  42.4022818
  83.9878563  66.5735769  43.0089235  82.7743558  66.5947723  42.1045160
   4.2443562  38.7759709  42.5545645   3.8223872  39.6202612  42.7137756
   3.6323583  38.3052516  41.9887781  85.2638159  48.3754110  20.1865482
  84.6564458  47.7726507  20.6155133  85.3028551  48.0711460  19.2798352
  71.0089842  21.5989566  47.9347038  70.9223143  22.2156835  47.2078133
  71.8477014  21.8213844  48.3388186  45.6952007   2.3232833  73.2288716
  45.2967377   1.8699066  73.9717783  46.2665648   1.6687004  72.8272546
   8.3444905  73.3435297  31.2079549   8.9346409  72.7662516  31.6924167
   8.6613053  73.3071423  30.3054380  20.6885982  62.0674562  45.9885550
  20.1354766  61.2866926  46.0148954  21.0217881  62.0947933  45.0916338
  16.9378448  64.7834969  63.8174725  16.5909123  65.2667761  63.0675983
  16.3933349  63.9979410  63.8688469  65.5179898  59.2207766  49.5518780
  65.9630123  58.3760786  49.6202755  64.6231786  58.9998436  49.2935514
  43.7503954  41.4448359   5.9950760  42.9959830  41.1609255   5.4788473
  43.5347244  41.1928285   6.8929699  17.9255986  28.2620144  49.8731089
  17.1185732  28.4555602  50.3500557  18.6109757  28.2901263  50.5407143
   4.8373571  27.7644396  45.9845638   4.5727631  28.0663347  45.1156092
   4.1293669  28.0485868  46.5626955  21.9720316  75.2797174  51.1262846
  21.8247437  76.1762667  50.8250570  22.7924728  75.0183249  50.7082176
  73.2191854  29.3910344   2.3368623  73.1308275  29.2660077   3.2817390
  73.8724916  28.7444479   2.0697572  14.5473456  41.6005421  60.2829409
  14.0462792  40.9191132  59.8348188  15.3647244  41.1705685  60.5344296
  88.6181777  19.5964034  19.1323021  88.6719697  18.7851555  19.6374920
  88.8295667  19.3349297  18.2360962  46.4417458  52.7226925  74.7203636
  46.1236143  53.5964155  74.4931507  46.6898489  52.3326635  73.8821793
  82.0639024  52.6633930  45.3996658  81.9160030  51.9650030  44.7620106
  82.0913026  52.2144127  46.2445927  90.3390516  39.0402102  48.9455462
  90.4250496  38.5997033  48.1000948  89.9464346  38.3824396  49.5194960
  28.1803584  19.8008537  23.8762069  28.2864356  20.3948855  24.6192431
  29.0139747  19.8511314  23.4084582  25.9514546  60.8717918  15.0523293
  25.1428413  60.3596783  15.0631797  26.3306832  60.7024002  14.1899347
  73.0085938  25.8179553  11.3208797  73.2349067  25.5484946  12.2110489
  72.1004277  26.1137755  11.3837650  32.5307918   7.5122708  50.4534435
  32.4270415   8.0552965  51.2348461  32.7654982   8.1306189  49.7614956
  66.8585411  43.0160570  53.4817886  66.0959760  42.9937553  54.0599155
  67.5699273  43.3370924  54.0359497  14.1371989  51.7316198  65.7667780
  14.0079641  52.1327400  66.6262197  14.1964114  52.4722290  65.1632690
   2.5234351  27.8390288  67.3185015   1.7554076  27.8647375  67.8892040
   3.1481925  28.4357071  67.7306747  12.0805228  21.9808435  29.1744256
  12.6454723  21.4267898  28.6358285  12.2135496  22.8642893  28.8308287
  83.6669830  21.1452174  70.1670551  84.2986516  21.8293166  69.9451685
  84.1075281  20.6199932  70.8351088  42.1891356  85.5820656  64.0252447
  42.2769690  86.4630890  63.6614799  41.9347572  85.0391293  63.2790947
  15.5306554  50.5400753  34.5174718  16.0332549  51.0666943  35.1390028
  15.4986095  49.6688652  34.9126887  58.3843983  18.9316494  15.7201412
  57.7521952  19.6029980  15.4635456  58.3437661  18.9173729  16.6763714
  78.6107663  37.1794033  63.6874104  79.3363599  36.5825367  63.8704252
  79.0131978  38.0477452  63.6711407   5.5147077   9.8264868   0.7548931
   5.7418324  10.4143555   0.0344398   6.3411452   9.4040520   0.9889486
  37.7907681  73.1788158  68.5110140  36.9339132  73.3015490  68.9196348
  38.2226682  74.0283394  68.6004591  87.6996747  40.6660509  47.2068739
  87.7937225  40.1709938  48.0206966  86.9582776  41.2501669  47.3661709
  85.5003422  23.1940682   3.6272218  86.3947623  22.8714163   3.7373998
  85.4049485  23.3176930   2.6828411   9.2713398  36.7525554  44.9095678
   9.1555309  35.9023356  44.4853640  10.1481962  36.7122984  45.2913189
   7.8485823  55.2079248  35.0789523   7.8899443  54.8043823  34.2119598
   8.7477261  55.1681089  35.4048133   4.3448165  67.2838354  30.2584672
   4.6659735  66.5756750  30.8166742   4.0917960  67.9751158  30.8703065
  89.5474150  78.8994074  43.7021446  88.7212650  78.4367609  43.5619211
  89.3079618  79.6636343  44.2264080  18.6647703  22.2567685   6.1092880
  19.3407299  22.8802187   6.3750293  18.6148979  21.6340048   6.8344906
   4.0214588  13.2097466   0.4282835   4.6442558  13.8743336   0.7227066
   4.4197012  12.8408368  -0.3600905  64.2016927  37.7707314  64.3314552
  64.6788803  38.5933590  64.2227745  63.7238995  37.8778553  65.1539326
   1.7860512  49.7905445  57.6170254   2.7254495  49.9636459  57.6786566
   1.7286269  48.8746214  57.3449659  78.1296807  19.8258193  14.2726543
  77.2080987  19.7103531  14.5041492  78.6063474  19.6180518  15.0763061
   6.1932093  53.3521557  73.6005592   5.3218424  53.6574841  73.8530016
   6.2391448  52.4562788  73.9345121  12.3075582  15.4523594   3.0477932
  13.2636072  15.4071887   3.0606344  12.1008064  16.2769396   3.4877422
  44.5089245  43.5328579  73.8195229  45.1491451  43.1939936  73.1938076
  44.6353245  44.4815016  73.8014984  25.1049283  85.5201491   9.3560341
  25.9031859  85.4362162   9.8775413  24.6220853  86.2351664   9.7705677
  89.0724989  26.8680239  41.3780355  88.7494018  26.1644888  41.9409561
  88.2900039  27.3688293  41.1475420  69.8132180  12.1007473   9.1163376
  70.2484929  11.4832909   9.7041443  68.8827520  12.0129712   9.3231228
   4.3221828  42.4033308  68.7351418   5.0917137  42.9718494  68.7640858
   4.5221218  41.7642641  68.0511427  15.9540367  63.7600374  57.1971464
  15.1002550  63.3369780  57.1059990  15.9743845  64.4118404  56.4964533
  51.8065310  65.4757738  63.7545252  51.2363052  64.7366142  63.9659786
  51.6800690  65.6150103  62.8159904  19.9996722  72.2868824  69.4213295
  19.9193370  72.1874380  70.3699541  19.1002226  72.4047613  69.1158390
  40.1055813  78.8410521  69.4211531  39.2988133  78.6819506  69.9110937
  39.8417330  78.7907553  68.5024118   8.6560702  46.1350918  56.0692739
   8.3134675  47.0148849  55.9117174   8.9789689  45.8473253  55.2153635
  75.0679037  81.5615519  17.5546291  74.3495914  81.2821420  18.1222465
  74.7675249  82.3885449  17.1776893  86.4879887  19.9493391   6.7842415
  86.8533652  19.4908078   6.0276249  86.0166996  20.6931384   6.4089039
   0.6801225   2.8628476   0.4950550   0.0942184   3.3686287   1.0581997
   0.7780649   3.3990891  -0.2917645  16.4339435  65.7229328  55.1483202
  15.6710792  65.8212566  54.5785809  17.1399713  66.1712456  54.6827364
  36.1976743  68.5721779  70.3563595  35.5258989  69.1025972  70.7848501
  36.7294431  69.2042112  69.8726368   5.7326096  16.6266036  62.8644085
   6.1812800  16.0909510  63.5186243   5.1083136  17.1479976  63.3690214
  85.9428827  52.2614241  35.2709126  85.8777533  53.1828976  35.5216622
  85.1914737  52.1159410  34.6960640  48.0591004  34.2169554   6.0751178
  48.5806542  34.4544203   6.8418148  48.4857076  33.4332592   5.7286194
  82.9504464  47.9074669  35.9164572  82.8413401  48.8575792  35.8762217
  82.0675925  47.5713205  36.0707426   2.3844287  74.9617910  23.6407018
   2.1311022  75.8429003  23.3655548   3.1502461  74.7545433  23.1051612
  48.7303945   9.0639280  55.8589506  48.8045439   8.1246828  56.0279226
  49.6322020   9.3548464  55.7235241  22.9438925  56.1487627  55.8411407
  23.7521482  56.3304710  56.3206577  22.8098202  56.9236279  55.2953911
  11.3723373  53.7780571  69.4316912  11.0278237  53.0429268  69.9387693
  12.2374046  53.9431763  69.8066902  15.9354278   2.8812574  49.4322062
  16.6158804   2.2725748  49.1445875  15.8409902   3.4961008  48.7046957
  28.6699891  43.3778620  54.4783735  28.5370398  43.2201242  55.4130793
  29.3240690  42.7298069  54.2167664  28.3436606  84.6846922  17.1407535
  29.0857937  85.1514824  16.7565944  28.7371271  84.1040286  17.7920940
  29.0216517  68.2483578  31.1244535  29.5993161  69.0051079  31.0251188
  28.2790065  68.4369993  30.5507588  66.3691441  59.9822187  62.5865507
  66.9147483  59.9396801  61.8012238  65.9465805  59.1245079  62.6313591
  15.3056467  46.7840052  63.4469366  14.5057189  46.8099308  62.9218912
  16.0119140  46.9134140  62.8139496  86.3596684  46.5275002  68.3789253
  85.6348906  47.1480513  68.3024549  86.1558280  46.0165024  69.1622210
  85.1351806  61.2879129   2.1185138  84.8747655  62.0293184   2.6650789
  84.6562549  61.4142927   1.2994363   3.6244309  63.3133316  58.3247995
   3.9666268  62.4535084  58.0801868   3.5227561  63.7761164  57.4931002
  53.4925263  32.5063879  24.8813179  53.1358873  31.6199381  24.9383381
  52.8964322  32.9668457  24.2906597  67.2603529  23.5996134  13.5491684
  67.3418348  22.7582819  13.1000068  67.1881436  23.3704550  14.4757297
  19.0932676  76.1806997  21.1389759  18.1800422  75.9990509  20.9170463
  19.5733127  75.4151042  20.8233097  18.4393179  56.6450930  68.1749153
  19.2132115  56.0862398  68.1041574  17.8805518  56.2008142  68.8125896
  85.4903930  37.3563988   6.1632755  86.0079878  38.1032402   6.4641979
  84.7873848  37.7460701   5.6435039  90.9447353  28.9580424  16.9202068
  90.8097904  28.0295403  17.1096924  91.0982220  28.9899428  15.9759262
  75.6530063  42.3768837  17.3342350  75.6630652  42.0942910  16.4197567
  74.8310666  42.8585846  17.4270466  15.5585599  43.4911966  67.7038336
  15.4966009  44.1013479  66.9689131  15.4253972  44.0361261  68.4794283
  18.9380682  43.4677649  70.0772810  18.7288439  44.1122055  69.4011450
  18.2771826  42.7838516  69.9690056  88.1442723  76.7509270  66.9555712
  88.8829970  76.6013956  66.3655233  88.5391665  77.1226597  67.7443075
   4.8524645  45.5225563  21.4820838   4.4803160  45.4472542  20.6034088
   5.7971197  45.4429197  21.3497305  81.9790528  32.0527649  54.0433645
  81.1027030  32.0852709  53.6597204  82.2013060  31.1217904  54.0543890
   0.0525396  46.1003304  59.5413971  -0.5037136  46.0566902  58.7636375
   0.7660159  45.4884815  59.3602180  19.4755292  49.3771267  46.9821978
  20.0178432  50.1597309  46.8839216  20.1034880  48.6601830  47.0710135
  79.2786220  71.0148764  43.8477182  78.6590461  71.4660358  43.2743025
  79.7080902  71.7172146  44.3360901  40.8914995  75.3894901  41.8374777
  40.1421976  75.5613184  42.4077797  40.8742666  74.4426441  41.6981125
  20.5647612  29.5982218  70.4999733  20.6128597  30.0973034  69.6846008
  19.7005582  29.1872168  70.4785967  18.5931313  62.9045820  61.5509605
  18.0182528  63.1955099  62.2588491  19.2740023  62.3944998  61.9896603
  83.4363524  63.4324265  73.3033180  83.8196913  62.5598240  73.3919048
  82.5150666  63.3138943  73.5344362  88.9359563   0.5921013   7.3184326
  88.4241050   0.0646384   7.9316356  88.6430066   0.3054125   6.4534309
  51.4448849  79.8003006  50.5115938  51.0276023  79.1854811  49.9081850
  52.2028819  79.3249226  50.8517218  16.9228196  19.4278145  49.0205860
  16.5574324  20.1053214  48.4516287  17.6943660  19.1110790  48.5508776
  23.2645369  60.8140373  56.1845732  23.7289500  61.2576342  55.4748011
  22.4684668  61.3306427  56.3095713  83.2595745  43.2856369  73.1132984
  82.9546402  43.3550978  72.2086334  83.7555311  44.0908289  73.2613707
  71.3907198   6.8472701  67.3336172  70.9065620   7.2177535  66.5956688
  71.6203085   7.6036721  67.8734064  48.5983174   7.0585473  23.2356575
  48.5079949   6.9570858  22.2881534  47.7952378   7.5034316  23.5065391
  26.8587685  39.3733716  58.5308313  27.4943161  39.5338106  59.2283773
  26.0088015  39.4013262  58.9701557   3.4255135  55.5702972  68.5876131
   4.3442374  55.3166628  68.6762094   3.0273449  54.8574400  68.0880880
  11.0607387  31.2591155   2.4294927  10.2333452  31.6580088   2.1601608
  11.5437795  31.1346991   1.6125324  16.5923738  76.4581537  55.4527092
  15.7549965  76.1549044  55.8035231  16.4583290  76.4884424  54.5054245
   7.9543269  62.9456854  68.4720659   8.7323719  63.4151649  68.7728405
   7.4592453  63.5965538  67.9745722  37.2178700  67.8735240  11.2622383
  37.9629966  68.1601032  10.7341316  37.3308125  66.9263419  11.3417175
  23.7489605  68.8607740  43.6392832  24.5840311  68.5703659  44.0060949
  23.5675979  69.6892595  44.0830708  67.9837381   3.2777674  26.1864498
  68.7374060   2.8878481  25.7435348  68.3426993   4.0360291  26.6473415
  22.5835827  79.6334966  15.5139854  22.7638313  78.8179739  15.0463703
  23.4485957  79.9940546  15.7088783  53.9877056  36.9052393   8.7649658
  54.5546775  37.1105225   8.0215767  54.2999779  36.0559161   9.0769985
  82.8815589  20.0985956  52.1332407  82.7687720  20.8603334  52.7018070
  83.1768701  20.4638720  51.2992144  37.7530169  63.4595728  60.2642393
  38.5608912  63.9414930  60.4412365  37.1114659  64.1374016  60.0516510
  26.4718342  79.1208124  46.7023325  26.2409282  79.7813511  47.3554850
  25.8778453  78.3913183  46.8790817  21.7453980  39.4741726  44.4785643
  21.0500216  39.4023418  45.1324177  21.5500093  40.2852106  44.0092373
  41.7319345  71.0316610  35.1941609  42.5351286  70.5111217  35.2065945
  41.4551735  71.0231590  34.2778850  23.7224984  49.2506838  27.1142912
  22.9440069  49.6787167  27.4706173  23.7498236  49.5272732  26.1983323
  31.1542653  76.6555127  19.6374157  30.2457084  76.3954242  19.4853904
  31.6732682  75.9653433  19.2244556  78.2963603  11.8326457   0.3243759
  79.0502768  11.9113142   0.9088876  77.5375526  11.8598635   0.9072187
  71.5372363  51.8678331  71.2722921  71.7427114  51.4261103  70.4483414
  71.3705186  52.7765131  71.0218143  12.1404743  68.7028313  59.6776628
  11.9923794  69.5093250  60.1714945  11.7565060  68.8745451  58.8178301
  80.7645076  19.5321639   3.6358669  80.9365814  20.4703600   3.5557821
  81.0535829  19.1635258   2.8011396  45.9104117  79.9841293  12.8162410
  46.8089792  80.2840742  12.9534938  45.5683895  79.8405989  13.6986473
  60.5345821  79.9504566  54.5593452  59.9122095  79.9815321  53.8327646
  61.0430050  80.7569504  54.4738722  83.6497467  26.4072163   2.4812343
  84.3437307  26.0434325   1.9314411  83.9299910  27.3052914   2.6577404
  67.7777735  70.8567142  21.4768910  68.2117382  70.9655476  20.6306887
  67.0222751  70.2998829  21.2887549  37.1953481  18.4517653  13.3469131
  36.9396942  17.7271779  13.9177349  36.4340251  18.5935767  12.7843216
  28.7208247  57.9398203  67.7052498  28.1663251  57.4816990  67.0736790
  28.2123494  57.9376888  68.5162258  88.7330215  20.7349808   8.7245777
  88.3988064  20.4895623   7.8618553  88.2824915  20.1480324   9.3318203
  19.2941272  65.6074381  62.0573854  19.3408620  64.6718693  61.8605280
  18.3570600  65.7926559  62.1192884  89.1748790  44.2494202  62.1982622
  88.8244212  44.1013765  63.0766106  88.6588819  44.9785614  61.8542624
  88.6984031  27.4510605   5.5350950  88.3709972  27.0292647   6.3295295
  88.8228910  28.3668931   5.7840660  36.4092639   6.4975523  65.9287596
  35.6844547   6.5443110  65.3053045  36.5123614   5.5626654  66.1065149
  36.7948985  57.3554182  67.8510475  37.1910501  57.5368309  68.7033319
  36.4608598  58.2028532  67.5569344  76.2827868   7.5602571  70.0401628
  77.0412500   8.1438915  70.0219572  76.1058505   7.3686496  69.1191784
   9.0961874  59.2709017  50.0067282   8.9236546  58.7065983  49.2530537
   9.4131660  58.6744356  50.6849527  12.0963085  65.5356216  17.4411333
  12.7297175  64.8217392  17.5145912  11.5348411  65.2831697  16.7081571
  60.8547520  16.6480477   3.7118986  61.0762544  16.5256960   2.7887561
  59.9102586  16.4982636   3.7534740   6.9964242  44.0251970  47.2574663
   7.4661565  44.6352911  47.8261185   7.6720178  43.6643887  46.6833401
  30.4465938  48.2883406  29.5271301  30.0772166  48.4011269  30.4029560
  29.7195387  48.4784031  28.9342546  90.2777375  45.9288931  71.5680695
  91.2209644  45.7659721  71.5645695  90.0673258  46.1374521  70.6578684
  76.3860992  60.2614403  56.7047501  75.5761830  60.7349253  56.8946934
  76.6658977  59.9158096  57.5523806   6.9271690   5.5009902  54.8722029
   6.2281007   5.2523297  55.4769373   6.4843076   6.0015684  54.1869831
   4.2869449  48.6386061  18.1984317   3.4442282  48.8609314  18.5941994
   4.4126502  47.7128696  18.4068620  53.5408303  77.8310235  12.4281910
  52.9812642  77.1306117  12.0927169  54.2411634  77.9091247  11.7803791
  52.0999133  17.8348143  10.6316021  52.8477674  17.2736056  10.8365181
  52.4215703  18.4222538   9.9477222  37.6480957  69.8667367   0.0358560
  38.4124633  70.4191216  -0.1279852  38.0042704  69.0829261   0.4542043
  64.2901634  11.7843087  15.6640747  64.7598203  12.6182444  15.6785324
  64.0621441  11.6219408  16.5794304  71.6325574   9.6592600   2.9418209
  72.0366280   8.8080485   2.7732971  71.0023504   9.7703631   2.2299745
  15.8600914  59.7525692  30.1675653  16.4464867  59.5229864  30.8884430
  16.4060426  60.2600861  29.5670652  81.1482756  42.0578225   7.5014236
  80.8095305  42.2493298   6.6268947  80.9144323  42.8260357   8.0223777
  35.1152825  29.7418809  32.2203135  34.7657967  29.0467930  32.7779388
  34.9671674  29.4299817  31.3275576  20.5760312  43.5374451  74.0710783
  21.0006380  43.2214355  74.8686218  21.2999916  43.7419939  73.4792376
  31.6057539  66.2376833  73.0568695  31.1687827  65.5630302  72.5371313
  32.5256085  66.1809492  72.7982569  17.9566371  40.0153780  19.2860639
  18.6803746  40.0161982  18.6596167  18.1611395  39.2992330  19.8873556
  90.4603620  32.3524594  42.7358007  90.6413442  33.2843566  42.8584576
  89.5507286  32.2464466  43.0142975  18.4671642  27.8872712  18.3339431
  17.6712324  28.3823521  18.5279014  18.9069082  27.7998478  19.1796520
  20.7889581  73.2238293  52.0760012  20.5075097  72.8843164  51.2264442
  21.1897659  74.0695381  51.8751049  33.8420820  61.2693596  59.0878677
  34.6951842  60.8353233  59.0798187  33.8431382  61.8142414  58.3008909
  21.4560843  37.3978448  60.4549551  21.9793630  37.4574590  59.6556711
  21.1291575  36.4982247  60.4606581   7.1965480  53.1747103  52.3681259
   6.5105987  53.2945633  51.7113590   6.7801040  53.4145975  53.1959295
  86.1479112  10.0034117  72.5655460  85.7378360  10.8010935  72.8998566
  86.9103929  10.3128981  72.0765924  72.6315471  80.3608545  17.6569584
  72.2942468  79.9267133  16.8733909  71.8828985  80.8470829  18.0024173
  64.9389287  41.6231377  11.4092090  65.0267132  41.5870507  10.4567268
  65.7119136  41.1645825  11.7385223  12.0868373  82.9818249  47.4707699
  12.8299856  82.6084900  46.9968700  11.8744612  82.3278522  48.1366968
   3.2666406  63.3450937   8.3830810   4.1444337  63.1879091   8.7309361
   3.4054655  63.9293909   7.6377219  49.0053838  31.8890555   9.7232940
  49.2390721  31.4163144  10.5221393  49.8455243  32.1340687   9.3355301
  50.3947926  79.1613770  46.5936136  50.2746582  78.6136532  47.3693705
  50.6136942  80.0255775  46.9421482  86.5372238  74.9346304  53.5406637
  86.6853169  75.6320238  52.9019594  86.2518258  75.3912735  54.3320322
  17.8933479  20.7494004  23.2293823  18.2394458  20.0159676  23.7378338
  17.0348932  20.4496033  22.9303672  38.0474854  55.2105999  64.2862701
  37.8213239  55.8683586  63.6286688  38.9150357  54.9006081  64.0264750
  24.5962691  70.4427052  52.0434952  24.1358805  69.8530579  51.4463425
  25.4226208  70.6350851  51.6003656  35.8456993  68.3951235  67.3738718
  36.3979387  68.2438183  68.1409264  35.5594373  69.3044043  67.4604416
  46.8606615  58.2542467  69.4271088  47.4799728  57.5245762  69.4436264
  46.5735102  58.3040810  68.5153580  15.2566366  78.3248743   4.0851858
  14.7102003  79.0670427   4.3436935  15.9516840  78.2986506   4.7428014
  76.1690443   6.3252957  15.5225780  76.1343568   5.9960492  14.6244552
  76.9462936   5.9125884  15.8991268  85.6428855  25.1503928  13.9621856
  85.5475896  24.6629031  14.7804191  84.7547334  25.2012856  13.6088779
  76.7536514  25.9885581   6.6649559  76.7477386  25.9953387   7.6221206
  77.6678698  26.1473401   6.4299610  58.8726422  10.9072374  39.2354345
  58.2189986  11.4296125  38.7705636  59.5245716  11.5442347  39.5277476
  16.2576318  79.3991613  35.4681921  15.3093839  79.3542528  35.3455591
  16.6213214  79.1123295  34.6305227  10.9986424  63.4750891  53.3726978
  11.1372721  63.5946846  54.3122244  11.7361224  62.9350471  53.0886078
   7.8235675  61.6680844   1.6123941   8.5283352  61.9069321   2.2144678
   7.7981259  60.7116444   1.6408136  41.3740301  45.0177383  64.0042830
  41.8768644  45.0934029  63.1933165  41.0648346  45.9067678  64.1782188
  12.7851391  63.6379576  71.9770193  12.2127688  63.0652571  72.4875450
  13.6192393  63.6230469  72.4463654   7.9329730  34.6893866   2.8021362
   7.9946281  35.1485569   3.6397484   7.1868755  35.0953371   2.3608091
  77.0488303  23.2559187   2.1370199  76.7150610  23.1077607   3.0218246
  77.7526455  22.6150687   2.0361021  59.9149227  64.7178316  29.4401240
  59.5459747  65.2187109  28.7126422  60.8524990  64.9084330  29.4109964
  36.1060920   1.8255972  55.9219217  36.6319766   2.4498438  55.4219198
  35.4059520   2.3545145  56.3043928  23.3748841  69.5156908  49.5389652
  23.1022048  68.7385368  50.0267220  24.2576098  69.3084621  49.2322350
  36.4261153   2.0592188  15.8176327  36.2345662   1.6501497  16.6615534
  36.9832494   1.4257502  15.3653669  37.6733568  14.6090960  51.7948627
  38.6032566  14.4897245  51.6018152  37.6135245  14.5246767  52.7464533
   2.5538970  27.5425847  41.1719921   1.7368056  27.0530016  41.0776355
   2.7063300  27.5744469  42.1164348   1.5309994  77.4708843  56.0764551
   2.3957849  77.1564198  55.8128500   1.5670459  78.4170008  55.9357452
  83.3782915  67.8725672  45.4102421  83.4889040  68.6696720  44.8919582
  84.2487106  67.6963902  45.7674026  33.7957263  74.2103195  55.9891224
  34.0605354  73.3775043  55.5985737  32.9813719  74.4372129  55.5401516
  37.0497456   8.0109762  49.6466637  37.8356745   7.5103640  49.4277239
  36.8024703   7.6998877  50.5174732  57.7640297  53.7844593  20.9402492
  58.4035551  54.1891892  20.3542164  57.3890038  53.0683453  20.4276397
   4.1443281   2.5136160  68.6415529   4.6744852   2.4518942  67.8469706
   3.7748365   1.6374945  68.7516117  55.9209871  84.8494053  44.0818977
  55.0732517  84.4493198  43.8882399  56.5444040  84.3622780  43.5431051
  16.6875625  74.2435837  64.7900295  16.7664587  73.3204126  64.5497084
  17.5822830  74.5805311  64.7433853  16.1089492  67.1135712  71.8392515
  15.7046854  66.8515635  72.6663876  15.4930007  67.7401829  71.4595175
  25.6321907  68.8384676  38.6228275  25.2221727  68.0186749  38.3470464
  26.3325429  68.5680819  39.2166519  10.9428477  59.2357254  72.1551418
  10.6766784  58.6364841  71.4577961  11.4046788  58.6812878  72.7840662
  53.1604862  64.7047997  67.3637486  52.7026081  64.7711897  68.2017040
  54.0626335  64.9549007  67.5632954  55.5962669  18.2067091  17.1033123
  55.4947173  17.2846587  16.8672302  55.8593090  18.1907685  18.0235222
  16.9892585  51.4979076  65.1835108  16.1054564  51.7842627  65.4140043
  16.8988216  50.5618620  65.0049925  12.1392334  81.1999989  50.1367664
  12.3264909  81.8593311  50.8049297  11.2588346  80.8889008  50.3473663
  52.4476433  82.7035141  54.6778107  52.6459265  83.6399555  54.6767378
  51.7114830  82.6138783  54.0726137  78.0111858  10.8483576  39.4174814
  78.6054918  10.9291338  38.6714864  78.3650323  10.1199507  39.9278307
  86.4501110  54.7960711  64.4158983  85.6393150  55.0594759  64.8511648
  86.1636922  54.4178343  63.5845518  26.8224359  82.2308636  54.9736118
  27.6074648  81.9917965  55.4663658  27.1562266  82.6331234  54.1717386
  87.6781971  50.6395531  47.5788546  87.9409338  51.4203501  47.0914650
  87.0181657  50.2224016  47.0251656   9.7973757  82.5536426  20.5712917
   9.8268251  82.1248492  21.4265659   9.0397101  83.1364401  20.6215122
  86.6133196  44.6511078  55.6551361  86.6730551  45.4907703  56.1107969
  86.2550212  44.0494299  56.3076973  75.2710133  23.6599858  17.2776058
  74.9882369  24.1208394  18.0674675  76.1796432  23.9339383  17.1528080
  10.0701392  85.1164818  47.8701973   9.6553832  84.2575073  47.9499722
  11.0032523  84.9445724  47.9965973  23.1332326  84.6445370  34.6042037
  23.3855844  84.4167042  35.4989910  22.8267384  83.8209534  34.2247248
  10.3121349   8.5035204  48.7111521   9.9638387   9.2578482  49.1864538
  10.8221373   8.0238127  49.3638515  80.6744787  18.2735895  52.7640820
  81.2166854  18.2074141  51.9780350  81.2133809  18.7620520  53.3863544
  38.1016903   4.4136690  61.2349701  37.1480064   4.4934820  61.2536621
  38.3454685   4.2410826  62.1443748  25.0828004  66.3061762  32.2886372
  24.5731235  66.7984343  32.9321742  25.9811878  66.3411760  32.6171327
   1.9153160  56.7287445  52.5513411   1.8539493  55.8644819  52.1445131
   2.8048384  57.0230532  52.3554707   7.4372494  67.9877234  69.8179340
   8.0339378  67.3733759  70.2454519   7.6799440  67.9527330  68.8926744
   8.7200463  71.3925171  67.3287201   9.5199353  71.4255047  66.8040133
   8.8464773  72.0625496  68.0005121  11.6763784  25.1087363   4.0089300
  12.4001457  25.5705960   4.4320991  11.8404676  25.2138598   3.0717733
  58.5945960  20.1498579  53.1282091  58.8037464  19.7658037  52.2767448
  59.4186660  20.1182341  53.6141539  59.4202377  25.9134324  13.3800056
  58.7411963  25.6783087  14.0123394  58.9603524  26.4235194  12.7132538
  46.2775040  74.4390535  58.0257368  46.5940762  75.3380585  58.1140614
  45.7767248  74.4405222  57.2099876   5.2333619  32.4966223   2.5448587
   5.5129839  33.3660061   2.8316000   4.3733193  32.3767121   2.9475763
  79.1073982  65.1898956  70.0566339  78.2470349  65.0267315  69.6701288
  79.5375935  64.3348169  70.0531483  49.4232115  28.7865805  54.3359995
  48.5726639  28.8876986  53.9087105  49.2550453  28.1912016  55.0663948
  33.1923223  76.9209528  61.2293100  32.8854156  76.6470194  62.0936060
  33.4641862  77.8308964  61.3489962  39.0872836  81.3112831  29.0002012
  38.6896443  80.7964802  29.7024131  39.8620558  80.8103466  28.7452078
  38.4484076  60.9611368  17.9433131  37.9750013  61.7238712  18.2755160
  37.9687858  60.2103901  18.2934141   6.1025287  23.8765080   2.7993658
   6.6507508  23.9706356   2.0203760   5.2165939  23.7601597   2.4561289
  25.8669000  16.8376993  44.1406012  26.4484801  16.0843824  44.0380716
  25.1660856  16.5232538  44.7117519  67.1983044  69.0826447   0.0766304
  68.0349373  69.2897828   0.4930046  66.8367975  68.3718140   0.6060388
  27.0123672  72.5784016  47.4500513  27.3298979  73.3434963  47.9296732
  27.7850151  72.0229340  47.3466063  90.3146594  57.4515088   1.0330131
  90.2350300  58.3719761   0.7827785  91.2433880  57.2511322   0.9166076
  90.7356743  49.3085623  65.8071327  90.3105252  48.5009432  66.0956335
  90.0229284  49.8420382  65.4555225  15.5138099  35.9332228  53.7256432
  15.5089283  35.4907823  54.5744371  15.8016741  36.8247628  53.9219189
  58.6786576  62.4085553   3.3104017  58.9864363  61.5022690   3.3226898
  57.8372802  62.3696167   2.8556469  10.6713593  45.1860523  30.6589603
  11.2259352  45.5731010  31.3363600  11.1821282  45.2708912  29.8538828
  10.6042673  38.5049374   3.0109003  11.4082958  38.7692769   3.4580019
   9.9003555  38.8539822   3.5576227  89.0247650  45.9740591  65.0729752
  88.6758878  46.8618917  65.1521254  88.4546763  45.4423046  65.6283760
  71.2267928  31.7356760   0.3780916  71.2787848  32.6556284   0.6373575
  72.0805912  31.5481217  -0.0118849  83.6671708  31.0974693  43.0607843
  83.3708356  31.6820121  42.3631287  84.1157434  31.6725469  43.6807060
  83.7128084  23.7038262  10.8585670  82.8545945  23.4917576  10.4915168
  84.3314069  23.2048638  10.3250816  63.2450124   9.0303396  34.8679543
  62.7879735   9.8578810  35.0180435  64.1027948   9.1532969  35.2745533
  41.0026789  68.5833263  57.3152828  41.0387659  69.3485355  57.8891993
  41.9186640  68.3907366  57.1150017  25.2635574  52.8270721  68.3794403
  25.6800008  53.6863756  68.3131123  24.7832441  52.8569078  69.2068672
  90.4069131  17.9909832   9.9472358  89.5857423  18.4265215  10.1757457
  90.4648488  18.0732472   8.9953354  69.6673581  12.5147985  52.4584436
  69.6114942  13.1391119  53.1818771  70.5664417  12.5966333  52.1403456
  31.7786336  69.6597099  64.6683979  31.1686349  70.3074503  65.0213289
  31.6287494  68.8762903  65.1975727  90.7321283  24.6916937  60.5671930
  91.2150070  25.1357245  59.8701382  90.5586406  25.3770517  61.2124968
  30.5361034  26.1203415  25.4981544  30.6045343  25.7106812  24.6357563
  30.3824808  27.0465739  25.3118255  54.3952370  58.8975906  70.2134705
  54.1824865  58.2312632  70.8669090  54.0254545  59.7065496  70.5671358
   0.5482580  20.0787289   4.5937278   0.1809837  19.3070681   4.1625908
   0.1637627  20.0691016   5.4702594  53.3963295   1.8787741  54.6893978
  53.0516144   2.7706598  54.6451998  53.0976864   1.4661287  53.8789892
  38.1900152  18.4506392  43.7715721  38.9487245  18.4422277  43.1880283
  37.5442430  18.9915632  43.3170271  61.2124414  17.5567086   6.1367443
  60.9380062  17.1045477   5.3389528  60.5282669  18.2083256   6.2901523
  53.8840914  74.8156834  43.1018066  53.6820126  73.9250612  42.8151178
  53.8714600  74.7682476  44.0577507  10.7639527  57.1089077  58.8012123
  10.1781523  57.3694420  58.0904436  11.1314273  56.2728691  58.5144472
   3.3136444   3.4338259  48.5544252   4.1798143   3.2847094  48.9335585
   3.2086306   2.7309584  47.9131889  24.4875194  19.8387463   4.0973547
  23.9992000  20.2985747   4.7802379  24.1934968  18.9301999   4.1631582
  54.3953678  19.2494844  65.8056831  54.8328945  18.5601877  66.3053656
  55.0770375  19.5985006  65.2314472  65.2777573   8.0986475  70.8834982
  65.0587794   7.6526331  70.0653553  64.4476077   8.4680532  71.1845303
  14.1481306  38.8104470  10.0213649  14.5367195  39.6591885   9.8095443
  13.8946058  38.8859780  10.9412887   2.4556665  14.0154432  26.1448503
   3.1414299  14.6456408  26.3657808   2.2600679  13.5746264  26.9716859
  56.6524737  56.3038380   8.2537487  56.3875400  55.5081589   7.7922943
  56.6392400  56.9858296   7.5822284  89.6860432  62.7169418  47.4515581
  90.2765492  62.4133778  48.1410408  89.0493188  62.0090961  47.3527241
  39.2645025  74.2481422  63.2653761  39.6885276  74.3789721  62.4172497
  39.7938704  74.7575903  63.8789415  20.3829814  38.0797322   1.5218094
  19.5111085  37.7763398   1.2687853  20.5290986  37.6948388   2.3859432
  59.7197601  40.6439661  56.1364651  60.1153942  40.1430773  55.4231548
  58.9818975  41.0981726  55.7296705  40.7783318  73.1227446  69.5375109
  41.0700703  73.7815237  68.9073324  41.4658356  72.4568796  69.5235062
  45.5412131  10.5834467  36.1723259  44.7252899  10.3624613  36.6214016
  45.9110098   9.7380764  35.9176948  85.1810234  10.9564478   2.5391081
  86.1369269  10.9614499   2.4895504  84.9795096  11.4582331   3.3289411
   1.6338541  37.1941979   0.7158401   1.6907383  38.1477959   0.6555536
   0.7010271  37.0032341   0.6178644   6.6736533  37.8401120  45.4755047
   7.5227715  37.6612313  45.0714805   6.0340144  37.5068028  44.8462227
  80.7943698  18.9065050  45.9421682  81.7094156  19.0758585  45.7180357
  80.4463169  18.4332155  45.1864672  39.0441653   2.1413015  56.8254614
  39.3785288   1.2601828  56.9929552  38.4969714   2.0456671  56.0459328
  66.4231678  11.3526224  64.9598646  66.5868660  12.1417593  64.4434309
  66.2659594  11.6754030  65.8471823  70.8641594  46.0854371   4.1642788
  70.9252827  46.5072758   3.3072212  71.6142731  45.4915173   4.1929510
  60.9500613  34.3064768   4.4133976  60.6398382  34.0329440   3.5501650
  61.5742346  33.6275847   4.6697929  24.3998170  75.1067352  42.0170069
  24.7982025  74.2431402  41.9086981  23.9402437  75.0550890  42.8550720
  20.3742029  59.1061718   5.5914524  20.6109430  58.8507493   6.4830520
  21.1290647  59.6032555   5.2762869  89.2267506  39.7472508   7.8808811
  90.0186317  39.8734791   7.3581722  88.5239690  39.6685822   7.2357872
  33.1512117  60.3190517  66.1919785  33.5286498  61.0337639  66.7047691
  32.3865962  60.0404787  66.6959572  10.7854940   4.9727232  38.1285789
  11.3319875   5.6690819  37.7643516  10.1160051   5.4334242  38.6343219
  28.2113266  57.0325136  57.3221397  28.8547945  57.7349043  57.2281837
  28.3400846  56.7073441  58.2131624   6.6674091  17.8755648   3.7577703
   5.7573582  18.0485852   3.9988210   7.0673443  17.5376828   4.5590904
  36.6059279  76.6000748  40.6104040  36.2379146  75.9278011  41.1838579
  36.7074299  76.1639071  39.7644210  35.1352978  59.7782040  68.2463980
  34.7543502  60.6168270  67.9859638  35.3850842  59.9026394  69.1620159
  18.5493804  56.8783505  14.5823887  18.5888244  55.9355862  14.7432640
  19.3484308  57.2229989  14.9810913  12.9185583  56.8956215  16.9956806
  13.6388065  57.4777825  17.2376850  12.9821302  56.8189080  16.0436752
  31.3831401  77.3491716  37.0573187  31.9898105  76.7846584  36.5782499
  30.6074977  77.3960638  36.4983773  75.8757802  24.1485857  67.8480673
  75.1939794  23.5266089  67.5940609  75.9323188  24.0664362  68.8000584
  49.8636493   5.9279226  64.2398691  50.3080281   5.9250330  65.0876617
  49.9267599   6.8345617  63.9394569   6.1651497  26.2280726  58.6331272
   5.6338244  26.0183214  59.4011974   5.5296640  26.4866327  57.9656410
  -0.0055094   6.2371992  61.9720602   0.7435207   5.9223722  61.4660263
   0.2070980   7.1486544  62.1727610   8.8060404  39.6553547   4.5757320
   8.5739542  39.4988091   5.4910782   8.9422823  40.6012566   4.5215824
  70.1079151  33.1062960  50.9529257  70.4127952  33.5863661  51.7228699
  70.9056636  32.7517580  50.5603361  63.1592699   4.1983961  65.8908749
  64.0695807   4.2959188  66.1702538  63.2073661   4.1303324  64.9373102
  81.6826725  78.4903049  43.9757013  82.1116447  77.9061222  43.3504486
  81.6530037  77.9888725  44.7905159  17.9012561  75.5833006  39.4966602
  17.5257874  74.7069454  39.5818281  18.0413151  75.6935072  38.5561991
  27.4564029  57.5203927  20.0567653  27.2450925  56.5948231  19.9346950
  28.2253076  57.6652749  19.5053795   1.8753906  68.2773685  57.6546955
   1.1068286  67.9556942  58.1259394   2.1740967  67.5259686  57.1424484
  16.0336685  56.7179632  65.2440453  15.2134907  56.6236496  65.7284451
  16.7148972  56.5115404  65.8840036  89.7898483  75.8139086  72.8150129
  90.7463074  75.8296680  72.7807570  89.5356750  76.7365217  72.8352880
  26.7545271  78.7539911  34.4641924  27.6137829  78.6766911  34.8788452
  26.8470883  79.4875002  33.8562250  18.1960993   9.6637510  59.8668718
  18.9096861   9.8055147  59.2448425  17.7517157   8.8787245  59.5467281
  55.3307649  12.1529936  57.1092844  54.4006463  12.1968817  56.8875122
  55.7711693  12.0205950  56.2697935  23.0914593  63.1256008  25.5532122
  22.7790523  63.8991547  25.0839019  23.8815451  62.8621006  25.0814486
  13.6875820  82.0214844  59.9292946  13.2466257  81.1832619  59.7908306
  14.0376389  82.2529602  59.0689945  30.6025171  85.0349808  64.8501015
  31.5056372  85.0207043  64.5332384  30.1580548  85.6611633  64.2786360
  84.7236984  46.2817986   7.6949337  84.7839825  45.8888085   6.8242099
  85.5943101  46.6464837   7.8539112  49.5594025  64.6469641  67.2065258
  49.6640301  64.8953485  66.2880516  48.9373970  63.9196253  67.1885824
  54.4847584  78.7964344  47.7593231  55.3776979  78.9359808  48.0746412
  54.3081856  79.5514917  47.1981287  30.8365747  25.8637880  64.5344734
  30.7309622  24.9900602  64.9108744  29.9892034  26.0555243  64.1326857
  30.2201176  72.3748493  72.1448946  31.0771108  72.3243904  71.7215157
  29.8900914  73.2434082  71.9148493   9.8184921  51.2772019  18.2969215
  10.6700899  51.6489918  18.0671814   9.7908451  51.3146813  19.2529895
  44.8238325  82.8394604  52.8897858  44.0644217  83.4173775  52.8153610
  44.9048376  82.4377918  52.0247221  12.1953087  23.7048506  56.3113737
  11.3059931  23.5646318  55.9862757  12.7432232  23.1486010  55.7576561
  38.2832646  40.7784748  71.7159081  39.1616535  40.5247307  71.4325714
  37.9028463  41.2157202  70.9541178  47.1646929  68.7754917  60.4148436
  47.5528240  69.1249466  61.2170076  46.2322283  68.9773607  60.4922771
  39.1174194  14.6109175  65.8833933  38.6973395  14.2550539  66.6664171
  39.0778598  15.5600714  66.0007429  19.9358894  60.5515511  20.8556106
  19.8988105  61.4985783  20.7214382  20.0091173  60.4467328  21.8042305
  11.7267372  75.5724080  11.0015991  12.3408653  74.8631222  10.8118751
  11.1712028  75.2276356  11.7006996  10.5067684  21.0533507  11.4055660
  10.4457857  20.6106598  12.2520473  11.4312602  21.2875779  11.3238170
  67.0146220  37.6019604   5.3179577  66.1251276  37.6628811   4.9696472
  66.9169824  37.1249611   6.1420753  38.8419151  81.7012310  67.8556776
  38.9509010  80.7593727  67.7242851  39.6508241  82.0854092  67.5175953
  21.5654851  41.0471947   6.9700935  21.8137123  40.3967888   6.3131359
  21.1935188  41.7692692   6.4636543  30.8408856  75.9004211  41.6849041
  31.4497161  76.1425686  40.9871101  30.1729894  75.3724003  41.2474775
  57.3950481  80.1729488  68.4253693  57.7600002  81.0540867  68.5068178
  56.9621801  80.0145054  69.2642689  45.4621744  72.5931644  45.5557680
  45.8203268  72.6562977  46.4411879  44.5142937  72.6502800  45.6761837
  34.6462083  82.6297379  39.3631458  34.1714239  82.9447460  38.5940027
  35.2029037  81.9262028  39.0294385  47.6428970   3.6507391  69.3306494
  47.1163722   4.2766356  69.8278999  48.2273146   3.2599806  69.9802589
  74.9153476  46.2540085  19.7775963  75.7331043  46.7372353  19.6592548
  74.3264954  46.8794854  20.1998069  76.2982532  27.4126123  43.6591625
  75.5205223  27.0520090  44.0849924  76.9035264  27.5924753  44.3785572
  65.3223913  72.6133950  41.7312267  64.3915420  72.8201325  41.8149593
  65.3658753  71.6618855  41.8259361   1.8959547   8.8246138   4.6555307
   2.5942875   8.9124186   4.0067938   1.9618966   7.9186184   4.9572876
  15.6761575  71.0704947  58.3647585  16.5298152  71.4546728  58.1649923
  15.8801079  70.2057457  58.7209129  87.6722595   4.3309092  53.9471149
  88.0438539   3.6536097  53.3819580  87.3135921   4.9787401  53.3405638
  19.6401894  70.3676128  36.6199350  19.9035192  69.9240637  35.8136153
  18.7186944  70.5871677  36.4825487  14.1327171  23.3487009  48.8588810
  14.5009737  24.1985678  49.1004324  14.6078711  23.0982374  48.0665874
  43.2414341  69.6980095  39.4597268  42.7931166  69.1161346  38.8459945
  43.2819033  69.1998053  40.2760506  47.8940948  16.0844397  49.5963621
  48.1010505  16.0032629  48.6653328  47.6402339  15.2009367  49.8632050
  73.6618023  70.2844841  25.9412887  73.6476057  70.2845604  26.8983772
  74.5400577  69.9785454  25.7148006  50.6995249  72.8637362  55.2980518
  51.2812901  73.4542084  55.7767200  50.3669453  72.2627258  55.9646940
  43.5599613  78.9468861  52.8200674  42.8776979  79.5368004  52.4995327
  43.9285898  78.5545397  52.0286036  38.0327272  75.3824949  49.2314386
  38.2023382  75.7142162  50.1131582  37.1144652  75.5971766  49.0672970
  74.4053241  32.5692534  27.6021552  73.9932939  32.1421122  26.8511462
  75.2577611  32.8574823  27.2758102  53.6682844  81.8131542  51.9852781
  53.7347460  80.8839035  51.7654753  52.7510071  81.9365025  52.2294521
  59.1037750  77.8123379  49.4450712  59.9576759  78.1599474  49.7024679
  59.0839005  76.9290018  49.8132467  70.8100625  -0.0184370  68.2321835
  70.3026148   0.5219053  68.8377857  70.4758521   0.2142691  67.3659372
  21.7044473  46.8447733  57.4420500  22.3127103  46.4271021  58.0518007
  20.8420730  46.5252209  57.7074337  65.4942199  22.6107382  51.9169760
  64.6354720  22.6372980  51.4949894  65.3938934  23.1540464  52.6986313
  58.2205439  69.5197105  46.7828846  59.0921640  69.3749714  46.4146996
  57.6578140  68.9017534  46.3163090  10.0626089  22.3323710   5.7886245
   9.4955446  22.6252444   6.5019920  10.9297134  22.6654370   6.0197761
  10.0619365  27.6475604   0.2701833   9.7413207  26.9232352   0.8075788
   9.5268942  28.3962948   0.5335357  84.6954155  58.3216429  60.3398132
  84.8934269  58.2195139  59.4089031  85.5401993  58.5195112  60.7440758
  77.1645376   2.3347162  50.7973433  77.0008537   1.4246058  50.5500937
  76.8611928   2.3950933  51.7031956  17.7349473  37.8412755   1.0195854
  17.1063520  37.2980912   1.4950397  17.1973897  38.4981854   0.5771663
   5.3981619   4.9617361  34.3391180   5.9105759   4.3981337  33.7594461
   4.9461203   4.3547606  34.9251747   2.5941259  50.7657957  69.4091463
   2.4779804  49.8158693  69.3894434   1.8047163  51.0947418  69.8390961
  32.6818638  27.1068262  55.2027321  32.2673683  27.9262327  55.4729033
  33.6169796  27.3093103  55.1746702  84.6106264  26.0103678  58.9289999
  85.5346033  26.1373590  58.7136507  84.5880052  25.1819490  59.4080114
  34.8661574  28.2364630  60.5641556  34.6786260  27.4093126  60.1204348
  34.2082929  28.2909369  61.2573195  26.4425278  55.6006575  69.3832684
  26.0138154  55.7097960  70.2321100  25.8453870  56.0123777  68.7586546
   6.4425068   6.5053247  64.8754215   7.0109730   6.8332743  64.1786242
   6.2026911   7.2852396  65.3758669  65.5101013  67.2996616  43.3058167
  65.9437799  68.0258512  43.7539196  66.2275791  66.7506170  42.9895830
  49.5393523   2.9725718  64.7255516  49.2109927   3.0258154  65.6230927
  49.9403032   3.8269972  64.5661163  37.7415277   9.2441733   4.2484787
  38.0532600   8.4532435   3.8086107  37.1790363   8.9209206   4.9522855
   5.5922585  28.1270670  28.1091452   5.7786493  28.9473986  27.6524711
   5.7555370  27.4468016  27.4558377   7.1975018  50.3986104   4.4013193
   6.5674664  49.9456341   4.9617651   6.6682006  50.7635148   3.6921528
  63.5884666  73.1290865  44.6183968  63.3246374  73.4599495  43.7598181
  62.7925539  72.7388620  44.9796152  84.5686786  38.1910450  18.0434635
  84.8755091  38.1035454  18.9459255  83.9400618  37.4775441  17.9339721
  77.3974964  13.5200094  29.1097450  77.0230409  14.3949770  29.2120171
  77.0787736  13.0327772  29.8695159  43.6691761  68.0673838  41.8033457
  43.6742258  68.5981083  42.5999260  44.5937061  67.8971100  41.6231203
  35.3618860  83.1374359  63.6657715  35.5702305  82.2174835  63.8285971
  35.3853035  83.5451698  64.5314693  40.2052212  84.0502071  57.1918440
  39.2993522  84.3463326  57.1027565  40.2334404  83.2194996  56.7171192
  59.9147746  12.6880049  50.4394722  60.3981515  11.9792246  50.0149632
  59.3514367  13.0400442  49.7503042  38.4644842  68.8175154  52.8294086
  37.7853799  69.2873478  52.3453569  38.4631133  69.2215681  53.6971474
  88.3391782  35.2978109  64.5014191  87.9249593  34.7430681  65.1624107
  88.2214090  34.8204493  63.6801434  58.3320618  82.3488045  46.4815760
  58.4709167  83.2745361  46.2816477  59.1485262  81.9224358  46.2211370
  21.0729074  81.8515682  54.5614958  21.7106795  82.5637245  54.6095276
  21.3619161  81.3208866  53.8191462  64.4343063   2.0358252  70.8977127
  64.5008727   2.7770018  71.4997482  64.0835997   2.4132608  70.0910044
  27.3073261  38.0383618  21.6817596  27.9364388  37.7802308  21.0080936
  27.7993934  37.9872258  22.5011947  32.3763680  84.3655205   5.6221169
  31.5606809  83.8874054   5.4728067  32.1973348  85.2500725   5.3031564
  87.1465032  69.8408921   4.1305235  87.6054495  69.7674782   3.2937362
  87.3895090  69.0473206   4.6074083  33.3692408  82.6700211  66.3627481
  34.2317224  82.2963428  66.5436602  33.1338620  82.3235703  65.5020523
  39.2895555  56.9138336  66.1752367  38.5836911  56.9296789  66.8215656
  39.3739581  55.9910393  65.9353209  59.1789293  65.9497499  40.1068020
  59.2557383  65.1999092  39.5168281  58.5942507  66.5547514  39.6503377
  66.7583081  34.1998934  63.3661032  66.9278904  33.4903025  63.9857435
  65.9134647  33.9788412  62.9741812  30.6283951  79.9817133  59.9230862
  30.6950784  79.0470791  59.7275066  31.3678122  80.3764820  59.4608688
  77.2766832  71.0151958  69.5263767  76.6905681  71.6651821  69.9139595
  77.7145985  71.4818335  68.8145351  66.9645783  12.1884417  73.6864853
  66.8471810  11.5525793  72.9806995  67.7182814  11.8632959  74.1788769
  75.9160614  77.1250010  70.5586863  75.0452852  77.2915077  70.1977777
  75.9352064  77.6215363  71.3768101  11.5619545  26.4680170  54.7003794
  11.7416029  25.7941984  54.0446854  11.7657309  27.2924017  54.2586899
  46.0666232  42.5526459  11.4868667  46.5214353  42.4558098  12.3235347
  46.5903168  43.1905205  11.0019996  81.7307016  14.1332411  60.3643894
  82.0512554  15.0347208  60.3929663  82.2246906  13.6815809  61.0486507
  47.5574732  80.4475212  49.5625257  47.6945925  80.5411243  50.5052185
  48.1147957  81.1203384  49.1714525  85.9881728  29.6290858   6.6768482
  85.8873647  28.8838894   6.0845974  86.1090987  30.3811104   6.0971286
  83.6683628  19.1106199  39.5161533  82.9276534  19.3791937  40.0597048
  83.3049127  18.4515451  38.9247441  28.2152416  41.0543377  11.8884876
  28.8012840  41.6202576  11.3859680  28.2567455  41.3985188  12.7807071
  20.4744887  71.2124729  26.9090247  20.4172778  70.5609179  26.2101412
  19.7929835  71.8506098  26.6979265  71.3412588  31.4215596  23.6556842
  71.2143510  31.1161025  24.5539119  72.1621423  31.0149224  23.3781459
  47.1046266  20.8218073  73.3066988  47.0515140  20.3189730  72.4939442
  46.3890418  20.4834150  73.8449001  82.1750586  20.5511649  18.3543708
  82.7195041  20.6703789  17.5761726  81.3418167  20.9651024  18.1294372
  84.2359934  79.6329069  51.4316082  83.8747392  79.0874338  50.7329035
  83.7422869  79.3806744  52.2119045  18.3661033  45.6294568  11.3919761
  18.5908367  46.1547596  10.6240013  18.1796218  44.7588856  11.0404613
  24.5804286  85.2265835  52.4242449  23.9035201  85.1280594  53.0938148
  24.9273777  84.3428135  52.3025465  84.3879339  28.8938879  41.6610146
  83.6196205  28.3360838  41.7826080  84.2139884  29.6628260  42.2038841
  61.1066958   2.0248293  65.7518816  61.7917415   2.6478743  65.9942722
  60.6075140   2.4716829  65.0682354  19.5613551  80.8377171  62.4176931
  20.4387546  81.1182880  62.1575403  19.2117941  81.5761662  62.9164171
  19.1596246  48.7236023  55.3778124  19.0998149  49.6783447  55.4113531
  20.0874853  48.5365915  55.5204058  54.9427458  13.2782816  65.6687212
  54.8469445  13.5111498  64.7452354  55.8484336  13.5047125  65.8801222
  50.7176685  68.2394123  70.2419329  50.3042603  67.4213314  69.9661207
  50.4790020  68.3292055  71.1645412  40.9325838  53.8768339  73.7851238
  41.1048985  53.5555935  74.6701908  41.1764097  54.8019934  73.8144112
  54.6737194  84.1805267  58.9767313  54.5514441  84.6636772  58.1595135
  53.7851572  84.0000820  59.2835379  65.0999641  70.2949810  37.4639583
  64.4383144  70.7089424  36.9098043  65.6052971  71.0257196  37.8201842
  77.1973916  35.7078527  45.4170322  76.5340396  35.4596495  46.0609198
  77.5013992  34.8761629  45.0535727  77.8171655   4.5791124  54.3176174
  77.7878209   5.1984667  53.5883904  78.4385940   4.9651693  54.9348831
  48.9614221   7.1727728  60.7984257  48.0579862   7.3992132  61.0192442
  48.8901504   6.3532900  60.3089428  49.9090907  10.2404951  49.9988174
  49.1904613   9.9872374  49.4194508  50.6844469   9.8360895  49.6095705
  38.0353665  68.1672955  62.8535128  37.8409386  67.2954988  63.1976080
  38.5759854  68.5764027  63.5292292  33.3712840  58.9381504  23.5191107
  32.5599551  59.4400740  23.4413099  34.0657163  59.5830107  23.3843899
  44.2355347  79.6736050  37.3779678  44.1021442  79.7776461  36.4358330
  43.4618473  79.1966200  37.6781774  39.3850875  74.8823786  59.5866966
  40.1330280  74.8396492  60.1825094  39.1626906  73.9672565  59.4154644
  47.3456764  76.5750027  47.3803902  48.0732059  76.0833263  46.9993639
  47.2376728  76.2031126  48.2557535  60.0674343  85.5953693  48.5969067
  59.5772791  86.4052296  48.4550810  60.8069754  85.6539536  47.9920292
  81.0601779   2.4097990  74.0691757  80.2145025   2.7320074  73.7573385
  81.0836526   1.4933657  73.7937880  42.3982617   1.7189001  74.2928743
  42.6619359   0.8059858  74.4082308  41.4600703   1.6756987  74.1080427
  54.3522310  77.9058027  63.1985712  53.8125706  78.6350107  62.8931952
  54.3501663  77.2848225  62.4701405  14.3219995  53.1360149  68.1628370
  14.0050447  53.9060545  68.6348629  15.2743816  53.2319021  68.1602144
   0.9705763   0.6630873  53.0431700   1.8267994   0.3220533  53.3016586
   0.3920107   0.4340433  53.7705183  39.5638800  79.1051674  72.2961569
  39.0607715  78.7826014  73.0438662  40.1549721  78.3850050  72.0765877
  52.7692699  79.4873047  37.4541879  52.7690172  79.9804735  36.6338110
  51.8430853  79.3376684  37.6439810  50.6091353  13.7886690  62.7461290
  51.1657211  13.0862593  62.4098825  49.8840090  13.8386320  62.1232891
  51.1605498   9.4260954  72.2466469  50.2546510   9.3995451  71.9386292
  51.6693803   9.6699690  71.4734364  50.1920971  23.6729692  60.6984186
  51.1357399  23.8169741  60.7693529  50.1111564  22.8411936  60.2317095
  13.6223400  79.3101883  54.6089077  13.3412051  80.1786804  54.8968697
  14.1776109  79.4783831  53.8475847  49.7410270   0.1679491  59.0711975
  49.3499228  -0.0274588  58.2196760  49.7813448   1.1237883  59.1025686
  53.2401752  66.8038416  65.6576538  53.2411766  66.0214663  66.2091303
  52.6017618  66.6118860  64.9707699  23.0755973  66.2232542  55.3114986
  23.9076447  66.6171741  55.0492811  22.8558373  65.6282473  54.5946264
  87.6951715  43.4396338  70.0788260  88.6081907  43.2493090  70.2942467
  87.3490449  42.6104044  69.7489643  14.8615600  29.7164900   8.9505031
  14.4458105  30.5169613   8.6301449  15.5176736  29.5050652   8.2863834
  74.7815629   4.0780520  64.7312832  74.4405195   4.1658472  63.8412189
  75.6136247   4.5510172  64.7166967  90.2782556   4.6279310  50.2115965
  90.0457450   3.9713739  50.8681822  89.4461318   5.0407480  49.9805498
  67.2994563  23.1795572  66.4855719  66.7912098  23.8505625  66.0298681
  68.1986996  23.5070967  66.4680290  61.6723367  16.3526510  55.3325796
  61.0243317  15.7612394  55.7154036  61.5718767  16.2386297  54.3875217
  76.8121025   0.0788092  18.9833868  76.7211315   0.4564165  19.8582387
  76.2802669   0.6432985  18.4223771  83.5427781   9.6446013  56.5601254
  83.3260747   9.0339254  57.2646427  84.3269035  10.0983213  56.8691874
  83.8739559   2.2113108  60.1267147  84.5642539   1.5533709  60.2093744
  83.8604661   2.4285006  59.1945744  63.9815092  65.2664661  71.8611622
  64.2671967  65.2910137  72.7744055  64.2576361  64.4055223  71.5468884
  54.7767040  13.4052252  61.9936943  54.2917558  13.0159830  61.2659931
  55.3879210  14.0124296  61.5766239  58.1324339  68.1297874  50.5043364
  57.5491953  67.4454737  50.1760340  57.6305676  68.9390802  50.4073477
  86.8551438  31.2327416   8.9211967  87.5250070  31.6976340   8.4198024
  86.2971800  30.8275635   8.2573154  46.6451311  82.9773235  54.6754789
  47.4300909  83.4392452  54.3810368  46.0781384  82.9531670  53.9046574
   1.4344530  14.2312883  51.9703007   1.9995337  14.0486502  52.7210093
   1.8906527  13.8386892  51.2260008  49.2486700  13.2785868  65.1452923
  49.8389062  13.6191248  64.4730663  49.8034283  12.7213453  65.6911469
  38.5714698  65.3401089  42.5322962  37.7113104  65.1465845  42.1595955
  38.4039068  65.4725742  43.4653616  31.1045171  41.1259301   6.8680217
  30.8058979  40.8352025   7.7297237  31.7926647  41.7642338   7.0558002
  43.6542608  40.8386357  24.3120315  42.9827215  41.5027173  24.4677856
  43.3515645  40.0728447  24.8000553  32.7880384  54.7125561  24.6885040
  33.3912946  55.4503376  24.7779300  32.0302774  54.9570115  25.2197960
  88.9110892  46.8045647  11.6679790  89.5878809  46.4566834  12.2486332
  88.2975190  47.2478325  12.2538688  18.7333834  69.4417429  29.1497755
  18.0591714  69.8491859  29.6935225  18.2909644  68.7016439  28.7341452
  52.4619123  18.3363985  17.8159595  53.2731792  18.7550329  17.5281632
  51.9661733  18.1949972  17.0094371  45.6821203  66.1424923  60.6589651
  46.5857029  66.1677361  60.9738159  45.3544092  67.0307064  60.8000898
   9.6066028  77.6481199  60.0077581   9.2419595  78.2761002  60.6313801
   9.6452576  78.1274080  59.1800976   8.6369087  42.3440011   4.2443016
   8.0675222  43.0433781   4.5650890   9.2273642  42.7790387   3.6292055
  30.3377419  71.4910706  14.2640808  31.2207966  71.8059572  14.0709999
  30.2008038  70.7701500  13.6494568  29.2460728  52.6945305  65.0373077
  30.1151109  53.0886316  65.1127100  28.7560940  53.0515337  65.7780504
  26.4012265  74.8254299  73.5446405  25.5134630  75.1050329  73.3211994
  26.9645619  75.5177116  73.1987572  79.0790054   2.7978586  42.8393221
  78.1693479   3.0508589  42.6819992  79.2967674   2.2199129  42.1080303
  40.9363414  29.6773512   3.2924249  40.9616615  29.6716149   2.3355749
  41.8541433  29.6138270   3.5566929  53.2318994   8.1652521  65.3045416
  53.7463185   8.8381933  65.7503700  53.8819691   7.6260637  64.8540831
  33.8606836  58.0422623  34.3669441  34.4705202  57.8930027  35.0894764
  34.0361120  57.3282177  33.7540844  19.3788891   3.5571360  63.1000328
  19.6057777   4.4553255  62.8591537  18.4564810   3.4703898  62.8594971
  71.6862183  50.0549347  28.1073787  71.2432354  49.5810730  28.8112667
  72.6105540  50.0436432  28.3557918  87.9831403  20.7505209  22.7691391
  87.2290891  20.3068478  22.3808220  88.6368625  20.0600131  22.8790500
  62.8786417  10.5660700  63.4710121  63.7359401  10.2373766  63.2003975
  62.9463693  11.5163778  63.3784914  89.7491067  40.0091202   4.3886640
  90.2637260  40.2240975   3.6107328  90.4005425  39.7730572   5.0490692
  62.1148559   7.7057718  46.3042974  62.8193327   7.4069857  45.7292557
  62.1894452   8.6600470  46.2985182  70.9220954  22.6854967  67.6389980
  71.5969488  23.0043100  68.2383060  70.4056713  23.4624170  67.4246883
  41.2500858  64.2831373  64.4619560  41.0694742  63.4023666  64.7903728
  40.4019785  64.7262812  64.4859171  76.2520238  17.0397638  51.4922523
  75.3493377  16.8753504  51.2195539  76.6273853  17.5561976  50.7790661
  87.1193906   8.6015390  40.8879948  86.2266275   8.6982035  41.2194538
  87.6203224   8.2823919  41.6386271  29.3851519  82.9437733  73.4855890
  28.8892817  83.3015156  72.7491379  30.1236176  83.5435867  73.5910416
  34.8331001   0.4047655  45.1521635  34.7771316   0.8107256  44.2871237
  35.2150088   1.0821127  45.7103539  58.9889288  75.3015852  50.5807781
  58.3186865  75.5419064  51.2205076  58.5536385  74.6763897  50.0012207
  30.4590583  82.7317047  47.1435452  30.2053404  82.8900814  48.0528116
  31.4159346  82.7143764  47.1614265  53.2741451  85.4084778  67.2009754
  53.7806082  85.2667809  68.0007601  53.2228661  86.3604641  67.1154547
  40.4982138  76.1943674  29.2730427  41.0927916  75.4801941  29.5025468
  40.5378389  76.2414026  28.3178186  18.1692724  37.4436640  61.4725971
  18.9302568  37.3017096  62.0356131  17.7444916  36.5872835  61.4236116
  19.8683815   5.7930159  45.3133821  19.1648655   5.9234118  44.6775389
  20.0575237   4.8555826  45.2724266  35.2811640  21.2610506  72.3879290
  34.8326188  22.1061873  72.3601151  34.5858043  20.6264185  72.5610209
  56.3660860  71.4709425  58.1234884  56.3400269  70.7018948  58.6927986
  55.4465723  71.6680050  57.9448986  11.8367176  20.5323099  67.5459909
  11.7768841  20.0674891  66.7113733  12.3983030  19.9788260  68.0886745
  54.2041159  84.8944569  32.6969528  53.6055565  85.5432224  32.3267317
  54.2680550  85.1284695  33.6229014  38.4644128  72.8666337   7.6881054
  38.1737234  73.0632527   6.7975547  37.9334356  72.1155579   7.9530361
  17.4596005  23.2945036  57.2554445  18.2530289  23.8003420  57.4310255
  17.7429848  22.3813032  57.3000145  21.5263559  38.4214146  15.0480392
  20.8442165  38.3864720  15.7186344  21.7482473  37.5048287  14.8841121
  37.1344902  44.4431431  17.6412418  37.8328229  44.7671063  18.2101085
  37.1062471  45.0682576  16.9168976  53.6766720  85.3784657  56.3661194
  54.0620470  86.2387848  56.5321589  53.3256626  85.4406643  55.4777765
  20.4865838  30.5387289  20.2640655  21.2489845  29.9607737  20.2947166
  20.7299329  31.2854369  20.8112743  84.8289319  45.2532171  30.1306987
  84.2253181  45.4243540  29.4077921  84.3329927  45.4833101  30.9164047
  86.1136457   5.8197378  70.3654099  85.6110593   6.4930128  70.8240366
  86.7677041   5.5332350  71.0028696   5.1205112  80.4304440  13.6421611
   5.1243926  81.3103611  13.2653740   4.6035148  80.5152066  14.4432571
  65.5215546  19.0984224  73.7713814  65.9899756  18.3335566  73.4370279
  64.6221205  18.7942575  73.8927746  64.4755050   1.0099863  54.4397831
  64.4039031   1.6656946  55.1334286  64.8149678   1.4938711  53.6868858
  12.9947352  72.5855064  48.3655548  12.3953915  72.1836758  48.9944839
  13.5349798  73.1745672  48.8922215  70.3662392  18.0322145  67.2583914
  70.3999111  18.3883261  66.3705349  71.1259576  18.4136080  67.6983929
  32.6969291  46.8544800   9.9433067  33.1389667  47.6327546  10.2826049
  32.7911521  46.2033017  10.6385162  53.8532305  77.3292875  41.1446953
  54.2686939  77.2520065  40.2858305  53.9823723  76.4723730  41.5512037
  42.4636984  72.6565790  11.1209500  41.7652702  72.7717066  10.4766119
  43.2539368  72.5259495  10.5968380  90.8198040  25.3230889   4.3232563
  90.7474964  24.4764454   4.7639301  90.2917044  25.9167845   4.8569896
  86.6121357  72.3544629  20.1535824  86.2115639  71.6770966  20.6985023
  85.9741109  72.5100071  19.4571903  79.0963670  24.4354509  57.6526117
  79.8926374  24.0492605  58.0173635  79.3009731  25.3662085  57.5628614
   1.8038966  57.9460175   0.6337097   1.9734384  57.8047974  -0.2977106
   2.5510694  57.5439866   1.0768106  58.0754014  23.4902262  38.9664984
  58.5180851  22.7049040  39.2882705  58.1870791  24.1323446  39.6675229
  47.8496267  36.9274504  10.9424141  48.3421422  37.6372941  10.5303695
  48.4549047  36.5575726  11.5851047   8.2635237  71.9458706  19.0499046
   8.3226754  72.2234757  19.9640587   9.1698123  71.7785866  18.7912681
  56.7163849  79.1303015  49.6961927  57.0121336  79.8132706  50.2981186
  57.4882555  78.5810280  49.5592833  80.6498929   5.7190489  60.5912161
  80.9940502   5.0418638  61.1736298  80.9665700   5.4714178  59.7225237
  64.0889740  76.7384338  63.9290380  63.6834669  77.4610043  63.4497738
  64.2251730  77.0829868  64.8116255  15.2188520  24.8098349  62.2866821
  14.3516140  25.1116537  62.5569248  15.5887251  25.5474257  61.8015146
  47.0691538  75.9069252  74.2789507  47.2866011  75.8449888  73.3488369
  46.1350679  76.1155415  74.2931700   9.8930054  13.1661390  67.5605011
  10.6802063  13.2241510  67.0190382   9.6077185  14.0736841  67.6663828
  47.3623466  84.5016956  64.2131805  46.9524717  85.2514458  64.6445799
  47.9140949  84.1084862  64.8893404  80.0091716  17.0075296  56.1939335
  80.4777595  16.5500711  55.4958010  79.0880653  16.7952322  56.0431862
   3.3345537  52.2337507  29.8483586   3.7969141  52.7915167  29.2227769
   3.6187820  51.3454794  29.6329260  87.5789738  70.8716679  72.6953697
  87.6170540  71.6701126  72.1688080  88.4427452  70.4731607  72.5889635
  88.3625528  29.7861837  34.9615312  87.7212306  29.9986719  35.6396055
  89.0395900  30.4565214  35.0536942  66.0823151   6.2694334  23.1491733
  66.4445158   5.8598494  22.3635006  66.0556146   5.5645060  23.7961602
  39.3737270  77.2152646   8.6215904  38.5342313  77.6478035   8.7777927
  39.3166543  76.3965542   9.1142204   9.2339830  20.9315847  59.5020008
   9.2136984  20.0239061  59.8052216  10.1544838  21.1856531  59.5680380
   4.8336344   7.1360945  53.8054037   4.2090969   6.4405226  53.5995913
   4.7186594   7.7766203  53.1034517  84.3569824  26.2575029  19.1299355
  84.4210264  27.1967291  18.9567971  85.2622005  25.9472822  19.1060698
  25.2370381  84.2154789  63.8157940  25.2959013  83.4840012  64.4303656
  24.6512461  83.9025974  63.1264544  89.5990392  41.5264486  45.4948759
  90.0513240  40.7803988  45.1010799  88.8741800  41.1364340  45.9834385
  46.3701916  72.3852921  71.1026955  46.6857862  72.5211239  71.9961023
  45.4169607  72.3614264  71.1864376  74.6042510  33.7462019  16.3024437
  74.8597690  34.2069506  17.1016037  75.0124475  32.8840803  16.3821018
   4.6186782  15.3154786  23.7942817   5.5706192  15.3195317  23.6941745
   4.3736602  14.3933852  23.7171962  40.5299377  67.2277641  25.6476736
  39.6565938  67.3586226  25.2783823  40.7319164  68.0553913  26.0840964
  42.6888800  74.9853086  55.4927301  42.2280693  75.6358147  54.9628925
  43.3499432  75.4884386  55.9682131  35.8498718  56.0142262   4.5864370
  35.3909923  55.3304894   5.0744560  35.2634956  56.7698605   4.6239641
  17.0178394  12.0171808  62.2983980  17.3315029  11.9024157  61.4013624
  17.7501421  12.4286150  62.7574015  53.7749386  67.8478336  57.6175690
  52.9519701  67.9663181  57.1433210  53.5139418  67.4807882  58.4621954
  13.8561707   9.5878290  44.2621422  13.6779623   9.8835539  43.3693838
  14.7345095   9.2098879  44.2184210  81.3210365  27.3776030  62.8105688
  80.7166358  27.1542620  63.5184193  81.7167684  26.5425085  62.5610828
  59.0314867  54.2413838  -0.2761242  59.5455362  53.7952168   0.3968742
  58.3053876  54.6410019   0.2027538  27.5354748  44.4885515  71.4418459
  27.8547936  43.8179277  70.8380890  28.1175308  44.4257616  72.1991491
  85.3998777  23.5840391  16.4684272  85.5714246  22.6486467  16.5772152
  85.8068582  23.9926218  17.2324014  76.2499019  14.9562048  53.8295364
  76.0617229  15.7551550  53.3370829  75.5433389  14.8993181  54.4727802
  76.6557789  75.4360485  72.9518318  76.0957241  75.8461523  72.2927523
  76.1664343  74.6636057  73.2348633  47.3840237  81.4214993  61.1242914
  48.2556677  81.2140083  61.4610624  47.3597097  81.0168743  60.2571583
  14.7191060  77.0588589  44.1854286  14.9432552  76.5620613  44.9723101
  15.1698971  76.6004801  43.4762669  67.1224158  28.7476571   2.5942447
  67.7624761  28.2488759   2.0865276  67.4169414  29.6557791   2.5249603
  64.4639322   2.5316881  25.7014465  63.6784979   2.8846525  26.1194706
  64.5179554   1.6293978  26.0163713   1.4738493  13.1628107  28.6487317
   0.6087761  13.0717825  28.2492423   1.6276054  12.3227572  29.0810680
  75.5570643  53.1979306  22.1840027  76.0057824  53.9734871  21.8472698
  76.1500149  52.8479702  22.8489616   4.2768027  56.7095883   1.3691261
   4.6455289  56.2027199   0.6456878   5.0306417  56.9284852   1.9168832
  31.5400887  68.8741016  70.5778933  32.1992111  69.5067167  70.2922535
  31.9950724  68.0320406  70.5654621   4.1383322  66.8011713  63.1217051
   3.5160788  66.2723064  63.6210394   4.5843371  66.1732674  62.5533342
  37.0397496  54.7374105  27.4191523  36.4292717  55.4740953  27.3901176
  37.8775406  55.1301289  27.6643300   0.1978167  75.5520105  53.2486725
   1.1522921  75.4851294  53.2757950   0.0267848  76.4839315  53.1126261
  80.1703426   8.0083155  67.4149370  80.3803607   7.0744394  67.4162531
  79.8138067   8.1748556  68.2875109   7.1706599  11.3465738  51.4092159
   7.6118338  11.5806210  52.2258091   6.3561285  11.8491054  51.4244938
  20.1801566  75.9051383  31.1071730  19.4919232  75.6924523  31.7375135
  19.7404221  76.4347054  30.4420233  16.4526761  28.8063550  55.6359768
  16.4676666  28.3217025  54.8106766  15.8662891  29.5444155  55.4696941
  42.3121881   9.8111022  56.8953896  43.0524349  10.2949667  57.2616434
  42.3923302   9.9309528  55.9491110  29.4746685  30.2518892   1.7600040
  30.1146889  30.8963609   1.4579093  29.2429900  30.5400872   2.6428956
   0.8463352  39.2670536  31.1858821   0.9421974  40.2111626  31.0605574
   1.6672915  38.8976812  30.8605742  56.6981121  66.6103919  21.9836166
  56.1403510  65.9636553  22.4158981  57.2005674  66.1046251  21.3448932
  32.9207635   9.5597953  44.7014093  32.0877600   9.8306751  45.0873661
  32.6897645   8.8404322  44.1137123  79.1684325  74.7682441  72.2119713
  78.9482267  74.2638947  71.4287901  78.3236475  75.0615812  72.5533247
  63.6810438   5.2746916  60.7822371  63.1721464   5.2711892  59.9715281
  64.3073741   5.9895819  60.6687737  68.0580512  22.6055813  34.0671706
  68.7872640  22.0071363  33.9048719  67.9120389  22.5545764  35.0117922
  68.1063048   0.5395728   2.9663172  67.3356835   0.0080611   3.1659976
  68.0882064   0.6395788   2.0145278  28.5778403   3.8717189  69.5701027
  28.4429383   4.5886827  70.1897764  29.0642929   4.2681834  68.8473225
  31.9513083  34.9027395  68.2381916  31.4549112  34.6278286  69.0090656
  32.5553322  35.5684519  68.5671568  25.0904965  17.3344755  30.3453660
  24.2749214  17.1839356  29.8674488  25.4075122  16.4572668  30.5603981
  87.8512666  -0.1673870  52.8859806  88.5451917  -0.1570414  52.2267437
  87.1516300   0.3637206  52.5056314  12.7095520  50.6908035  34.5619130
  13.6402011  50.5717230  34.3723273  12.4220812  49.8404026  34.8941946
  13.0500126  31.7949295  32.3561764  13.6243045  32.4729443  32.7121496
  12.7374363  31.3179326  33.1249428  41.8964563  40.4550015  73.9631432
  41.3012944  41.1421314  74.2629210  42.5974821  40.4442402  74.6148172
  22.9028824  71.3062263  56.4880896  23.3932427  72.1165229  56.6266584
  23.2423857  70.9588958  55.6632662  10.8915234  14.4166076   1.1515579
  11.3119650  14.6940207   1.9655001  11.4580607  14.7594678   0.4603896
  45.5869634  64.4459010  46.3855362  45.2814777  65.1065494  47.0071888
  45.6940563  63.6534072  46.9115734  23.4433460  16.2455130  45.1272392
  23.0316591  16.9742382  45.5916786  22.9842114  15.4684210  45.4459143
  28.5360337  81.0460385   6.7345741  27.7385070  81.4051541   6.3457134
  28.2300607  80.5511959   7.4946716  15.4214895  23.8093829  59.0088844
  15.6905186  23.0294299  59.4941950  16.0472393  23.8700390  58.2870865
  73.5998587  31.0924149  71.9234753  73.9975098  30.8085585  71.1003542
  72.6933864  30.7899141  71.8684006  84.3523011  33.4864473  47.2376299
  84.3695978  32.7720046  47.8744221  83.5494856  33.9672947  47.4388933
   8.6828965  31.6484714  21.7899060   8.6713642  30.7427335  22.0993257
   9.3231845  31.6503692  21.0783863  46.3922090  83.4460095  58.1071043
  46.7624671  83.9230689  57.3644352  45.4483504  83.4501583  57.9479074
  44.6864374  84.2574532  38.8666892  44.4114990  83.3438141  38.9435291
  44.8037786  84.3940062  37.9265761  14.1751313  42.7384520  49.1840649
  13.3393157  42.2760201  49.2457104  13.9333117  43.6480665  49.0098238
  24.4613767  27.9282403  43.4549189  24.0911031  28.8062191  43.3639193
  24.9603295  27.9621387  44.2710876  87.7992112  19.7961152  34.8653531
  87.6887701  20.3044105  34.0618181  87.6247603  20.4204822  35.5696011
  16.9987321   2.4298410  34.2366147  16.9397640   1.8413600  33.4839892
  16.1516845   2.3446505  34.6742058   0.1032048  40.6641340  69.5547962
   0.0259744  40.0308037  68.8412428   0.9653755  40.4936838  69.9340582
  25.7121563  20.1372075  51.5721273  26.3916397  20.6034064  51.0851049
  25.1108813  20.8236551  51.8610764  75.2662233  21.0417986  43.9836645
  76.1704699  21.2010050  44.2542601  74.7858242  20.9349060  44.8046541
  36.1026015  27.6178404   5.0113752  36.9091543  27.4788388   4.5150068
  35.4703763  27.0192846   4.6135643  81.1153523  12.6741791  65.1045370
  81.4621518  12.6652563  65.9966612  80.3810386  12.0605695  65.1268673
  15.0868845  44.2294073  61.1902809  14.6587372  43.3798075  61.0849190
  14.4090700  44.7949314  61.5603971  88.5657803  45.8059263  57.6827812
  89.0470306  46.4184093  57.1264601  87.8229395  46.3129234  58.0104637
  64.7774474  34.0433288  22.8377819  64.8462406  34.7037196  22.1483040
  64.3404428  34.4952846  23.5595822  69.2576567  44.4150925  46.9346857
  69.6178523  43.6182165  47.3238897  69.9904767  44.7987890  46.4530373
   1.3669094   6.2996429  41.3707733   2.0546345   6.1653966  42.0228767
   0.5585504   6.0552746  41.8214083  82.5914196  28.0771542  49.2412233
  82.9332683  27.9953146  50.1315451  82.1344558  28.9182210  49.2364883
  62.6220671   7.4825650  29.8680472  63.0995075   7.3769206  30.6909227
  62.9373280   8.3138001  29.5132375  25.5409551  39.9234295  65.8775663
  25.6972241  39.0317583  65.5665398  26.3879204  40.3602695  65.7878542
  35.2830317  66.6876682  34.0941265  35.6829473  65.9695729  34.5846679
  34.9227270  67.2656949  34.7666576   2.6445991  21.6891813  28.7292075
   2.3861697  20.9493732  29.2788696   2.6353669  21.3401270  27.8379679
  29.5851350  28.8771510  13.6650455  30.1064634  28.1061244  13.8885820
  29.2715621  28.7050653  12.7771878   0.5656964  27.3416972  69.1021061
   0.1969241  27.9032660  69.7839260   1.1931986  26.7853022  69.5635176
   3.4813628  32.1769309  25.0871468   2.7951753  32.4266124  24.4682479
   3.0136859  31.7444897  25.8016443  87.0884526   0.4082948  19.2158222
  87.5697792  -0.4190030  19.2041993  87.2553924   0.7946201  18.3561039
   8.3480740  29.3056846  23.2236338   9.0520310  29.1665769  23.8571358
   7.7043253  29.8358274  23.6934924  90.1229472   1.6705619  25.1163816
  89.1659016   1.6838546  25.1054788  90.3523395   0.7656604  24.9048042
  35.9241199  10.3023851  68.1557798  35.5513096  10.5230999  67.3022413
  36.5127373   9.5688891  67.9776096  12.2842920   5.9821552  10.8990085
  12.1985960   6.7745763  11.4290619  11.3903320   5.7815725  10.6218219
  16.7756093  12.2696495  36.6417623  15.9966469  12.5855911  36.1839080
  16.9589698  11.4188099  36.2434125  20.6688142   3.6819971  27.0925832
  21.5617299   3.7304318  26.7511344  20.5330491   2.7526236  27.2771478
  77.7506832   7.8569239  35.0407863  78.0906669   8.7102062  34.7714305
  78.0472938   7.2546750  34.3584728   5.5228990  28.1321359  24.4784427
   6.1823225  27.7674389  25.0686884   4.8770362  27.4326491  24.3793917
  79.8499862  28.4053016  29.1904259  80.7978014  28.3399057  29.3070507
  79.6923725  28.0597687  28.3117938  82.8000302  80.3490038  53.8387871
  82.7987952  81.0452891  54.4956112  82.0054145  79.8471267  54.0202808
  78.6419968  32.5843382  14.9664867  78.3310250  33.4114528  14.5985055
  78.2505385  32.5482631  15.8392358  86.5272767  31.7270422  32.3212028
  86.6770137  32.5134540  32.8459573  86.0772083  31.1254525  32.9142976
  41.5813957  68.7562149  63.3952949  41.8933617  68.6879938  64.2976556
  41.5915166  69.6949976  63.2087014  76.3069455  42.4795723  65.0725985
  76.4556590  41.5339994  65.0762606  75.6574468  42.6172066  64.3830776
  14.2760587  28.8398647  12.7093959  13.8357830  29.1723609  13.4915948
  14.5585239  29.6255684  12.2413015   4.2284787  10.4602182  45.1370049
   3.9093548   9.9254793  45.8639479   3.8547370  11.3271141  45.2952433
  83.9621863  32.8519273  56.7533970  83.9016298  33.6010385  57.3461819
  84.8946754  32.7834487  56.5484381   2.3631829   0.9030887  46.3415909
   2.3761240   0.5881299  47.2453976   3.1115961   0.4734126  45.9274817
  87.8932116   8.6181939  68.3133221  87.3661531   7.9617500  67.8577757
  88.5193235   8.1081343  68.8271809  26.9334679  32.1639558  14.7053077
  26.6112163  32.9468974  15.1518371  26.5821644  32.2328397  13.8175705
   8.5633969  17.5895834  35.4891086   8.1455433  16.8035972  35.1371741
   9.4866288  17.3519361  35.5751252  12.2676373   8.4180659  41.9654131
  12.1687746   9.2149472  41.4444160  11.5870738   8.4838969  42.6352882
  88.3133499  31.8354678  49.5374632  88.0695746  31.1646581  50.1752853
  89.2537702  31.9584322  49.6667719  64.5306322  51.8195780   3.7110164
  65.3584095  51.5038773   4.0734317  63.8711449  51.2228855   4.0649488
  24.0386987  39.5194483  69.7890043  24.2459512  40.4189968  69.5358467
  24.8846173  39.1338396  70.0169516   8.7264687  24.9960184  33.3111095
   9.5533741  25.1547766  32.8558564   8.7275493  24.0554309  33.4886575
   9.6080381  12.7829599  14.1907024   9.3591827  12.2274101  14.9293959
  10.1193726  13.4899521  14.5843136   1.0687090  34.5629597  37.7260590
   2.0109077  34.7262120  37.6831317   0.9591403  33.6911440  37.3463702
  -0.2998314  31.3075709  50.1087046   0.5504973  31.7347550  50.0053263
  -0.0899993  30.4315472  50.4324102  41.4888191  27.1680474  74.1980839
  41.0728693  27.6526976  74.9110603  42.3073626  27.6368284  74.0354109
  35.5028939  32.6328325  58.7838364  35.1830268  31.8417525  58.3501244
  34.7556663  32.9449749  59.2941856   0.1860228  38.2699800  26.6243458
   0.5826851  39.1395259  26.6770840  -0.6981277  38.4296727  26.2941813
  56.0911313  20.3420043  34.0351224  56.9054691  20.8378220  34.1202593
  56.1491624  19.6680212  34.7123313  45.3764146  11.8649704   0.6662347
  46.0153084  11.1677630   0.8143690  44.5271616  11.4262421   0.7164362
  77.4936298  14.1615188  24.6120930  77.5814585  14.9205792  25.1885867
  78.3370582  14.1027379  24.1633129  47.0590782  12.1504998  56.1952877
  47.1159267  12.8587508  56.8366766  47.0670843  11.3503957  56.7206478
  33.7822771  24.7977400  38.1518221  34.4230843  24.0915370  38.2347393
  33.1509972  24.4741035  37.5091887  67.1012510  65.9130693  51.5472031
  67.2920496  66.5259672  50.8371449  67.5836654  65.1196457  51.3148546
  87.0970810  19.3168688  57.5838089  86.9520188  18.5885572  56.9798613
  87.9123605  19.7184420  57.2833252  49.3182273  68.1866551  42.8393221
  50.2370925  67.9426278  42.7281141  48.9494748  68.1396199  41.9572544
  18.3048034  21.6064119  35.0770426  19.1812050  21.4386487  34.7306228
  18.4464300  21.7988682  36.0039377  71.3521225  57.3857976  50.4469681
  70.5221446  56.9263411  50.5745125  71.9308538  56.7309452  50.0564909
  79.3770818  25.4860806  43.8501787  78.5171453  25.2055001  43.5371065
  79.2709390  25.5712867  44.7976542  13.5851347  29.3614888  51.1459064
  13.5058665  28.5505486  50.6435823  13.3071411  30.0473881  50.5388689
  67.0715792  80.9512193  46.5314674  67.5613160  80.2349598  46.9356489
  67.3689712  81.7351855  46.9931889   3.5254619  14.4312286  62.6512861
   3.3076158  14.9447882  61.8734503   4.0809834  15.0104928  63.1728983
  50.3100665  84.1332250  62.1695662  49.6893198  84.3431989  62.8672886
  50.0872738  84.7370512  61.4610529  71.1294980  79.4248832  48.5211849
  72.0471854  79.2332495  48.3279037  70.8926756  80.1136137  47.9000568
  41.1111927  10.6487131  34.7922683  40.5645180   9.8648679  34.8467326
  40.4878044  11.3700008  34.7064590  45.5247663  85.4711978  73.5603478
  45.3203891  86.4005487  73.6641112  46.2666284  85.4551666  72.9556855
  10.8844006  30.8503461  39.4051766  10.7960939  31.4971304  38.7051010
  11.7569494  31.0061860  39.7665691  72.8250201  84.7912701  32.1775603
  73.5419304  85.2026729  32.6602817  73.0651874  84.8957610  31.2568903
  80.1911727  15.3370392   7.3209900  80.5257360  14.5246577   7.7009058
  80.7997457  16.0112214   7.6232314  53.3106352  80.1588167  34.6074295
  53.4042640  80.6228376  33.7754750  53.2198591  79.2387224  34.3596029
  10.4919243  20.8037305  23.2859254  10.3243482  20.1304626  22.6264882
   9.6950042  21.3338900  23.2948208   6.2371254  13.7989283  68.4953308
   6.4446419  12.9278350  68.1571531   6.9451457  14.3562090  68.1722593
  88.4369603   9.5426857  63.8613987  88.6816094   9.4052279  64.7765398
  88.2771069  10.4841065  63.7950182  77.8963069  26.7248964  52.8351498
  77.5599710  27.1433806  53.6276007  77.8284351  25.7867169  53.0124807
   0.6550764  14.3440723  63.7175608   1.4629440  13.9227092  63.4242439
   0.8407933  15.2815521  63.6639547  24.8454618  30.7507420  42.7419472
  23.8977599  30.7225275  42.6104355  24.9726129  31.4055300  43.4284735
  29.6924448  27.0569205  67.3457575  29.5553875  27.9884982  67.5178289
  28.8410425  26.6540718  67.5162220  68.7432691  63.8987144  13.6268165
  68.3057853  63.7604197  14.4668796  68.3784553  63.2250007  13.0530098
  12.2731102  24.6397877  52.9952335  11.8141496  24.1115594  52.3421144
  12.7560079  24.0029407  53.5219812  74.6613235  73.4125126   8.1993490
  75.0376387  73.2296921   9.0602762  74.9477346  72.6809586   7.6525140
  10.3517163  33.8754058   7.2278726   9.8085010  33.6575651   6.4704466
  11.2491059  33.7273288   6.9295478  88.8119068  18.5159373  28.3316302
  88.0728168  17.9130948  28.2506442  88.6450813  18.9914393  29.1454482
  90.3983273   4.8650327  17.4937201  90.1779928   4.4940901  18.3481705
  90.6858488   4.1145697  16.9737506  90.3050703  29.1123843  11.5332317
  89.3975022  29.0210795  11.2430334  90.8252817  28.9596987  10.7443726
  81.0116332  17.2402413  22.3350361  81.2250703  16.3088782  22.3919513
  81.2572592  17.5949080  23.1894996  30.7592986  51.2048199   4.6767595
  31.4102347  50.5814727   4.3543413  31.2580971  51.8091246   5.2265289
  90.7256484   9.4283843  44.2608166  90.6251368   9.9626428  45.0486612
  91.5811456   9.6767247  43.9105558  84.9622054  50.2397109  54.5477009
  84.3972130  49.8663188  55.2241564  85.6844206  50.6392051  55.0325108
  85.7091878  14.3891931  64.3110657  85.3767876  14.6037352  63.4394503
  84.9488888  14.4776809  64.8858213  25.1298404  38.2687378  35.2450013
  25.0176334  38.5267282  36.1599231  25.6827188  37.4882460  35.2823114
  28.4281373  12.0226204  61.5029144  28.9317226  12.7742851  61.1904478
  27.5374746  12.1851718  61.1922216  24.7177291  25.0426602  49.6324158
  24.1944361  25.1047421  50.4315042  25.4971910  24.5525312  49.8940277
   6.0717082  38.8179731  37.2745466   5.9220630  38.2374549  38.0207610
   5.2070153  39.1747618  37.0714736  64.3221555  57.4078537  65.7555437
  64.1150589  56.4783050  65.8518648  63.5228715  57.8604699  66.0248327
  66.2365587  83.5693791  52.9384708  66.9511188  83.1387214  53.4076929
  66.4047111  83.3759085  52.0162296  29.1015720   8.0863184  30.7116938
  28.8050342   8.6434782  29.9920630  29.8073173   8.5838974  31.1246991
  25.3629804   5.1323026  30.6541228  25.3476238   5.2468401  29.7039247
  25.8638668   4.3280733  30.7903600  81.9777719  25.9727383  44.4690466
  81.0721461  25.8865094  44.1713285  82.2293911  25.0869155  44.7302723
  14.7582662  27.7511501  69.1591406  14.2853177  28.5828996  69.1863680
  15.3603721  27.7935648  69.9020433  14.3117118  21.4038038  35.8475232
  13.8983119  22.1835685  36.2180614  14.8310494  21.0435390  36.5663624
  51.5215921  20.3686833  54.4997025  50.6502962  20.5843019  54.8322487
  52.0867920  21.0611272  54.8421907  27.0452356  13.8019490  13.6849821
  27.3520541  12.9428673  13.3950281  26.6249537  13.6340368  14.5284283
  32.4254656   9.2879325  52.5292253  32.2291279  10.0340223  53.0958223
  32.9540324   8.7054694  53.0747366  88.8125461  16.8716121  47.3153591
  88.5729442  16.0772204  47.7926064  88.8269528  17.5571239  47.9832649
  24.7770166  10.1280808  25.6862044  24.8708940   9.1762137  25.7231975
  23.8316107  10.2744579  25.6543779  14.6720135   8.7470895  39.1581869
  15.5364048   8.4549129  39.4474816  14.7474635   9.6996754  39.1023421
  67.5032510  66.9413866  36.4906836  67.4924577  67.6345850  35.8306909
  68.3955128  66.9542767  36.8369985   9.8164594  29.9885869  70.3613710
   9.8844051  29.5050859  69.5380592   9.1123265  30.6193805  70.2112818
  17.6756656   0.4238067  29.1967416  17.4738765   0.0836430  28.3250761
  17.7672100  -0.3567480  29.7431731  24.8518133  10.0150013   6.6612327
  24.1537666   9.4573516   6.3177323  24.6874380  10.8729410   6.2698847
  66.5541286  75.9923674  41.8822813  66.6559203  76.9150037  42.1159744
  66.1949117  75.5840052  42.6699591   9.6269709  17.5194883  50.4773569
   9.9762762  16.6647112  50.2252150   9.1581589  17.3547900  51.2954760
  30.3987479  22.8036642  28.2542276  30.3054118  21.8667078  28.4263587
  30.1247907  23.2252765  29.0687370  77.3120192  20.2900577   9.8186636
  77.1603910  20.8229113   9.0380812  76.4423457  20.1720023  10.2007139
  84.8585669  18.9934349  35.6632948  84.9328957  19.9406672  35.5472875
  85.3700051  18.6231625  34.9438787  39.9165058  15.4664028  56.9005871
  40.5082226  16.1965907  57.0820570  40.0729322  14.8482430  57.6144791
  12.1865746  49.2237731   1.0121515  11.9684812  48.3522542   0.6818130
  12.9506799  49.0836503   1.5713813  25.4275489   6.8277073  32.7531791
  26.3025808   6.9908065  33.1052399  25.5813146   6.3285136  31.9510603
  88.9332420  45.4152966  47.1437645  89.4360284  45.5002499  46.3336945
  88.0700955  45.1146078  46.8595171  53.8590534  70.9930290  62.9286575
  54.5579566  71.0114623  63.5824347  53.1049366  71.3801814  63.3732367
  73.6439339  46.5416670  29.8284173  74.1946033  46.9818354  29.1809249
  73.3936731  47.2339439  30.4402637  30.1101136  15.9900117  14.2551756
  29.7766519  16.8810534  14.3604362  30.2082229  15.6637609  15.1496959
  84.4072846  28.6536145  36.0586405  84.7516022  27.7616715  36.1046290
  84.2214516  28.8858223  36.9684649  27.5485031  68.6077087  59.2698333
  27.5051101  68.2458894  58.3847151  27.8382607  69.5114462  59.1452143
  70.8176318  29.5026851  17.9611206  71.6593770  29.9212742  17.7809000
  70.3243963  29.5959377  17.1461034  68.9318458   1.8809611  68.9346027
  68.3682219   2.4211159  69.4884920  69.2448751   2.4790424  68.2559729
  84.0651492   5.7343638  63.5471249  83.4036509   5.4635870  64.1837835
  84.4367865   6.5364289  63.9142895   3.7801510  12.3771262  16.1079383
   4.0496990  12.1805155  17.0051122   3.1043002  13.0483258  16.2025452
  85.4932985  60.0803614  38.5295725  86.4425103  60.1831675  38.5978389
  85.1575468  60.3923178  39.3699217  87.6249213  75.2003873  50.1922321
  88.0220933  75.6832827  50.9170055  87.3487968  75.8783580  49.5755100
  75.4282768  71.1088718  43.3815432  76.1029811  71.7823113  43.2950258
  74.8701198  71.4192415  44.0945387  76.4082200  55.1535488  42.9433203
  77.2891827  55.5230547  42.8833103  75.8257492  55.9090711  42.8649139
  28.4995103  23.6898017  36.7802644  28.8945889  24.4066119  36.2839508
  28.6018634  23.9478302  37.6963305  86.1102144  11.5566671  35.5840302
  86.9089804  11.8576753  35.1509023  85.4783849  11.4487433  34.8731303
  89.3246823  28.1867290  46.0843468  88.8199869  28.5042357  46.8331480
  90.0228593  27.6592851  46.4723969  85.9717373  13.6220634  24.4298697
  86.4807609  13.2282329  23.7213326  86.4431576  14.4269407  24.6447349
  74.5506171  25.7816672  36.8318558  74.7124020  25.0620651  37.4419618
  73.6012105  25.7834697  36.7099690  66.2217809  85.3246327  37.1254277
  66.3366688  84.7287756  37.8656888  66.5023280  86.1770915  37.4583507
  24.8278117  15.8817410  12.7064049  25.5305910  15.4525733  12.2184002
  24.4852972  16.5411639  12.1030176  21.1510968  25.6080389  13.7352991
  21.4092112  24.6954060  13.6060309  21.3195562  25.7755518  14.6625483
  20.1991558  12.5081182  33.8921642  20.9290290  12.0335698  34.2900610
  19.9102247  11.9448471  33.1741977  32.2857213   6.5127087  34.2927790
  32.8170443   6.4064407  33.5037065  31.5658450   7.0824564  34.0218592
  22.4247718  17.8296375  13.9832985  23.1494474  17.3712862  14.4087291
  21.8020582  17.1378815  13.7598479  83.7487743  37.4087882  39.4529819
  84.6809772  37.4440765  39.6674228  83.5307542  38.3013940  39.1847420
   9.5821186  43.8491420  12.4265983   9.5093986  42.9672044  12.7914741
   8.7081334  44.0403629  12.0862796  22.4768138  37.5534606  70.5128527
  22.0197892  37.3170018  69.7057295  23.1174183  38.2109213  70.2415514
  15.9070110  25.5084276  48.8476706  15.7207656  25.5794263  47.9114532
  16.7999935  25.1662135  48.8889551  28.9519858   3.7504324  32.3642993
  28.7968659   4.1333684  33.2277393  29.7814870   3.2816029  32.4557304
  11.0896945  44.9107218  46.1443377  10.9758973  43.9606810  46.1178398
  10.3605831  45.2244473  46.6793203  39.2107654  11.1924338  47.8756094
  39.0901780  11.4010477  46.9492340  39.2692542  12.0447040  48.3073997
   0.4657239   9.5602542  68.1452465   0.1270401   8.6997497  68.3923435
   0.7934006   9.9327725  68.9638376  17.3554969  51.5022516  19.2061365
  17.0909393  51.9189358  20.0262690  16.5595925  51.4931965  18.6744535
  18.9148486  40.9510040  24.7693443  18.9194703  41.7190409  25.3405952
  19.8397720  40.7760906  24.5956945   2.9623163  66.1793804  13.1374383
   3.4768367  65.3779411  13.0415559   3.3401132  66.6166973  13.9004970
   1.4994583  60.1598692  44.8060942   0.7567313  59.6056223  45.0456810
   1.7145166  59.8983002  43.9107943  35.0126362  29.3071795  10.7036161
  35.3949451  28.4314179  10.7593906  34.0781021  29.1522479  10.5662394
  40.1972866  61.3558245  25.5534267  39.4512033  61.9376755  25.4083824
  40.5505943  61.6261148  26.4009786   2.0783532  48.4922266  40.1003218
   1.9321761  47.6683331  40.5651522   2.6091814  48.2484818  39.3420053
  65.2801625  24.9848580  15.8335626  65.6993953  24.1528940  16.0533631
  64.3712870  24.7522545  15.6436265   4.3934900  44.2858505  56.1440134
   4.9077314  45.0209141  55.8101463   4.8095644  44.0608454  56.9761705
  10.8609760  69.2975950  56.7134476   9.9898750  69.6924400  56.7523623
  10.7489312  68.5242510  56.1606264  42.5889845  73.3543933  43.6858892
  43.4428806  73.2432438  43.2678699  42.7388675  74.0112043  44.3658638
  28.8155365  33.4285045  42.7575254  29.5981956  32.9491448  42.4856949
  28.2359028  32.7567339  43.1166649   5.3328490  13.0442655  48.2484150
   6.0944533  13.4881985  48.6213970   4.8478472  13.7368643  47.7997398
  25.8478594  17.6251578  72.5293303  25.3426266  17.9495811  73.2747984
  25.2171922  17.5888097  71.8101835  24.4420600  70.6395054  60.3742123
  24.0471697  70.2468777  59.5956612  25.2114296  70.0982904  60.5513859
  19.8864615  48.1747723  50.9293938  20.7040453  47.7238369  51.1402082
  20.0727415  49.0987825  51.0959387  33.5031557  17.4841404  40.5517673
  32.6699305  17.8159785  40.8862066  34.0305972  17.3281026  41.3351488
  74.8392682  10.5804951   1.4613798  74.7823935  11.5091307   1.6863992
  74.9930554  10.1404507   2.2974041  18.9451873  45.3589487  58.1202698
  18.1646562  45.6975365  57.6816797  19.1945755  44.5909405  57.6062679
  25.6003308  25.3568006  44.1422701  25.4751110  26.2506747  43.8236141
  25.2660179  25.3731799  45.0390434  20.9773970  44.3897247  23.7552667
  20.4695225  44.2845297  24.5597720  21.8827653  44.2282629  24.0207314
  45.2355678  84.5046766  33.0677915  44.4113274  84.9675884  32.9175496
  45.8557982  85.1923628  33.3099365  42.7751800  79.3805607   6.7797592
  42.8482684  78.8146695   7.5482967  41.9893714  79.0717443   6.3287952
  22.9043889  41.9151068  17.6838565  22.0226336  42.2755146  17.5898027
  23.4850574  42.6630449  17.5436842  27.0944333  10.9375358  15.1162839
  27.4844098  10.3572929  15.7700968  27.3778605  10.5766082  14.2762649
  12.8761244  59.7928238  69.9925089  12.2491062  60.3695536  69.5560932
  12.4890876  59.6246576  70.8516693   5.2655555   3.0620511   4.7809723
   6.1533858   3.4038908   4.6754625   5.3803541   2.1141846   4.8488500
  64.8167409  85.0068489  39.6951723  65.0911282  84.4467215  40.4212570
  64.8618190  85.8955281  40.0479460  18.7561095  25.2097845  60.5694914
  18.9936864  25.1563501  59.6437836  17.9111958  25.6595945  60.5743456
  21.7133760  48.0559826  54.8680210  21.7923260  47.6183033  55.7156277
  21.7928410  47.3505831  54.2258930  26.0832143  18.7528646  13.9385593
  26.0806823  18.6517251  12.9867208  26.2932682  17.8803885  14.2715681
  23.4596920   9.3176240  41.1905241  23.7194324   8.6268538  40.5809307
  24.2389369   9.8668534  41.2762737  23.1883717  65.2585316  46.6327667
  22.5777817  65.9792042  46.4776945  23.9339828  65.4496956  46.0637712
  73.7817785  48.8524439   4.7296026  74.6091339  49.3084761   4.5754888
  73.2963344  48.9537384   3.9108732  88.1660170  42.4906015  42.4570227
  88.1327755  41.8732691  43.1877947  88.6582605  42.0305920  41.7770863
  87.5377173  19.1713516  74.6577204  86.9084091  19.8904316  74.6018158
  88.2285781  19.4090597  74.0393053  13.7781370   6.4188522  31.9551468
  13.5593128   7.2822416  32.3057270  14.5509076   6.1479205  32.4507809
  28.6844468  29.9250340  50.8285141  28.0262160  29.2320538  50.7761383
  29.5119500  29.4844675  50.6351995  68.5198473  17.3177798  11.1800029
  68.1935548  17.0291645  10.3276661  69.2706524  16.7500479  11.3538006
  36.8595862  14.0839255  54.3231440  36.4561892  13.2204127  54.2345381
  36.2655401  14.5680869  54.8966646   7.7377647  44.3864346  44.2571259
   7.4044842  45.2717257  44.4034672   8.0811602  44.4044065  43.3638239
  63.5383150   7.4986052  39.4627929  63.3953568   8.2681631  40.0137711
  63.0405160   7.6791166  38.6653972   2.7463681  81.6440218  58.2213876
   3.5941226  81.2026351  58.2735929   2.1078880  80.9321301  58.1791613
  30.0459555  70.0710035  59.2504120  30.7866839  70.4024721  59.7580433
  30.1545313  69.1200436  59.2613077  29.3219733  26.4297605  35.4279780
  28.7803888  26.7129183  36.1646867  28.7898278  26.6153026  34.6542668
  11.9973207  19.4089353  38.0997801  12.0041263  18.7188780  37.4364495
  12.3037732  18.9774835  38.8973808  18.8315785  66.5689278  30.8073401
  18.7982690  66.4622879  29.8566842  18.0731642  67.1152020  31.0137939
   8.5656983  39.3160582  25.5674267   8.6907017  40.0636339  26.1520052
   8.2070392  39.6963716  24.7655821  28.9590812   9.1457236  47.6244783
  28.1727600   9.4885737  47.1997595  28.6762238   8.9287597  48.5128164
  15.4971135  40.8640957  19.3678284  16.3983536  40.5771303  19.5149636
  15.2227759  40.3968477  18.5787475  89.6679626  51.0587692  22.5120711
  90.5607312  50.7312727  22.4027944  89.3461376  51.1795902  21.6187286
  71.4123650  64.0453363  14.5844710  70.6260307  64.0435530  14.0386629
  71.3700957  64.8734308  15.0627005  28.1342649   9.2367226  43.5321712
  27.5391603   9.3436766  44.2742252  28.7500238   9.9652100  43.6120367
  21.7584682  22.9299903  38.7318087  22.0144510  22.6670933  39.6158838
  22.3525310  23.6482596  38.5140681  82.5586966   7.2892374  24.9210453
  81.8106452   7.3808372  25.5111814  82.3071454   7.7785212  24.1377473
  28.1843424   4.8025188  47.7739859  28.1253481   3.8526216  47.6717806
  27.3878908   5.0423717  48.2476616  55.3520679  20.3365834   4.7261074
  55.0513809  21.2129147   4.4855573  55.3173172  19.8388226   3.9092472
  36.2836933  36.1848974  13.6883497  36.9866395  35.7319832  14.1541469
  35.7558823  35.4820681  13.3093011  90.3148280  50.2723169  12.7203035
  89.6852042  50.9488344  12.9695535  91.1178903  50.5100775  13.1837606
  28.0473900  45.1358461  37.9696131  28.2043552  44.6084309  37.1863985
  28.9177179  45.4292917  38.2391477  32.1921277  53.2073545   2.3260526
  31.6871381  54.0158415   2.4130581  32.9357481  53.4477377   1.7733550
  35.2225045  85.8348990  45.9330845  34.3922070  85.9508161  45.4711342
  34.9712447  85.5253674  46.8033123  11.2952435  47.3857880  49.1713047
  11.3777506  47.9188681  48.3805752  11.4154840  48.0050278  49.8912525
  19.4731212  32.3881721  38.4599543  19.7646272  31.4877415  38.6030507
  20.1204014  32.7568030  37.8588104  23.3857107  31.6098166  10.2051246
  22.8147006  32.3427081   9.9747980  22.8009200  30.8529115  10.2418208
  75.3450350  71.0113764  35.8876777  75.3210822  71.2529612  36.8135810
  75.1964907  70.0657845  35.8829498  10.2060270  38.5436392  59.3205595
   9.8464137  37.9786348  60.0044298  10.1203907  38.0310059  58.5167551
  53.5597754   6.9940418  71.7246342  52.8845596   6.5141702  71.2450123
  53.4185362   6.7549658  72.6406765  73.6861698  49.1272116  38.8697815
  73.8957850  49.2081308  37.9393268  73.4220735  50.0087023  39.1333389
  39.7444677  21.9549322  55.6093979  39.1635060  21.6400528  54.9168921
  39.3549466  21.6228366  56.4182377  24.5326185  27.3540211  26.4164829
  23.7839890  27.0451808  26.9267797  25.2921247  27.1668196  26.9681525
  13.4406982  79.9528472  72.4267573  12.7961467  80.4739230  72.9055724
  13.6670230  80.4903071  71.6677157  78.4309653  16.7470968  38.5096240
  77.6352707  16.2175143  38.5610390  78.8230912  16.5092707  37.6694417
   1.3838583  64.3395853  59.8773718   1.7846242  64.3749475  60.7459164
   2.1247819  64.2861652  59.2737055  11.0676682  54.2483091  53.7012100
  11.0217774  54.4831324  52.7743959  10.7117522  55.0097942  54.1591311
  59.5609852  24.4526608   9.9036720  59.0867796  25.2473481  10.1482799
  60.1379187  24.2794640  10.6475666  33.5338354  33.3811116  20.0560331
  33.4826303  33.0871034  19.1465449  33.4004474  32.5863433  20.5725431
  29.4374418  22.0160532  41.3006830  30.1780963  21.7601371  41.8503809
  28.7007570  22.0843768  41.9080257   8.4468621  30.9385967  42.5512123
   8.2528657  30.4088807  41.7779112   8.4702235  31.8383646  42.2254753
  30.9412146  14.1519928  54.0605021  31.8573618  14.4160295  54.1453075
  30.5363297  14.8527312  53.5493612   4.9071795  58.0088902  26.9294286
   5.1957250  58.5186768  27.6864529   4.2330313  58.5503817  26.5188909
  27.6035285  34.0279484   9.5643848  28.0571771  34.8675537   9.4902158
  27.6957750  33.7864661  10.4860187  17.9665613  15.9115148  54.8217297
  17.7695012  16.4898968  55.5585289  18.7570131  16.2831867  54.4302225
  15.4333198  39.2864347  38.1369925  14.7959101  39.1456628  38.8370824
  15.1172304  38.7458754  37.4130344  31.6089916   7.0540518  61.2249899
  32.0335793   7.8751153  60.9763670  31.7761874   6.4654732  60.4888821
  40.0378561   3.9225060  59.2440844  39.3020034   4.0048885  59.8506832
  39.7205067   3.3312726  58.5614681   2.6368004  14.5266652  54.4193792
   3.2249668  14.3181705  55.1452065   2.8292805  15.4406571  54.2100906
   1.5613352  16.6632485  32.6827502   2.2733858  16.8957508  33.2787013
   0.7722211  16.9940007  33.1118584   9.9245608  32.9760265  54.5483685
   9.7785288  33.6652899  55.1963043  10.8619475  32.7902627  54.6034193
   3.5362732  44.9494553  63.0997944   2.5908324  44.8492861  63.2108784
   3.6408591  45.8164597  62.7078772   0.9346830  50.7115173  24.1728139
   0.2590591  50.3368425  24.7379518   1.0247103  50.0819874  23.4573984
  37.3562837  21.2670326  63.5463047  36.7014933  21.8317342  63.1357050
  37.1881986  20.3991795  63.1791449  27.6537180  45.4388666  16.2276435
  27.8819585  44.5626497  15.9171760  27.0658016  45.7852268  15.5563605
  43.5217953  38.6435008  22.3302436  44.4165421  38.9478827  22.4819350
  43.1212282  38.6345696  23.1995511  88.7299851  24.8941016  43.0088234
  89.0791739  25.0303102  43.8895893  89.4413564  24.4656920  42.5327492
  84.1974071  67.6725388  58.5094070  84.4669536  67.6847982  57.5910234
  83.3199970  68.0551291  58.5066319  30.5710554  40.5442142  31.6817164
  29.7189236  40.9302664  31.8843627  31.1350822  41.2942696  31.4932346
  29.6605182  41.0480690  36.2561512  30.1587677  40.4000473  35.7581067
  30.1688671  41.1773300  37.0568419  88.2016546  46.5646505  53.8089275
  87.6080168  45.8811760  54.1198683  89.0540979  46.3250923  54.1724968
  78.1555752  28.8826847  45.4105043  78.7591163  29.4521594  44.9333572
  78.5723988  28.7519574  46.2622070  21.4013362  42.4838734  39.7643518
  21.2414503  42.8552914  38.8967609  20.9281278  41.6518354  39.7596073
  18.4569478  27.5213146  40.5821753  18.5145390  27.1199012  39.7151208
  19.0998507  27.0466447  41.1090469  15.8216405  35.4211283  74.1793728
  15.6030524  35.5250525  75.1054668  15.7216585  36.2984157  73.8097715
  22.4604797  19.5910275  40.1077986  21.7966294  20.2344155  39.8596334
  23.2690144  20.0978613  40.1827717   6.2393081  52.3192978  45.9258747
   7.0328248  51.9890499  45.5045652   5.5232352  51.8889475  45.4586792
  37.3224783  28.4833455  45.6884384  36.7011333  29.1138268  45.3242207
  37.6201773  27.9766369  44.9328947   8.4666163  14.2167103  38.0595279
   7.5793862  14.5128822  37.8562117   8.5751253  14.4073021  38.9912629
  18.0070472  33.8397479  25.7367682  17.4231100  33.1340647  26.0147285
  17.6618207  34.6206999  26.1693954  82.0501251  85.5462482  52.3639870
  81.6602654  85.6383177  53.2333326  82.7819414  84.9427626  52.4923658
  90.2181740  42.7976131  70.9277725  90.5179138  42.1013832  70.3432655
  90.9635389  43.3948421  70.9908438  81.7333875  20.0619936  21.2870145
  81.7329089  20.2414894  20.3467941  81.0869805  19.3648183  21.3980842
  41.5948820  28.8800788  58.2636356  41.6746092  27.9262638  58.2741213
  40.9037781  29.0696502  58.8981962  33.6093926  29.6612716  15.4570222
  33.5803986  29.6874547  16.4134240  33.8713026  28.7642217  15.2498078
  90.2556586  40.7698584  17.6806474  89.6423749  40.8724356  16.9529164
  91.0452274  41.2294865  17.3950732   6.2174726  51.6924000  34.9752283
   6.4956051  50.8029032  34.7568774   5.9830284  52.0834351  34.1335869
  29.5620203  18.9415812  31.9207907  30.0791693  18.3003485  31.4333415
  28.9519262  18.4147036  32.4369502  90.0456712  24.9599528  45.3539324
  90.6942845  25.6608605  45.2886534  89.3275920  25.3442073  45.8568668
  29.9724603  30.7107663  30.7770944  30.2102757  31.6329241  30.8735347
  30.7989264  30.2695394  30.5808687  72.6721338  42.9055977  54.0357971
  72.2481696  42.9732656  53.1802845  72.4426094  42.0304441  54.3483019
  10.9318280  47.9206610  28.3072162  11.5258753  47.2047663  28.5326791
  11.4465022  48.7142420  28.4541035  15.6309855  35.6047225  32.5602865
  15.6928706  36.5515304  32.6866055  15.8434010  35.2343965  33.4170079
  10.2151644  26.3536239  57.1225786  10.8162034  26.3804293  56.3780880
   9.3435001  26.3653445  56.7272377  15.6000400  42.7031040  46.6415405
  15.7318807  43.5942173  46.3178587  14.9580157  42.7964544  47.3453283
  24.5169592  30.0609136  29.2591977  23.5873914  30.0072074  29.0372729
  24.6982288  29.2473722  29.7298622  15.1374578  45.4128551   8.7578404
  16.0638273  45.6506205   8.7185991  14.8184252  45.5442667   7.8649902
   7.5489777   0.3983271  18.3743417   8.2384706   1.0575651  18.2953703
   7.2581196   0.4637294  19.2839336  26.9416785  28.1387997  69.5085621
  26.5649819  28.8855076  69.0429878  26.7041278  28.2830429  70.4245281
  31.3501239  20.4919577  42.7891970  32.2135949  20.2812624  42.4338722
  31.1956787  19.8227310  43.4559155  36.1993885  53.1266260  20.2455664
  36.2613320  52.3566437  19.6803045  36.5566111  52.8368616  21.0850072
  59.7707096   3.5596475  25.0343132  59.7970835   3.9504910  25.9076858
  59.1008011   4.0598404  24.5682001  18.2018602  20.6871986   8.4406924
  18.8906491  20.5258131   9.0854847  17.4811935  21.0602379   8.9483446
   4.0007001  45.3693676  31.5334964   3.9281860  45.8193779  32.3751998
   3.9962822  44.4389248  31.7581964  18.2840753  35.6181741  44.0567160
  18.6980855  36.3297534  44.5450640  17.8764403  36.0488296  43.3053160
  13.8291061   7.9319775  68.6878967  14.3529940   8.0266118  69.4833946
  14.3163943   8.4160256  68.0212069  32.2458024  73.0000003  12.7890995
  32.8389328  72.7437933  12.0828560  32.5793080  73.8464077  13.0867508
  25.5673933  62.1335554  37.2629476  24.8999834  61.6767883  37.7749610
  25.0735712  62.7465916  36.7183733  88.6879191  43.9956522  49.8373127
  88.5145710  44.0192652  48.8962364  88.6417342  44.9113035  50.1124096
  27.4389338  18.6523867  40.9643745  28.2649326  18.3172536  41.3131475
  27.0147204  17.8870821  40.5763245  35.9275794  47.9167461  21.3477707
  36.5562868  48.4727907  20.8875823  35.7847214  48.3586597  22.1847510
  11.4991343  35.6774950  40.9089661  10.5785882  35.4237986  40.8421469
  11.4801896  36.5415573  41.3203859  60.0700704  34.9595284  18.2820749
  59.2547337  35.4430532  18.1491804  60.6444851  35.2604747  17.5780094
  34.8782206  45.8191156  30.6778502  35.5467081  46.4239931  30.9995294
  34.1351271  45.9478474  31.2673163  22.1091056  33.1457567  32.0428205
  23.0584192  33.0233359  32.0357203  21.9830561  34.0195799  32.4126530
  18.9345527  39.6917367  35.0547719  19.8213017  39.3936753  34.8521209
  19.0560591  40.3722191  35.7168984   9.5508510   2.9310349  57.1554661
   8.8807189   2.5494218  56.5884352  10.2995348   2.3404314  57.0724487
  22.6927304  27.9397726  49.8268318  23.1583309  28.5849142  50.3590345
  22.6383519  28.3396721  48.9588690  84.0890745  74.8069286  35.2266479
  83.7917510  75.5004978  35.8155370  83.3821181  74.1617489  35.2402711
  21.2392116  24.7576427  35.1936769  20.8112097  24.5969033  34.3527174
  21.9588733  24.1270900  35.2205515  53.2039785  22.5282407  70.2113295
  53.1263590  21.6427255  70.5663872  53.2829332  23.0895042  70.9826803
  90.2249046   8.3885121  26.8090034  89.4151673   8.7812078  26.4828944
  90.9043728   8.7166685  26.2200475  80.4461936  62.4495220  47.0118809
  81.2925664  62.4989605  47.4562263  80.6556515  62.5609922  46.0845566
  25.1363468  25.2172732  46.9514370  24.9483395  24.7398901  47.7595139
  25.6130600  25.9960270  47.2386932  10.5774200  57.6265812  66.1888885
  10.4538250  57.1213961  66.9924688  10.1965189  58.4829283  66.3833618
   9.1523063  23.6120272  45.0848246   9.8006332  24.2714071  45.3320551
   9.2310280  23.5436940  44.1333151   8.8457039  70.0079406  45.7683516
   9.3654588  69.9356879  44.9678135   8.9937833  70.9042228  46.0699844
  11.0788596  39.1123509  32.4539590  12.0079529  39.1326499  32.2245979
  10.7722521  38.2630301  32.1363521  21.3834000  14.5606208  25.7686067
  21.9233847  14.4143236  24.9919176  20.5159092  14.2407095  25.5209279
  56.0580181  80.4231923  65.9935472  56.4567112  80.7263725  66.8092409
  56.1079238  81.1783092  65.4074261  30.9938288  18.1958461  49.5950031
  30.2684641  18.3762217  48.9970541  30.9724617  18.9185047  50.2223301
  53.5818931  66.2111505   9.0432289  53.4373709  67.1566971   9.0791443
  54.1927906  66.0896715   8.3163955  13.8067532   0.0230703  71.2539864
  12.9230058   0.1577014  71.5961790  14.3413353  -0.1437817  72.0302677
  23.9725733  49.4860411   0.3768305  24.5781374  50.2245045   0.4416360
  23.2832289  49.7925711  -0.2122994  78.3874515  24.2120075  28.3027482
  78.8831714  24.0914369  27.4928355  77.5237230  23.8464117  28.1115842
  65.3388656  69.3704320  23.7507749  65.2886049  68.7246288  23.0460453
  66.2176497  69.7418262  23.6730790  21.6441464  54.0503359  55.8633423
  21.6750312  53.7022018  56.7544556  22.3392415  54.7079659  55.8388948
  20.5766892  61.7268133  28.3691072  20.7454371  61.1700296  27.6090121
  21.3570499  62.2763968  28.4413934  12.1645737  41.3255739  10.8248830
  12.6914847  42.0374155  10.4617357  11.5509212  41.1009216  10.1254570
   1.7802335  15.6515968  45.6033373   1.1652271  15.7448995  44.8758125
   1.2342416  15.3978276  46.3474655  74.4203849  78.8463033  31.0222697
  73.4698684  78.7860448  30.9267664  74.6845133  79.5040698  30.3789878
   3.0449918  42.9866362  73.3593416   2.1402714  43.2756901  73.4783411
   3.0366617  42.5088787  72.5299406   1.9354025  26.2739992  53.6651516
   2.8348538  25.9579873  53.7509155   1.9135840  27.0781612  54.1838789
   9.0537655  31.8326139  65.5286980   9.8175782  32.3698139  65.7390261
   8.5184926  31.8563581  66.3218880   7.3763990   6.0057670  20.9264278
   7.4222046   5.0787330  21.1603951   7.1198732   6.0076541  20.0042439
  26.5977573  28.5947514  31.9910240  25.8005834  28.4859967  31.4724493
  27.3083162  28.5423636  31.3518119  11.5093780  52.8243589  40.9581614
  12.2908795  53.3217621  40.7171631  10.8098280  53.2054138  40.4274464
  44.5282909  16.5715574  46.8451548  45.1790830  17.2024130  46.5373707
  45.0449928  15.8526300  47.2090149  69.9031209  58.5253196  72.1619377
  69.3720268  58.5282939  71.3655946  69.6463035  57.7239554  72.6181108
  32.3685050  38.8389874  36.9772339  31.8650317  38.0899429  37.2961068
  32.1666265  38.8828707  36.0425949  23.5693571  72.7294358   3.5172012
  22.8986534  72.9637559   4.1586664  23.0835399  72.5818022   2.7057722
  27.4881411  15.6186116  54.4015789  28.0756903  16.3502121  54.2124271
  28.0488372  14.9616098  54.8141336  17.0847809  26.3356590  20.8434153
  16.1330748  26.4379430  20.8486485  17.4150622  27.1826935  20.5439472
  49.2083414  84.2047841  66.1009264  48.7876828  83.9025121  66.9058514
  49.9537272  83.6156676  65.9844160  15.6590521  49.2939615  72.5288486
  15.2312779  50.0625515  72.1513414  16.4185822  49.6462727  72.9927731
   1.6371946  22.5701809  53.0327511   0.7402267  22.4215364  52.7334404
   1.6440566  23.4814572  53.3255911  18.0111587  46.7755556  72.5999737
  17.7177513  47.0380497  71.7274809  18.0810285  47.5969934  73.0863762
  11.2044811  42.2111607  46.5482998  11.0523176  41.2748814  46.6766071
  11.0984600  42.5926781  47.4197531  89.7915762  28.8581944  31.1342311
  90.1857298  28.6244607  30.2938485  88.8618321  28.9745545  30.9386086
  28.8086796  11.7474949  27.1575451  28.2027006  12.4452591  27.4068379
  29.2212343  12.0642972  26.3540125  16.9340432  48.3948421  44.9872971
  17.0437932  48.0593204  45.8770227  15.9895778  48.3644676  44.8346663
  12.5379133  23.3857656  42.8413534  12.7561700  24.1878390  42.3667240
  12.1725464  22.8046083  42.1742725  33.2493472  64.4855595  63.4656715
  33.0270433  63.7684345  62.8719139  33.0130839  64.1594982  64.3340588
  30.9438419  36.3951993  37.3503089  30.8770561  36.0885096  36.4460349
  30.0433445  36.6024923  37.6000428  84.4096179  81.3189102  66.8087292
  84.3400378  81.7747111  65.9699011  84.8130150  81.9581882  67.3959494
  11.7667222  36.7329764  47.2140503  11.8177712  37.6463246  47.4958658
  12.4031103  36.2765694  47.7644444  54.3004894   1.3493259  46.1001730
  53.5460091   0.7815338  46.2570333  54.5453358   1.1766034  45.1910830
  35.5899048  75.4298019  23.9822173  35.4550314  74.9019098  24.7692156
  34.7062111  75.6256151  23.6708093  21.7665982  20.6111097  30.0066662
  22.4609184  20.7668495  30.6468964  21.0774994  21.2312317  30.2450418
  52.0023298  12.4142230  21.8885112  51.4386892  11.6469586  21.9877481
  51.5161562  13.1243670  22.3075128  39.7853923  32.0612669  21.1083937
  39.6558690  32.8951144  21.5602255  40.2624798  31.5197229  21.7371631
  25.0988150  20.6596518  40.4780865  25.9307694  20.6443286  40.9512138
  25.3139281  21.0427308  39.6276712  48.4813213  47.8153038  15.9604573
  49.2407608  48.3200836  16.2514520  48.3502245  47.1621370  16.6477835
  31.6312599  41.2100697  38.1912756  31.0354733  41.1790419  38.9398122
  31.8262219  40.2922201  38.0021286  34.3468690  45.5437326  20.0357485
  33.5108328  45.5587864  20.5016327  34.9167490  46.1175871  20.5477619
   5.3575402  42.5925016  17.4729598   6.2703681  42.7710533  17.2469151
   4.9047855  42.5564623  16.6303766  38.2045150  45.3615427  20.0196528
  38.3350611  45.4945135  20.9585381  37.6456666  46.0903645  19.7499537
  49.9160910  14.3509352  33.5042048  49.1032314  14.1681063  33.9754438
  50.3131819  15.0774610  33.9845300  51.4066219  22.4363518  67.9329634
  51.7950392  21.8401766  67.2926998  52.0956898  22.5711679  68.5835314
  17.8914976  34.9239874  38.1761026  18.6582303  34.3623948  38.0622387
  18.0442345  35.3720713  39.0080428   4.0024499  16.8325512  72.0877599
   3.8404325  16.5924446  71.1754373   4.5438317  17.6202146  72.0356136
  22.1634817  52.1057987  33.7249994  23.0923533  51.9939804  33.5226917
  22.1139026  52.0214987  34.6771908   4.0501025  45.5955744  18.4415603
   3.1441477  45.6869841  18.1463969   4.3776485  44.8267412  17.9748261
  15.4872727  41.4247894  27.4192548  14.9470568  42.1941853  27.2391820
  15.8223927  41.1615133  26.5621591  13.8923311  38.0430579  36.3588905
  13.7490284  37.3843431  37.0384431  13.7633765  37.5706697  35.5364251
   7.3986256  34.1125631  51.2952137   6.5022713  34.1034770  51.6309214
   7.3228878  33.7794447  50.4010534  87.2385941  40.3590918  33.6678147
  86.3152809  40.2215910  33.4561133  87.6475552  39.5061827  33.5210872
  34.2773676  28.4111238  21.9618654  34.8394871  27.6660609  21.7494154
  34.3343639  28.4903121  22.9140806  31.4952993  44.6801949  15.4723930
  32.3768616  44.3377113  15.6199980  31.3862085  45.3567934  16.1406326
  30.1356721  47.9242563  43.2112408  31.0529447  47.6509285  43.2228041
  30.0427699  48.4838676  43.9822340  74.5346545  85.9299867  67.0491699
  74.3119763  85.0060432  66.9352636  73.7506341  86.3193338  67.4364099
  84.8459462  48.1331253  17.2709358  85.7042215  48.5389662  17.3929429
  84.9024043  47.7057505  16.4163017   9.4457340  54.6289444  24.1471696
   9.0942949  55.3469753  24.6736264   8.6770248  54.2377090  23.7321377
  34.1881537  50.2731276  27.7123308  33.4115028  50.2828884  28.2717514
  34.5406580  51.1607456  27.7764130  32.1387911  24.3862700  35.7235742
  32.0983577  23.9686990  34.8632073  32.1352386  25.3246570  35.5347729
  36.3859487  53.0108356  37.0317054  36.9876242  53.6701584  37.3774123
  35.6833768  52.9642630  37.6801300   1.1366243  25.0911593  25.5487800
   1.3612887  24.9419999  26.4672065   1.9690514  25.3130293  25.1315618
  28.0969501  30.5802536  23.3564329  28.2300973  31.5120316  23.1823802
  28.3224726  30.1481009  22.5326514  26.0168505  42.1953630  47.5853062
  26.0271311  41.3144970  47.2108746  25.0950694  42.4526834  47.5669384
  43.7235594  44.2904758  36.6851401  42.8892708  44.1417503  36.2400842
  43.4969282  44.3219090  37.6145935  35.8962059  75.9968805  55.6473112
  36.0591412  76.8730688  55.9965658  35.1223087  75.6906700  56.1201191
  17.6387382  66.5048933  28.2234120  17.3642719  66.9555378  27.4247742
  17.8965425  65.6313562  27.9289722  18.4237981  60.1163960  32.4781418
  18.9119005  60.7438278  31.9449306  18.8067675  59.2669296  32.2591019
   0.9241419  31.2039900  47.0982122   0.8237151  30.9720635  46.1749840
   0.2383829  30.7082558  47.5456667   8.3463264  58.6686754  19.1277242
   8.8123405  58.2650805  19.8599637   7.5697231  58.1221437  19.0076399
   6.2003732  72.7485418  23.1936693   5.8177781  72.4965763  22.3532152
   5.9189022  72.0634174  23.7999797  17.8006876  68.4386539  33.7021112
  17.7014518  68.4101009  34.6537256  18.7382627  68.3137274  33.5552192
  19.2180717  41.7706680  58.7524605  19.1841817  40.8176279  58.8348961
  18.3731008  42.0702791  59.0878534  41.0968971  24.8159981  49.3132401
  40.8184052  25.6815553  49.6123791  40.7673120  24.7549510  48.4166479
  32.7097511  34.2936277  57.8568268  33.0604386  34.8031449  57.1263170
  32.3574781  34.9491954  58.4587955  34.4039369  26.8573809  47.1902657
  34.6580863  26.2072372  47.8452063  34.6681976  27.6955104  47.5696564
  16.1478019  26.0800815  38.6857295  16.3126719  25.1933289  39.0062284
  17.0122373  26.4113879  38.4423828  20.8756065  28.6503506  23.1662583
  19.9626136  28.9217067  23.2613444  21.1661553  28.4697890  24.0602446
  31.7903304  26.7213035  34.4163346  32.0842290  27.5390792  34.8177052
  30.9097981  26.5856338  34.7663212  19.4243860  59.8499966  23.5025239
  18.6307931  59.9413633  22.9751778  19.6431983  58.9198112  23.4468174
  27.9813910  39.2524385  25.2284217  28.3962369  38.5354733  24.7487378
  28.5385227  40.0110674  25.0542927  31.2872839  57.1658039  30.4689860
  32.0043802  57.7989721  30.5022573  30.9510779  57.1374226  31.3647509
  20.6504250  72.4242067  22.6647782  20.3154564  71.5511799  22.4602151
  21.4677310  72.2627735  23.1361413  53.5807943  79.3352127  24.2745185
  52.7322292  79.5523214  24.6605730  53.6099529  78.3784962  24.2827845
  32.7190161  43.6498547  37.6117826  32.6807165  42.8254700  38.0967069
  32.0541930  44.2014027  38.0241418  31.1472559  72.1651220  52.4864721
  30.8215547  72.8486586  53.0720711  31.4241934  72.6353884  51.7000914
  43.1539202  29.9779510  12.7391124  43.6267233  30.8056068  12.6514959
  42.5431252  29.9718523  12.0021439   8.7951068   3.9617578  69.4354132
   8.6107949   4.8877851  69.5926807   8.1706861   3.7051431  68.7568257
  66.5581943  72.5436116  64.2654562  66.8916882  73.3659733  64.6242523
  67.3412402  72.0163406  64.1071653   4.3608648  64.8178959  49.6747828
   5.2474850  65.0494146  49.3981314   3.9930370  65.6358814  50.0091934
  33.7674809  44.0156746  40.8302546  32.8276896  43.9728880  41.0068798
  33.8827538  44.8316240  40.3432512  15.8969271  58.9541340  49.5212555
  16.5974474  58.7586784  50.1435900  15.4240203  58.1274366  49.4255447
  40.0789261  53.4540367  35.9242153  40.3143215  53.0583096  35.0850368
  39.7047997  52.7340269  36.4319992  19.3117428  34.6615171  30.0011134
  19.5254397  34.6806669  30.9339571  18.4284723  35.0268555  29.9501872
  39.4638634  36.9062543  27.6588726  38.7740183  37.5327539  27.8776050
  39.8723125  36.6968036  28.4988332  20.3473687  58.0659246   8.2711154
  19.5390546  58.5785627   8.2789844  20.5593348  57.9387379   9.1958451
  80.0152389  56.1322927  45.8942509  79.5754472  55.4052639  46.3349819
  80.7936446  55.7381296  45.5006075   0.9207330  54.2469025  39.3502331
   0.4373340  54.8729467  38.8111377   0.9764165  53.4586000  38.8101292
  40.1704741  43.0035353  22.8833389  40.5444241  42.1331978  22.7458262
  39.5898867  43.1359005  22.1339178  48.5299206  49.5098209  35.1483798
  47.6551247  49.1329765  35.2429986  49.0697289  48.7855816  34.8316550
  85.4226155  83.8866998  49.0981913  84.9728651  83.2478214  49.6511745
  84.7696299  84.1407698  48.4460497  32.4775290  43.1292820  30.8997846
  31.6805363  43.6474133  30.7876396  32.9205418  43.1849957  30.0531054
  24.7567797  43.8671112  16.7204928  25.2439332  43.4601736  16.0040331
  24.4530749  44.7004795  16.3606381  24.1939974  81.1261749  54.1405582
  24.4741321  80.3359699  54.6024370  24.0668964  81.7755318  54.8322344
  42.7936554  48.8485765  36.3673043  43.3915567  49.5852852  36.2408090
  42.9562855  48.5595703  37.2652245  27.1151042  64.6313190  66.9611979
  26.7137122  64.8334503  66.1160612  27.6174998  65.4157352  67.1814680
  76.7814371  21.5437674  54.0243053  76.4689275  21.4054083  53.1301975
  77.6089212  21.0644030  54.0656757  61.4317199   2.9761957  34.4586968
  62.0831129   2.2820353  34.5590043  61.1151215   3.1377958  35.3474498
  27.0115376  56.4453650  33.9609838  27.1752882  56.9471598  34.7594953
  27.7444935  55.8319235  33.9090633  22.6368666  64.1478682  38.4266853
  22.4576592  64.3095636  37.5004196  22.8960323  65.0017118  38.7731099
  38.9521742  78.2610607  60.2697563  38.5121560  79.0978909  60.1203060
  38.8144755  77.7700281  59.4597244  44.1959143  85.9501076  24.4040680
  44.7704792  85.1846981  24.3879151  43.3842134  85.6319714  24.7992444
  32.2538733  69.1989374  32.9128289  31.9490814  68.4009027  33.3446574
  31.4780164  69.7576475  32.8668261  88.4022113  10.2609419  51.4327002
  89.1481086  10.8592772  51.4759970  87.9442331  10.3885817  52.2634745
  40.6562471  81.3100243  56.1358690  39.8962474  80.7323647  56.2061739
  40.9546089  81.2044239  55.2325106  48.9336395  43.1623030  31.5881181
  48.7540102  43.4733295  32.4753785  48.7772322  42.2188473  31.6287851
  31.7724490  68.5404778  30.0344849  31.7715955  67.5834990  30.0139403
  32.1835256  68.7617397  30.8701229  58.0889225  64.7193432  34.2165637
  58.4897614  65.1641512  34.9633646  57.3135376  64.2919302  34.5803261
  39.8940066  38.5567228  72.7702758  39.3523339  38.7839071  73.5260622
  40.4919365  39.2977945  72.6727127  60.4594994  75.0695372  25.3008485
  61.0332489  75.3663254  26.0072207  59.6038294  75.4412127  25.5151367
  39.4927313   8.5971235  26.1683869  39.3434205   9.1574835  26.9299221
  40.4299601   8.6780809  25.9915257  38.9345694  71.7319202  63.7117243
  38.8224506  72.6683760  63.5482883  38.4398365  71.5679932  64.5145893
  62.8732204  83.6161518  52.9688025  63.5831022  84.2144203  53.2019711
  62.7166414  83.1084347  53.7650013  68.1045532  66.6245604  42.8537703
  68.1714249  66.6192961  41.8989229  68.9682293  66.3434744  43.1559086
  46.6775036  61.3453197  64.7234488  47.0598698  62.0577335  64.2111063
  46.8606997  60.5572939  64.2118931  23.0779004  23.3167481  19.3306863
  23.6243224  22.5580764  19.1255641  23.5404539  24.0578508  18.9394808
  20.1916814  73.1915855  48.9858818  19.4916511  72.5932693  49.2470455
  19.7471535  74.0232992  48.8219309  59.0460205  77.4744940  56.5902615
  59.9458456  77.4392796  56.2657452  58.5056496  77.3232031  55.8148003
  38.8164493  17.1432852  23.8414931  39.7228756  17.4426626  23.9121723
  38.4466502  17.6652407  23.1294274  31.1605811  51.0902452  19.1351104
  31.6034889  50.2875566  19.4103467  31.8490458  51.7552614  19.1337049
  45.3392506  69.5846605  23.7657642  45.0427103  69.2838192  22.9068184
  45.4217005  68.7844372  24.2844868  41.0769606  47.0410442  35.3082156
  40.1706839  47.3002434  35.4747033  41.5997601  47.7700233  35.6421351
  70.6987381  59.4035959   4.2025560  70.4760551  58.6053467   4.6815658
  71.2457752  59.1027784   3.4769583  40.6507444  50.8449984  37.2885108
  41.2668419  50.4707384  36.6587591  39.7873521  50.6416321  36.9287562
  68.8073318  29.9733479   5.8250072  68.7879806  30.1640732   6.7628219
  68.0155384  30.3861840   5.4802492  10.6813841  17.1644377  68.5143042
  11.4435034  17.4689077  68.0216551  10.6987410  17.6763701  69.3229151
  57.2117805  74.7671127  46.7279816  58.0814695  74.5941448  46.3674927
  56.6310501  74.7583532  45.9671211  68.1090546  61.3476229  56.7328882
  68.7119532  60.8837938  57.3139238  68.5817337  61.4172792  55.9034538
  45.8099982   4.6574949  63.5980511  44.9699506   4.7596239  63.1507015
  45.5777809   4.5339941  64.5184040  63.3020731  35.6444906  24.9727845
  63.9672491  36.1397146  25.4508257  62.7464601  35.2686762  25.6556392
  89.0191718   4.0854048  45.1488161  88.2442924   4.2140650  45.6958437
  89.7571060   4.2354273  45.7397318  55.4726931  15.9126162  57.6962471
  55.9043905  16.6636824  57.2890902  56.1207720  15.5678915  58.3105707
  88.8335582  14.4151281  25.9142375  88.6709043  14.9465250  26.6935945
  89.6029397  14.8145269  25.5083227  71.2235594  76.6703272  47.5472212
  70.5859232  77.3552704  47.7484655  72.0056772  76.9189644  48.0398750
  43.8921356  82.3230553  47.7115250  44.0011644  81.6168690  47.0746231
  43.9766741  83.1253624  47.1963739  34.3213582  67.8439474  31.7623353
  34.9661660  67.5180006  32.3902011  33.6015797  68.1672287  32.3042178
  70.0463625   4.5572638  29.5913577  70.2997300   3.6767839  29.3142414
  70.7599660   4.8435568  30.1614761  13.3252125  16.8827318  52.6705360
  12.6187973  16.2930750  52.9341650  14.1264515  16.3866114  52.8381968
  44.5992422  59.8828936  35.8837724  44.1215992  59.3241978  35.2706289
  43.9831781  60.0330067  36.6008186  75.5466863  18.2821726  49.0007257
  74.7554132  18.6176561  49.4221163  75.2646562  17.4756693  48.5691690
  50.7711363  74.0536976  62.4906635  50.6282425  74.9732542  62.7147818
  51.6744232  73.8801670  62.7556038   3.0171375   5.1734137  68.0780268
   3.5277634   4.3965220  68.3059168   2.2261696   4.8273920  67.6646757
  71.1571264  71.9008446  61.7965746  70.7076883  72.5988531  62.2730398
  71.9949675  72.2865534  61.5406752  10.9794863  54.1629124  50.7806969
  10.7439002  54.8721027  50.1825476  10.6032046  53.3783007  50.3819132
  14.5486140  84.9392414  56.1844730  14.2022419  85.0093174  57.0740509
  14.2460275  84.0850449  55.8762217  49.6625042  79.5780325  37.2651649
  50.0692701  79.7684765  36.4198828  48.7780619  79.9366140  37.1915674
  26.7006111  84.9889851  66.6112995  26.2800741  85.0713253  67.4672174
  26.0414076  84.5671940  66.0601377   9.0193349  83.3607483  41.6862249
   8.4931207  82.6264191  41.3698339   9.5527142  83.6151695  40.9332275
  72.0368596  28.4806131  39.6489549  72.5478908  29.2899775  39.6522498
  71.4985200  28.5404657  38.8597536  13.3989145  27.6817496  10.0420311
  13.7188055  27.6295025  10.9426906  13.8331176  28.4532340   9.6780231
  59.8321104  85.1140404  51.6288090  60.1258421  85.2144337  50.7233381
  60.5934906  85.3563881  52.1558666  67.5583744  67.6359510   8.2647663
  68.4561157  67.4739885   7.9748297  67.6361179  68.3502293   8.8972139
  60.9803745   5.9665655  47.8526640  61.3963124   6.6240667  47.2950697
  60.3134295   5.5665468  47.2946310  89.7645875   8.0998968  52.2781324
  89.2702171   7.3173117  52.0344257  89.2095968   8.8293528  52.0022583
  41.3980293  65.6832218   9.6874458  40.8923626  65.2365160  10.3664064
  41.2297440  65.1779938   8.8920480  53.5833740  72.1332788  39.8190808
  53.3434248  71.9930363  40.7350445  53.5594177  73.0837154  39.7080302
  75.7786628  30.9566950  46.3445187  76.1679670  30.2809977  46.8995953
  74.8756048  30.6677889  46.2131786  60.2367398   8.7666105  43.8514090
  60.4144117   7.8620218  44.1090679  59.7187849   9.1237902  44.5727825
  10.6501083  15.4439520  36.3106871  11.2379437  14.9320864  36.8662667
   9.7768621  15.1076769  36.5121531   2.5679140   1.2779306  58.0045223
   2.7172165   0.5417036  57.4112988   1.6223507   1.4232801  57.9726124
  84.7986099   4.5680975  45.5741453  84.8755857   3.6155008  45.5206394
  83.8853332   4.7213625  45.8163500  56.3785982  80.5792999  27.8915501
  56.4031553  81.0270596  27.0458937  55.4472685  80.4356670  28.0595589
  49.6215534  75.8908987  46.0426855  49.5563698  75.8576822  45.0882864
  50.5594301  75.8220673  46.2212420  41.3059315   3.7302279  16.2088335
  41.6798660   4.6014475  16.3407135  40.3988096   3.8118528  16.5032828
  58.0797625  71.4027834  13.7076092  57.9610300  70.4605150  13.5881817
  58.5174561  71.4835358  14.5550370  68.0108019  11.0988783  14.8104799
  68.4235236  10.9442209  15.6601703  67.5203439  11.9125818  14.9269986
  80.0774642   1.0635637  32.3350239  80.2917835   1.0362982  33.2675242
  79.7928974   1.9643950  32.1809053  56.4919731   1.1429953  63.8714409
  55.9995123   1.3683580  63.0821848  56.3266632   0.2087568  63.9983034
   5.0399405  75.9035826  36.4905763   5.5512601  76.3799095  35.8364367
   4.2088196  75.7156229  36.0545254  49.7060776  71.0202599  70.4418802
  48.9129162  71.0901880  69.9106216  49.9762869  70.1066256  70.3497458
   3.1723957   5.6434988  43.5293913   3.4377365   4.7338747  43.3937597
   3.5744696   5.8885645  44.3627644  39.8377395  57.7769136   7.0669144
  40.5017996  58.0254507   7.7099431  39.6610522  58.5827017   6.5814030
  21.6582448  79.2455595  69.1396991  21.8290574  79.6029990  70.0110725
  20.7042367  79.2502086  69.0617004  34.4986987  85.3354931  71.2429762
  34.2495584  86.2272549  71.4857388  35.4472780  85.3764820  71.1215448
  54.6732521  58.1173372  31.1801434  54.8343563  58.5680628  32.0090723
  55.0609446  58.6889315  30.5174184  80.1010486   7.6824259  46.7667580
  80.0842258   8.6262774  46.6083765  79.2764160   7.5004458  47.2174215
  70.6482029  82.6975250  24.8411942  70.1603746  83.3570385  25.3344440
  70.3259850  81.8608475  25.1764202  82.8325387   6.4404367  38.0485129
  82.0323297   6.7811560  37.6487541  82.5582096   5.6326651  38.4826636
  16.6435122  61.1890125  43.6789656  16.8258917  61.3119507  44.6105528
  17.0612597  60.3558111  43.4610367   1.2404041   0.1292585  34.3727326
   0.3179865   0.1572966  34.1185880   1.6935234   0.6154703  33.6838841
  24.8695927   3.7640738  23.6436176  24.9958115   3.7269758  22.6955032
  25.3299503   2.9938482  23.9768529  79.7239372  20.8594965  29.2605948
  80.6394073  20.9734987  29.5158315  79.3004724  21.6793512  29.5150471
  73.9821577  51.8856287  46.0228443  74.5836163  52.5252199  45.6415319
  74.3470526  51.0361767  45.7748222  69.1077372  12.3600363  57.8771782
  69.3091175  13.0768274  58.4787560  68.3194539  12.6480078  57.4168396
  23.9220262  84.3495846  73.3554268  24.8529577  84.2265224  73.1698132
  23.4745502  83.8075066  72.7056932  87.0073863  22.3101591  71.6741610
  86.2682840  21.7020868  71.6595936  86.9352647  22.7945494  70.8517313
  68.4841204  63.4256935  50.8591413  68.0144691  62.5918102  50.8417940
  68.8982153  63.4853077  49.9982119  81.4239597  58.4713030  34.1591883
  81.9933128  58.0544376  33.5124350  81.2200165  57.7746582  34.7831511
  27.3316669  74.2354727  65.5576658  27.6951909  73.3782434  65.7795668
  26.6133213  74.0423489  64.9552441  83.6944124   6.5335821  18.1706440
  83.8105365   6.7033457  17.2358024  84.4600459   6.9330381  18.5835266
   1.1056690  13.4232496  69.7291231   1.9489508  13.8260530  69.9361324
   0.5402021  14.1588568  69.4938087  43.7547541  81.6893387  39.0848160
  43.8195372  80.9665298  38.4606433  43.1946659  81.3524342  39.7841239
  87.5069734   8.1270193  30.3810763  88.0312988   7.7925657  29.6534348
  87.6107332   7.4724840  31.0717654  29.6411514  74.4786501  45.0458813
  29.0474200  75.2089214  45.2202988  30.1591396  74.3946457  45.8464193
  68.8394547  67.6541710  31.8323517  69.0409088  68.2425070  32.5600243
  69.4821501  67.8772545  31.1589956  74.3002319  64.0171719  15.2725673
  73.4813070  64.0983629  14.7836936  74.9778032  64.2820501  14.6504962
  64.1628599  50.7310486  56.1929226  63.2519674  50.4388618  56.1593390
  64.5616817  50.1937008  56.8773413  56.8043682  22.3521780  42.4257278
  56.8540427  23.2086920  42.0012760  57.4953529  22.3725390  43.0878115
  56.8092489  71.3461971  17.8416824  57.4064493  71.7786503  17.2312987
  57.2870779  71.3265228  18.6708534  10.9412624  51.4323075   2.4115207
  11.2343265  50.6341202   1.9719389  11.6371728  52.0676548   2.2433593
  75.0274011  10.0420832  47.4886274  75.8989593  10.4279779  47.5764036
  74.8809787   9.9935698  46.5439415  55.7936335  83.2502174  50.9783173
  56.1014843  83.0185795  50.1020718  55.1286507  82.5920200  51.1803246
  85.7464382  16.0778784  39.2272139  84.9849435  16.2168001  39.7902894
  85.4635879  15.4103064  38.6022472  17.2601947  57.0914650   7.8084987
  16.7041167  57.2591734   7.0476508  17.4757727  57.9616117   8.1440586
  34.3747665  71.6259797  14.6613910  34.8869039  71.6770108  13.8543346
  33.8950397  72.4536736  14.6933773  66.9501039  18.9055704  34.9104428
  66.9228455  19.1339277  33.9812827  67.0895430  19.7400259  35.3581810
  12.4442892   4.3111490  48.1931686  13.3200865   4.2745947  47.8086185
  11.8530636   4.3336748  47.4407244  88.2843685  83.6424446  19.2992759
  88.5530472  84.3244743  18.6837447  88.6204624  82.8308105  18.9191139
  27.0476532  75.5642462  57.7187395  27.4231744  76.2914562  58.2151127
  27.6381969  74.8297644  57.8861523   9.1884625  81.2213802  73.2302618
   8.9245045  81.0307026  72.3301506   8.6805326  80.6098747  73.7634611
  65.1322171  31.7259192  54.7186565  65.8905860  32.0537161  54.2352772
  65.5040451  31.3243174  55.5039549  19.4114285  12.0732855  14.9939108
  19.5043354  11.1264872  14.8881900  20.3102951  12.3971151  15.0522423
  88.0139276   4.9055075  25.0204372  87.1210548   4.5636820  25.0670290
  88.3429214   4.8390268  25.9168601  59.8897600  74.2614555  45.3781176
  60.4824400  74.8908567  45.7889938  59.6964502  74.6393156  44.5201635
  23.1013756   2.9410814  33.2205820  22.6599484   2.2643732  33.7338591
  23.5796242   3.4590220  33.8680720  60.3910732  69.9986982  43.5920238
  59.5822620  70.4994678  43.4858179  60.9143496  70.2228403  42.8224945
  70.1670885  57.6549768  35.0869656  69.4494343  57.5715494  34.4590735
  69.7342014  57.8142214  35.9257054  36.1651063  70.5456924  47.2851038
  36.5359473  69.9401712  47.9270172  36.9198132  70.8562374  46.7848873
  86.8056297  35.1465106  26.7376971  86.5761662  36.0118318  26.3988829
  86.4158440  35.1203585  27.6115465  38.1652331  59.7001123  74.1008139
  38.7132049  59.8434401  73.3291817  38.6510205  60.1066589  74.8184204
  28.6984111  65.3470833   1.9432523  29.2396022  65.0232632   1.2231901
  28.4077550  66.2120659   1.6541984  10.9045085  61.9143295  34.6898174
  11.7911013  62.0755959  34.3670511  10.6955298  61.0313749  34.3849325
  22.4222112  68.2822895  60.9017992  21.8503714  68.8704300  61.3950777
  23.1648970  68.8292360  60.6458712  39.7924652   1.0962557  26.0619950
  40.0074598   0.6348967  26.8726468  40.3122511   0.6549715  25.3901887
  78.2864400   8.4140657  41.1237288  78.3941099   8.6152529  42.0533323
  77.3398181   8.3397459  41.0028315  38.6865497  65.4764891  64.4304371
  39.0228963  66.2218237  64.9280167  37.9224372  65.1826048  64.9264145
  74.5005247  41.5318274  42.2446728  74.2293760  42.1630835  41.5781689
  74.5918104  42.0512651  43.0434752  16.4051677  12.4241526  22.5588920
  16.0161020  11.9336922  23.2829788  16.0820867  13.3177979  22.6739814
  40.2478913  52.6674596  68.1088606  40.4616669  52.8182642  67.1881041
  40.9007863  52.0335046  68.4056089  82.9370567   7.4731421  58.2510757
  82.5649091   6.6198706  58.4739351  83.8501045   7.4172281  58.5329437
  71.1135122  32.0311045  44.6032476  70.2794787  32.5005793  44.5885515
  70.8714506  31.1174845  44.7547007  44.2645952  20.1211905  60.9488630
  43.8145801  19.5163702  61.5387058  44.4151565  20.9044050  61.4781475
  29.9714708  58.2411337  33.5435700  29.8584747  57.3965263  33.9795828
  30.6400013  58.6901999  34.0609074  11.2730324  45.7082796  13.6821890
  11.2653947  45.8336973  14.6311057  10.6073844  45.0389338  13.5236955
  90.4457303  35.5014681  24.7687626  89.9256584  35.1360010  24.0530920
  90.3074857  34.8972200  25.4981446  70.8017370  15.0909971  40.9039402
  71.1693784  14.8298048  41.7482471  71.0014697  16.0245298  40.8342218
  89.8447820  21.1052488  42.3045349  90.4993030  20.8370947  42.9494572
  89.0253421  20.7270025  42.6234150  80.0757599  71.3127708  39.1314864
  79.1301966  71.3860369  39.2609859  80.4462242  71.4152956  40.0081158
   0.9339743  10.2035402  25.7057905   0.6178646  10.9704565  26.1834478
   1.6272526   9.8451685  26.2600136  39.2634940  63.3912230  35.3768468
  39.5372558  63.8743591  36.1565018  39.9339032  62.7172136  35.2650547
  64.8897266  69.8998308  42.0760250  65.0636816  69.0447092  41.6826582
  65.0292778  69.7651291  43.0133724  69.8473215  72.9462814  54.5702410
  69.6969271  73.2576323  53.6776781  70.2880955  73.6750746  55.0070572
  52.1978140  56.8638897  30.9118199  52.9937983  57.3952436  30.8943486
  51.4969492  57.4748611  30.6843543  54.5996094  76.5709305  22.7877069
  55.0782824  75.8586025  23.2116103  55.2603340  77.2468185  22.6365399
  73.0686637  35.1696276  57.1223164  72.5679275  34.4711851  56.7008114
  72.4503633  35.5737566  57.7310991  20.3691246  55.1921208   0.9386518
  21.2676240  55.1407464   0.6126287  20.0527145  54.2891152   0.9121444
  66.2403628  25.6148886  26.3205218  65.8845493  24.8230433  25.9172750
  65.9771677  26.3223909  25.7319736  49.5526632  18.5119509  46.0206556
  48.7167272  18.9748453  46.0769796  49.7445246  18.4771894  45.0835228
  50.8905363  70.8232450  43.2254982  50.3427792  70.4725790  42.5231934
  50.2856970  71.3221741  43.7745571  54.5728207  80.1561260  21.6242909
  54.3834209  79.4678926  20.9865689  53.9937925  79.9649143  22.3621225
  79.2987558  29.4664835  68.9965248  79.6909782  28.7986349  69.5589924
  79.5870801  30.2973436  69.3743992  89.5558711   0.3102373  33.2569647
  88.9863225  -0.2669168  32.7483010  88.9799997   0.6918024  33.9195490
  18.8864021  14.7805761  63.9180422  18.2315044  14.1830420  64.2790031
  19.6989708  14.2746424  63.9196348  66.6936111  53.7696886  57.0945692
  67.2964954  53.0613756  56.8686152  67.0549774  54.5405197  56.6570044
  56.6854668  67.6244640  25.0323272  56.7779064  67.6850319  24.0815282
  57.3047638  68.2690382  25.3747201  45.3626966  79.2884779  73.8811731
  44.9142790  78.9530802  74.6574831  45.0012064  78.7781096  73.1565475
  66.5165091  64.7507477  28.5784149  66.4482880  65.6684637  28.8418102
  67.1697569  64.7502995  27.8787756  49.6735191  85.7013035  23.9083076
  50.1188898  85.0042725  24.3899965  50.2481031  85.8835030  23.1647420
  58.6567211  79.3380022   1.4282450  59.3947887  79.8527861   1.1019292
  58.1065321  79.9725533   1.8874471  70.1479455   2.0218920  25.5044484
  70.9018060   1.9349073  26.0878539  69.7744748   1.1415457  25.4628062
  27.7784233  21.4224600  47.1028900  28.2904987  22.1884226  47.3623419
  27.1435432  21.7613577  46.4717817   8.6277990   0.7565760  52.9884720
   8.6398535   1.6393923  53.3582354   9.0264874   0.2083754  53.6643076
  37.7337170  60.4961395  14.1736960  37.1028709  60.2667236  13.4913230
  37.7071404  59.7579241  14.7824359  58.0845261  78.5421133  29.2388201
  58.3516169  79.1691923  29.9108791  57.4831295  79.0329027  28.6787486
  38.2983756  61.2935925  64.6548843  39.1327524  61.5030003  64.2351341
  38.1169605  60.3916883  64.3905067   5.1054019  76.2549877  63.9773560
   4.4607183  75.5990076  64.2425060   5.4896045  75.9024382  63.1746531
  46.9507122  81.9402027  37.4827647  46.0393190  81.6929531  37.6391482
  47.1432352  81.6041374  36.6074228  82.7168485   6.6469263  48.8005686
  82.7040502   6.7684053  47.8511906  82.4037906   7.4800657  49.1528702
   2.2945360  18.4663335  60.6576738   3.0210379  17.9135601  60.3698001
   1.7628745  18.5916797  59.8716352  42.8377867  84.1142654  74.1632175
  43.3416605  84.5085430  73.4512615  42.6785898  84.8355579  74.7720146
  51.8323088  81.3319016  57.1144962  51.0871124  81.9247818  57.0175457
  52.4390888  81.5947056  56.4224100  64.0982819  62.4176788  19.5633638
  64.3496323  61.7656660  20.2175307  64.8847818  62.5387669  19.0313995
  73.9546415   3.3103441  55.9307480  74.1916677   2.9209303  56.7724180
  73.3997175   4.0559362  56.1596012  84.1900846  13.2907557  58.0327797
  84.6572944  12.4907373  57.7921009  84.8472711  13.8280558  58.4750938
  71.4283514  57.8632498  61.5081310  70.8947515  57.9560423  62.2973680
  71.8721485  58.7066031  61.4185381   2.2121867  80.0946999  55.2018738
   2.3186835  80.4452419  54.3175602   2.4088629  80.8335876  55.7777119
  69.7303363  27.6308226  69.0722370  69.5815321  28.5468554  69.3067026
  70.5954095  27.4297022  69.4292068  72.8377649   4.8811506  14.2219245
  72.6949712   4.5865606  15.1214027  72.0325109   4.6444963  13.7617075
   4.5058092  49.5500326  40.9649897   3.5510257  49.5475817  40.8970594
   4.8097646  49.3770838  40.0739622  81.0286209   1.3379931  37.9458380
  80.7591506   2.2344660  38.1457424  81.4037105   1.0125326  38.7641358
  75.8786699  18.6649870  28.5882473  75.0618669  18.1729292  28.5049391
  75.8822843  19.2528032  27.8328013  67.6733037  38.7386393  32.8625274
  67.5269386  39.6739172  32.7208877  68.4871193  38.6969160  33.3647180
  47.0028114  83.4631062  46.2705708  46.8738461  84.3571472  46.5872622
  46.8111324  83.5107899  45.3339720   5.5280047   1.6466021  34.6804762
   5.9111624   2.2511648  34.0449262   4.6700649   1.4283823  34.3163967
  38.9599872  64.9900532  37.8609538  38.7327933  65.9038782  38.0328178
  39.9170113  64.9799776  37.8456950  74.8944378  72.3684692  56.6291380
  74.8898745  73.3067942  56.8182421  74.6588659  72.3095942  55.7032490
  58.8461637  67.1978664  19.1367519  58.0083132  67.6430130  19.2635763
  58.6796522  66.5696573  18.4340000  55.8052397  69.5141983  61.0373878
  55.7546949  68.6921263  61.5251112  55.1273155  70.0661039  61.4273262
  61.4170572  16.0657858  68.6607409  60.6462332  15.5037092  68.5824060
  61.0738202  16.9556593  68.5798216  10.9111195   9.2404150  72.1115065
  11.4923601   9.5821642  71.4320946  11.4698200   9.1551851  72.8840494
  24.5990067  22.1082281  62.1878290  23.6809712  21.9819140  61.9480610
  24.5827847  22.8139566  62.8343010  51.5070343  74.9405718  32.4013925
  50.7813978  74.4428062  32.0246720  51.9800711  75.2849054  31.6438317
  18.3540897   5.6145357  42.9977322  17.8003292   5.1479029  42.3717690
  19.2217617   5.6183409  42.5935507  32.8691101  76.6181612  53.8895845
  33.6963940  76.4181519  53.4516048  32.7342844  77.5525713  53.7316608
  16.1574535  49.5279669  29.7885847  16.0375290  49.0350031  30.6002712
  15.9193258  48.9112162  29.0963793  79.2399549  66.1517000  66.2206030
  79.3970966  66.3032579  65.2886295  80.1111889  66.1708164  66.6166115
   5.8596517  63.8556416   8.9813163   6.1607601  64.0643151   8.0969932
   6.0677601  62.9279835   9.0925338  41.5998840  77.9486799  61.2032938
  41.5705061  78.4976721  61.9868565  40.8859015  78.2747793  60.6554604
  87.9450226  61.3193798  59.8745966  88.3613873  60.7918119  59.1930199
  88.6257076  61.9324017  60.1522732  17.8822308  31.4272093  51.6728544
  17.1332722  30.8900808  51.4144278  17.7315550  31.6187738  52.5985050
  75.0754929  71.7393064  31.5920043  75.3918743  71.8394470  32.4898410
  75.3641129  72.5356245  31.1461329   1.4772682  10.9470057  70.6308079
   1.2503367  11.8081640  70.2799082   2.2368507  11.1089300  71.1903143
   4.0761213  35.9038328  39.3768239   4.8994093  36.3818049  39.2769790
   4.2552023  35.0387453  39.0083218  59.5256233  78.1195688  68.1913757
  58.9648676  78.8565302  68.4335995  58.9149618  77.4241781  67.9469109
  59.3770552  67.7085114  44.3033743  58.4322596  67.7286911  44.1510916
  59.6942043  68.5402346  43.9513969   8.9374094   6.7843412  56.5332127
   8.3873730   6.2218546  55.9879637   8.3535652   7.4878096  56.8169308
  60.4397103   8.8181185  67.1175337  60.2792260   8.5559439  66.2110376
  59.9398538   9.6273493  67.2248983   2.9512339  21.6223501  23.9077520
   2.4294739  21.8300032  23.1325865   3.7905531  22.0563959  23.7548375
  53.8096952  83.4138489  42.8689003  54.3599081  82.6982307  43.1873131
  52.9475737  83.2393456  43.2464266  24.6380283  39.0563996   3.8977220
  25.4842283  39.4473488   4.1152837  24.5907308  39.1037304   2.9428651
  77.4110528   7.5653528  47.4849987  77.1329996   8.4677767  47.3283100
  76.6378089   7.0381521  47.2840261  67.4624062  71.0439110  61.4958763
  67.9985762  70.7992649  60.7416248  67.2562742  71.9677687  61.3536406
  84.9186039  75.5032969  43.9062977  84.0165520  75.5626297  44.2209530
  85.2915001  74.7637558  44.3861532  20.2331333  43.7442469  56.2137604
  21.0227089  44.1884874  55.9047937  20.5177479  42.8485464  56.3952780
  80.3643295  40.5780005  69.6231747  80.3570053  39.6422266  69.4218922
  79.9916097  40.6366896  70.5028677   2.2824554   2.9436373  63.9380074
   2.5725298   3.7396788  64.3834352   1.8477516   2.4322008  64.6204233
  89.9848434  27.5430750  57.7646446  90.6121084  28.2579588  57.8728914
  89.5708057  27.4556707  58.6232281  16.9453745   6.0170149  13.3146405
  16.7766933   5.0756811  13.3554232  16.1968451   6.4139914  13.7600029
  30.6674652  19.3863272  39.8689055  30.5401592  19.1717505  40.7930183
  30.5135231  20.3297304  39.8186660  80.0603792  24.8421358  39.1035485
  79.6125194  25.6544374  38.8673091  80.7210800  25.1099276  39.7422886
   0.2885180  20.7820391  68.3848095   0.1610260  21.1413740  69.2628002
   1.1057358  20.2872919  68.4448433   9.8366671  51.7951750  54.8482084
   9.2508822  52.2278475  55.4693985  10.1941423  52.5084852  54.3194056
  66.2607956  85.5599022  55.6560802  66.9323587  84.8949623  55.8080196
  66.7067766  86.3916397  55.8159351  77.5937005  31.6524672  42.1780825
  77.2789356  32.0870947  42.9707098  77.1571990  30.8006071  42.1826124
  86.4234706   0.6558870  41.9907951  85.9624311   0.2510237  42.7254772
  85.7612678   0.7290529  41.3035059  45.0253916  61.1544752  26.5351892
  44.9344683  60.3083324  26.0969996  45.9451389  61.3898230  26.4130807
  31.6365891  39.0761255  22.8420353  32.1751862  39.4766211  23.5245013
  32.2017269  39.0598654  22.0696473  88.7044498   1.2686228  37.2862196
  88.7145397   2.1297049  36.8682885  88.2280036   1.4053988  38.1050754
   4.7722702  25.1093077  44.8837280   4.9202423  25.5475592  44.0457106
   4.6274452  25.8229898  45.5049515  91.1252710  21.0404276  74.0111923
  91.8612787  21.1540960  73.4098530  90.5152866  20.4738878  73.5387659
  22.3006877  82.5367832  45.9536791  22.6016959  81.9756126  45.2390337
  22.1879443  83.3977699  45.5509043  58.1687260  77.9272747  60.8113289
  59.0903425  77.6867867  60.7163572  58.1838274  78.8671589  60.9919310
   3.2868128   7.4812960  16.0674429   4.2244892   7.6355146  16.1823857
   2.9577904   8.2890677  15.6731474  84.3820763  66.3930893  61.8957186
  84.5287132  67.3096991  61.6621494  84.6331501  65.9032536  61.1126089
  89.7123929  13.5215544  65.5392933  89.3164464  13.1795477  64.7377443
  90.5784913  13.8255095  65.2677917  30.6539421  17.3059153  30.1986217
  30.0431137  16.6078447  29.9623632  31.0464649  17.5722479  29.3672252
  19.7467138  60.0856144  13.3085182  19.8211242  59.3605740  13.9290168
  19.7884942  60.8719094  13.8527992  10.1882582  34.4442152  56.9806576
   9.7620897  34.9385332  57.6808405  10.6442814  33.7340044  57.4321795
  62.7912569  82.7495670  44.4297266  62.8720522  82.4366093  43.5287476
  63.6901140  82.7683640  44.7582579  62.6699495  75.1155281  23.5374975
  61.8306160  75.1219225  23.9976144  63.1361008  74.3622017  23.9000392
  35.9127784  69.9327564  21.8265247  35.4099607  69.1186714  21.8006682
  36.4242911  69.9241352  21.0175037  90.1864406  44.9225878  20.2843380
  90.3026315  45.5530523  20.9951401  90.9184333  45.0925039  19.6914256
  16.4544087   0.4308485  44.5543957  17.3056774   0.0781511  44.8135996
  15.8467846   0.1007151  45.2162361  66.7030334  79.9497652  23.0693007
  66.7988634  80.2808475  22.1763086  66.7768002  80.7275581  23.6223173
  46.8833208  71.6041374  29.9696279  46.0043383  71.4143181  30.2976394
  47.1461248  70.8052158  29.5125842  81.1366340  20.5251287  43.0640602
  80.9734222  21.3380884  42.5858450  81.9850847  20.6614756  43.4856892
  75.1924297   0.7088636  47.8740311  75.5064937   0.3500532  48.7040043
  75.9852954   0.8375620  47.3534203  76.7542526  39.9689459  23.9822006
  76.2160942  39.9286150  23.1916380  77.6079866  39.6339010  23.7081289
  55.6026840  66.5448189  70.7002831  54.7140455  66.8930960  70.7727480
  56.1670589  67.2718763  70.9631586  39.1402864  82.3100471  25.9101415
  38.6029744  82.7164936  26.5900922  38.5420132  81.7183018  25.4539180
   7.2493630  25.0012659  51.4529181   7.7397804  25.0356840  50.6316137
   6.7103844  24.2138647  51.3772345  48.9773655  76.2987041  55.9231949
  49.0530872  77.0973682  56.4453316  48.7690210  76.6077852  55.0415516
   7.9309111   4.3111395   4.7539666   8.1539087   5.0649046   4.2077520
   8.7577658   3.8414072   4.8630506  67.5040289   5.2152895  49.3175840
  67.2476694   6.0772108  48.9895487  67.4105617   5.2831339  50.2677917
  87.5667831  18.6133360  70.5537415  88.2830163  18.7051081  69.9253988
  87.5533506  17.6802897  70.7670164  74.3703624  12.4795984  58.0595112
  74.0012857  11.6264986  57.8309822  75.2577039  12.4604677  57.7010632
  64.8202782  15.1186537  66.5371275  65.2324562  14.5810770  65.8608437
  64.2314320  14.5183443  66.9944286  63.8901234  82.3598289  29.9445009
  64.8079634  82.2617626  30.1978517  63.7686110  83.3040905  29.8452902
  75.4196167  55.3377628  46.8793821  75.2515793  54.7935009  46.1101151
  75.8607388  56.1131811  46.5324354  12.0342898  76.8441010  43.0697012
  12.9692805  76.6470242  43.1261396  11.8908632  77.0632982  42.1490431
  21.3472061  17.3545622  25.6007361  20.9669190  16.5120100  25.8491540
  21.9152050  17.5868868  26.3353372   6.8666487  44.6978258  28.7906241
   6.2176113  45.2684282  28.3790421   7.7076941  45.0161623  28.4627104
  64.9313995  11.4586615  18.2443047  65.6616041  12.0235037  17.9913688
  64.2935249  12.0537828  18.6382246  22.7741699   1.8496775  30.4781699
  22.3453217   2.6978182  30.3642511  23.3089905   1.9554590  31.2649393
  35.8255653  14.1388773  71.1023712  36.5206890  14.6341108  70.6690264
  36.0130291  13.2250666  70.8878279  73.1734296  19.3940615  35.1455164
  72.6502916  20.1523184  35.4055405  72.8727743  18.6880564  35.7177043
  88.7477371   5.5154966  63.2088852  89.5365449   5.6335615  62.6796675
  88.1401512   6.1803602  62.8848028  61.7104483  65.3625154  64.7989225
  61.0619068  65.7032681  65.4149675  61.2438869  65.3097105  63.9648008
  54.8085405  76.7860157   3.0591848  55.4862405  76.1876805   3.3737638
  55.1748754  77.1637089   2.2595766  64.1572806  16.8490004  50.7647371
  64.1590663  17.8041338  50.8276033  64.9533483  16.5774130  51.2216234
  88.0505344   4.9240183  40.2256632  87.2290441   5.2073263  39.8242593
  88.6979982   4.9990057  39.5246649  52.6647902  77.3691797  49.5689917
  52.2693968  76.7774105  48.9289141  53.2436085  77.9292727  49.0517950
  91.2048599  31.5127729  40.2587032  90.3182479  31.2169050  40.0522804
  91.1402770  31.8606352  41.1481190  11.2002783   9.9398397  66.2808371
  10.2577000   9.8006510  66.1891603  11.5869551   9.0811037  66.1097145
  89.5821306   1.9577669  43.6431408  89.1086217   2.4834513  44.2878628
  89.3905660   2.3775934  42.8045273  81.4078065  30.3050303  48.0042028
  81.7009469  30.7074331  47.1866655  81.3177081  31.0380529  48.6131287
  12.4869232  12.2874903  48.1543875  12.8621893  12.8858542  47.5083494
  12.5549488  11.4233278  47.7483797   0.4153900  27.1169352  47.1859407
   1.0677462  27.1384691  47.8860855   0.9300594  27.1191763  46.3788843
  15.9360531  22.4403898  62.6604423  15.5975417  23.3342878  62.6094863
  16.6126803  22.4786846  63.3364150   4.5716600  25.3610109  16.5078890
   4.2926960  24.7508596  15.8251548   5.3568249  25.7766031  16.1514676
  33.7075902  50.2775605  11.5389564  32.8121950  49.9447281  11.4779403
  33.7203981  50.7829030  12.3517921  89.8744460   2.4207949  48.0695772
  89.8943111   2.9517149  48.8657904  90.5457803   2.8071951  47.5072336
  28.2178001  21.8742918  59.0732956  28.6489468  22.6624941  58.7430191
  28.9192562  21.3749098  59.4913960  80.1133033   5.2513765  55.7171202
  80.5736133   5.6513189  56.4549494  79.6328279   4.5190023  56.1031342
   5.6127529   7.6009153  33.9586902   4.9553566   7.8672575  33.3159423
   5.4251366   6.6770338  34.1244340  85.0808971  61.7138798  12.7023246
  84.1386073  61.7544301  12.8656604  85.1585167  61.2741692  11.8556526
  20.0102787   7.4233412  24.3898249  19.6183090   7.1018862  23.5778761
  19.5096188   8.2110952  24.6019983  35.6521608  37.0036013   3.3911970
  36.2368585  37.5054104   3.9591339  36.2359954  36.5739806   2.7660587
  81.8590546  46.3922548  42.6998425  82.3690796  45.7706594  42.1804905
  81.1895943  46.7155457  42.0969009  57.3241091  73.3174229  65.4723263
  57.4073505  73.7251663  64.6103191  56.5092182  72.8176594  65.4232025
  68.9505483  31.4854176  16.5941456  68.9044095  30.5440648  16.4269474
  68.0591585  31.7995722  16.4426162  27.0986061  30.6382154  54.0542698
  26.8915634  30.6684851  53.1202221  26.5289478  31.2993979  54.4474125
  66.9284058  80.0289917  58.3686543  66.7687368  80.9628010  58.2317066
  66.0738897  79.6731043  58.6123323  76.0483313  62.6464033  62.8147221
  75.7970858  62.1124411  62.0610714  75.3533030  63.3005571  62.8871536
  85.4929181   4.1473650  26.0737133  84.7443458   4.3570208  25.5152202
  85.3317377   3.2493185  26.3631225  90.5028936   1.4696192  63.1993866
  90.1623603   1.7574190  62.3523712  90.5365392   0.5153631  63.1322908
  15.7285119  70.8667977   0.9323719  16.2180854  71.0146553   1.7414978
  14.9818136  70.3304512   1.1988428  47.4089917  29.4379591  57.7153349
  46.5044412  29.6776175  57.9167843  47.7855870  29.1924070  58.5603857
  32.2335172  81.5310574  43.9264488  32.4781752  81.3585663  43.0172634
  33.0557966  81.7691231  44.3547153  60.1158830  14.3518137  56.5213537
  59.3522998  14.3128943  55.9454584  59.7915908  14.7651171  57.3215055
  47.6493549  77.9073381  18.7250793  46.8811750  78.1976700  19.2168546
  48.2186031  78.6762524  18.6941338  22.7077179   2.5143599  72.9144096
  22.8605537   1.6024279  73.1619072  23.5254746   2.9618238  73.1318378
  25.1197128  16.7015432  33.6727285  24.3230610  17.2299646  33.7211251
  25.3849487  16.7516684  32.7543759   4.4109278  17.4162077  38.8733864
   4.3017368  18.2122873  39.3935442   5.2298861  17.0342802  39.1890812
  42.9280139  74.2282803  13.5188415  42.8428270  73.6577446  14.2826965
  42.6604320  73.6812909  12.7803066  39.8911759   1.2008261  40.5409765
  40.2962616   2.0675825  40.5704641  40.3863796   0.6832861  41.1759233
   2.4702864  33.8550924  54.4925117   2.2568684  33.3337473  55.2663898
   2.1564035  33.3302664  53.7561274  85.1415920  63.0470133  20.9815693
  84.8228073  63.9431429  20.8740354  85.6547451  62.8788805  20.1912260
  71.1535025  81.1767673  46.3742781  71.0311890  82.1150494  46.2296867
  71.0020208  80.7804585  45.5162477  83.3837509  72.4023056  45.5564260
  83.2499790  72.2245550  46.4874172  84.2854691  72.7184582  45.5001020
  50.4768133  75.3300953  65.6882715  50.2162170  75.5121613  66.5911388
  51.3811255  75.6389666  65.6330681  34.5339298  67.9899359  18.2034743
  34.8536777  67.1799421  18.6008477  35.2585173  68.6075258  18.3023727
   5.2287178   5.2194475  59.5522785   4.6745281   5.8949541  59.9431753
   4.8251801   4.3938898  59.8203087  51.3634777  50.8045530   2.0071697
  50.9589434  49.9371004   1.9968975  50.9240723  51.2820959   1.3035294
  88.2271671  73.8198090  56.5768671  88.7163162  74.6391249  56.5015078
  88.0748749  73.5476685  55.6718922  74.5931435  70.2685976  60.1632881
  74.2322636  70.7125044  60.9307098  73.8434696  70.1514673  59.5797634
  87.6700899  32.8274893  17.9150426  87.6957008  31.9103407  17.6422465
  88.2915136  33.2673716  17.3348987  31.8133736  77.3186016  31.8116498
  31.3267875  77.8302145  31.1653376  31.1668062  76.7125225  32.1733832
  34.5562820  15.4547476  56.0061502  34.0165787  15.5433439  55.2205992
  34.3562203  16.2348913  56.5234327  78.3423396   6.9427465  60.3376770
  77.6999828   6.2568544  60.1555872  79.1592523   6.4697908  60.4964304
   7.3344402  -0.1328779   1.6290958   7.5396185   0.7907080   1.7744918
   6.6824369  -0.1259352   0.9283290   4.2166643  15.7194017  19.6439183
   4.2599468  16.0263800  18.7383127   3.2898216  15.7832026  19.8744071
   4.4613771  55.2526640  28.3007574   4.7061853  55.1279329  29.2176795
   4.5709162  56.1914228  28.1491828  63.2069540  80.6688595  38.6299133
  63.1480360  81.6164494  38.5081363  63.9622307  80.5478287  39.2053628
  23.5193825  72.8263807  52.8834534  22.5766206  72.7289486  53.0173874
  23.7570357  72.0954990  52.3128700  77.9554578  10.6958651  65.9279060
  78.1988355  10.7243513  66.8532133  78.2693693   9.8442816  65.6237841
  37.8239327   0.5286764  70.6630516  37.4652748   1.3542723  70.9885883
  37.9715996   0.0046896  71.4503717  85.4320880  25.5417418  26.7463684
  85.8370277  24.8746180  26.1921096  85.5862876  26.3645815  26.2822700
  87.2583771  71.0232830  25.8238697  88.0060673  70.6574202  26.2964535
  86.4929485  70.6479931  26.2592030  36.8865757   0.8552336  58.9173126
  37.2851257   1.0792040  58.0763435  36.4067917   0.0447248  58.7466812
  59.5164319   3.9536928  40.9106541  59.5258614   3.2533430  40.2582312
  58.7720343   4.5019983  40.6627178   6.6873770  22.5688623  50.6890059
   7.2859507  22.0003675  51.1735249   6.9276886  22.4428343  49.7710752
  76.8278074  65.3052998  41.8883801  76.5888071  65.9448242  42.5592899
  76.7153788  64.4562912  42.3159075  33.4469585  31.0554384  21.3573599
  33.8901978  30.2274488  21.5423155  32.7024441  31.0681223  21.9588208
  78.3985015   4.0588450  36.3989902  77.8891870   4.7282862  35.9421706
  77.7613040   3.3771585  36.6123104  37.4668675  11.3656115  22.0769310
  37.6242428  11.0751890  22.9753280  36.5512161  11.6445040  22.0722914
  86.3758394  11.1074614  69.1915083  87.0619604  10.4457354  69.2786455
  86.5907356  11.5700792  68.3815479  87.0516109  70.1040459  28.5697246
  86.2339687  70.1282549  28.0726266  87.3669147  71.0077286  28.5563135
  17.4312477  36.8629335  40.7892418  16.9750624  36.1004042  41.1451626
  17.0234327  37.6111101  41.2253094  36.8623428  17.4457716  49.3583441
  37.7663117  17.4213671  49.6721411  36.7021542  18.3685946  49.1609573
  22.0894508  22.2880434  61.3465548  21.2233048  22.6605200  61.5116978
  21.9843941  21.7867826  60.5378914  72.9547759   5.5195116  27.8637457
  72.1977874   5.2976107  28.4059191  73.5407087   5.9942411  28.4532809
  65.5592299  66.5599918  53.6054039  65.8793211  67.2817326  54.1465712
  66.0459232  66.6414881  52.7852058  26.8216305  16.1455320  68.3544874
  27.0804100  16.6149878  69.1475010  27.5987511  15.6435083  68.1089830
  77.8536797  77.9909801  61.8138552  78.6387444  78.4585476  62.0989704
  77.9907703  77.0906925  62.1086693  90.8010197  64.1113806  45.4651403
  91.2720585  64.8094225  45.9202051  90.3383446  63.6424398  46.1595917
   3.2980328  19.8767256  62.9169512   3.6240892  19.1511892  63.4494162
   2.8493242  19.4537615  62.1848345  41.6801882  82.3615742  13.8749146
  41.0362387  82.6180935  14.5350373  42.3830891  81.9463348  14.3746507
  55.5614471  82.5193977  64.2111301  55.5453253  82.3374653  63.2715178
  54.8358917  83.1281662  64.3496990  63.7106511   3.6466860  68.9092875
  63.8800332   3.0320810  68.1952858  64.3172523   4.3701433  68.7515354
  11.3939838   0.4813265  28.3295655  11.4673739  -0.4483534  28.1138372
  11.4926558   0.9305166  27.4900866  74.7081872   1.7709421  28.2801199
  74.5909568   2.2101568  29.1224813  75.3824493   2.2837233  27.8344154
  53.0048653  14.9744486  57.2404289  52.6962062  15.6758284  56.6668081
  53.9398667  15.1480936  57.3493004  55.0555420  63.1728220  26.5016580
  55.0475264  64.1147900  26.3317728  55.9544706  62.9031372  26.3134313
  18.0032187   8.5369562  56.8481016  17.2220545   8.0308222  57.0713663
  17.7749472   9.4398283  57.0693398  18.0079870  29.1067099  10.7372510
  18.4720926  29.3169283  11.5475857  17.6068525  29.9335550  10.4695714
  75.3602239   4.1673731  43.8173628  74.7388383   4.8825335  43.6807537
  75.7824632   4.0510916  42.9662323   3.2364731   8.3602594  47.3870945
   2.3931961   8.8112520  47.4286652   3.8033848   8.8576101  47.9765797
  68.3339119  65.7825518  63.1922626  68.7162018  65.6291151  64.0562916
  68.6876678  66.6295528  62.9208231   8.7432938  54.9382948  47.1682310
   8.1125526  54.8936724  46.4496183   8.7983208  54.0401911  47.4947357
  63.2884690  35.1962351  58.8022232  63.0062791  34.3471121  58.4622383
  64.1628596  35.3230738  58.4340048   8.8172464   6.1057734  39.8195171
   8.5233383   5.2760290  40.1955271   8.8801889   6.6990065  40.5680799
  57.2928544  16.3181471  50.6609535  57.7668115  17.0985865  50.3737164
  57.8630349  15.5887007  50.4179764  49.2911320  30.2765917  60.2558708
  48.7791615  30.5920385  61.0005951  49.2469673  30.9875654  59.6165037
  80.7749816  19.9792265  33.3775902  80.8490583  20.4217218  34.2231321
  80.2311155  19.2119288  33.5556459  52.5831699  65.5110884  39.2281723
  52.6245260  66.4180088  38.9248347  51.6502237  65.3467464  39.3654251
  66.0943743   8.8448023  51.4146328  65.6647440   8.6333918  50.5858040
  66.8744394   9.3381762  51.1610413  76.0179956  83.6312049  19.3124354
  75.1674588  83.2138527  19.4489491  76.1894972  84.0984529  20.1300526
  20.1889181   1.5550661   9.7041589  20.8494616   0.8625068   9.6875441
  19.8978662   1.6303039   8.7953907   9.1320568   1.3161309   7.7398044
  10.0746191   1.4819437   7.7220494   8.8362467   1.7032376   8.5637444
  20.2969384  24.6595430  66.8696833  21.1234879  25.0031853  67.2087383
  19.7239399  25.4243541  66.8152094  50.6606312  79.8609389  10.9736705
  50.7264657  80.6128908  10.3850567  51.2307615  79.1994000  10.5818188
  49.2372723  66.0132111  16.2957370  49.8181314  65.2896930  16.5310144
  48.3578975  65.6852604  16.4838350  27.9467133  74.0254296  61.1419344
  27.0615843  74.3639971  61.0072088  28.4761885  74.8029519  61.3189888
  38.2938886  30.1017189  23.4418774  38.2463813  30.4532433  22.5528288
  38.4108114  30.8719397  23.9980412  11.4276481  26.6090584  51.0962820
  12.1487987  26.9132495  50.5452490  11.8286526  25.9680986  51.6833067
  48.4506893   6.7014974  69.4632912  49.1463375   7.0734000  70.0055027
  47.7641678   6.4617217  70.0857258   9.6326983  20.4070306  14.1934764
   9.7218853  21.3596034  14.1637480   9.2858857  20.2260900  15.0670969
  63.5064782  74.2840172  38.7239456  63.1863036  74.9318672  38.0962443
  64.3186475  73.9568222  38.3372211  22.2590947   7.5930864   9.0417761
  22.5554991   6.9842720   8.3652252  22.7399206   8.4014171   8.8638979
   6.5820247  31.5497923  15.3979647   6.8494195  31.3938880  16.3037372
   5.6826305  31.2250900  15.3544772  28.8907695  15.3822887  32.0686173
  28.2754540  16.1134017  32.1242332  29.4947577  15.5215502  32.7980256
  76.2773902  78.5388745  36.0493994  75.8131916  78.6272288  35.2169657
  76.9773097  77.9116477  35.8679318   5.7206038  79.3382842  25.1745772
   6.1352733  80.1589251  24.9084425   4.7942022  79.5585973  25.2719259
  25.1870441  23.5834455  42.2408485  25.7303643  22.9275465  42.6776934
  25.1346207  24.3061304  42.8663158  35.4737043  13.0803645  17.7096200
  35.7565904  12.6343620  16.9113171  34.7587895  12.5397170  18.0455232
  89.0523849   7.1699393  46.4323473  88.5704467   6.4038026  46.7437983
  88.4054378   7.6765668  45.9414101  22.1010137   9.7222894  44.7527838
  21.9841814   8.9911258  44.1461706  22.4246120   9.3167603  45.5571842
  22.7062650  74.5151306  12.3177826  22.1986933  74.2834414  11.5400159
  23.6012907  74.2484761  12.1078885  73.2210488  64.8232628  35.7266259
  72.4378712  64.2961861  35.8849144  73.0054576  65.6853868  36.0822868
  87.6461334  80.1862223  14.4320703  87.2426934  79.6758712  13.7299228
  88.4479876  79.7087623  14.6448946   8.2533836  50.8320427  44.5467997
   8.8900137  51.4345884  44.1622639   7.8676426  50.3801632  43.7963057
  54.5447111   2.0115346  20.8796620  55.3827953   1.8100411  21.2958956
  54.0509081   2.4823277  21.5510368   4.7969297  83.6112098  74.1289520
   5.1428870  84.4533689  73.8334656   4.1283396  83.8401579  74.7745562
  87.8373690  58.5720230  21.5825653  87.3375673  59.2527271  21.1319304
  87.1783252  58.0657507  22.0575190  40.4321241  18.1155360  46.7195463
  40.0879192  18.4650135  45.8975840  40.5919361  17.1894383  46.5377855
  20.7698870   3.2302308  43.0071640  21.5073276   3.6023143  43.4908628
  20.0319076   3.2877541  43.6140490  30.4507899  49.3197823   9.0468931
  29.6110797  48.8731623   8.9389515  30.9928989  48.9866972   8.3317667
  18.6569560   2.2861646  60.3387976  18.6990488   1.3852644  60.0181103
  18.2501113   2.2142814  61.2022448  10.6050277  20.6021500  42.4320030
  11.1108243  20.2741933  43.1755352   9.8322368  21.0055852  42.8273058
  34.7810173   9.6506822  30.8816767  35.0079918  10.2255583  31.6125894
  35.5692315   9.1279429  30.7343864  19.4577181   2.4403982  12.0935082
  19.8352075   3.3102006  11.9624460  19.6298635   1.9784766  11.2730050
   6.4979628  70.2848233  54.9173689   5.6440333  70.4795111  55.3035450
   6.3057211  69.6722353  54.2074299   9.6796540  65.2288843  51.8567181
   9.6233109  64.7219540  51.0467291  10.0195149  64.6102668  52.5032806
  39.0852571  30.4050851  15.6567228  38.3699918  31.0068417  15.4505336
  39.4517708  30.7401395  16.4750361  15.4431951   9.3572998  26.8201160
  15.2318740   8.8464916  27.6015568  16.0215735   8.7888807  26.3115788
   0.2601412  58.1903125  11.8969667   1.2093118  58.0738402  11.9386816
  -0.0576779  57.4075151  11.4470172  79.0001158  30.1261663  20.9140730
  78.4460286  30.9048462  20.8604503  79.7193829  30.3832793  21.4909434
  83.1526704  75.9207142  62.0198774  83.2472224  76.8646766  61.8924999
  83.2018585  75.8008910  62.9682732  69.5280695   6.0249603  52.6182079
  70.4250765   5.6964707  52.6790810  69.6070957   6.8499154  52.1392155
   8.0089808   7.0624566  62.5372553   8.8656211   7.4029028  62.7951241
   8.1189489   6.1115950  62.5382328  18.1051004   1.0312650  49.3598080
  18.3435869   1.5339039  50.1387215  17.9561734   0.1431099  49.6842051
  75.0347701  48.8230753  17.7679646  75.8900372  48.9131308  18.1882477
  74.4411413  48.5875463  18.4809589  21.2417078  13.1240165  21.4191055
  21.7973948  12.4675488  20.9989905  20.5575895  12.6154888  21.8545532
  84.4438008  11.2567544  23.7308931  85.2218566  11.2182188  23.1746769
  84.7833947  11.4499593  24.6047235  20.1171088  16.7085981  61.9410086
  20.6075311  17.3320627  62.4767447  19.7956085  16.0576999  62.5648689
   2.4146281   1.4882292  17.9751611   2.1317358   1.3272342  18.8753188
   2.6550865   0.6239076  17.6414549  23.4150004   8.6767823  14.4801736
  24.2317271   8.6238652  13.9837980  23.6510801   8.3870023  15.3613806
  91.1611600  78.2504035  34.3251276  90.2574153  77.9778291  34.1664433
  91.4317341  77.7472646  35.0931597  86.9157572  71.0478950  40.0590706
  87.3353047  70.2125324  40.2649403  87.3879809  71.3703216  39.2914248
  76.1125512  55.5346848  25.4327726  75.3655119  55.2426268  24.9104047
  76.0808237  56.4900566  25.3828812  19.0744948   1.1052573  46.8797350
  19.0089548   0.1613120  46.7351532  18.8590491   1.2213527  47.8051186
   5.2386600  14.0379822  39.7248197   4.9044356  13.7356329  40.5692768
   5.7112199  14.8449016  39.9292707  85.8442922  76.4516086  32.8251529
  85.9396548  75.6052531  32.3883224  86.3345857  76.3562859  33.6417031
  32.9420066  19.6428311   8.2450712  33.2414627  19.2208076   9.0503371
  32.3373818  19.0118480   7.8545296  74.4713886  82.1361668  14.0738428
  75.2438302  81.7437376  14.4807386  74.0879435  82.6794831  14.7623265
  19.2470530  59.7741223  46.4772367  19.6632317  59.2131568  45.8227587
  18.3171061  59.7567035  46.2511158  76.5910525  85.0976132   3.2580626
  77.2598190  85.0522629   2.5747430  75.8070369  84.7293702   2.8506944
  80.6530932  10.4905379  16.8308091  80.3600243  11.3469470  17.1421063
  81.2684182  10.6898844  16.1252117   7.3734242  10.1029229  15.1109350
   7.7976936  10.8482313  15.5360746   7.9760242   9.8515463  14.4109952
   1.8833414  25.8691049  38.1632853   1.4235827  26.5540314  38.6488032
   2.2163162  25.2787638  38.8391972  33.9088154  26.8786764  28.1571412
  33.2229137  26.2695956  28.4306216  34.1015291  26.6319156  27.2525954
  69.0758498  74.8872829  47.2054338  69.9154098  75.2454449  46.9171762
  68.9262177  75.2873505  48.0620480  35.3971100  14.4585335  41.8414879
  35.9014916  15.1110888  41.3556862  35.6399345  14.6006382  42.7564049
  16.3136911  40.5997181  24.5115495  17.2492278  40.6777191  24.6984196
  16.0745931  41.4440727  24.1292763  38.0568790  15.1623249  68.8985443
  38.7607980  15.7782960  68.6952925  38.4684348  14.5049119  69.4594908
  20.9338832  10.1899457  41.7004776  21.3649774  10.9401727  41.2911510
  21.5916204   9.4948459  41.6792870  14.3157796  69.5057870   7.4671817
  15.0213221  69.9648047   7.9229790  13.5216931  69.9776507   7.7181804
  33.7774253  13.0161428   2.7001432  33.7842727  13.7738085   2.1152267
  34.6853662  12.9296100   2.9906377  16.3018692   9.1085571  31.3849711
  15.6329596   9.7782266  31.5275741  16.1654103   8.4791160  32.0930767
  19.1300666  28.8013458   6.2626940  19.5272398  28.3681750   5.5071485
  19.7801745  28.7113595   6.9594681  49.3662186  67.1305192  19.9349391
  48.8247402  67.3612262  19.1800833  49.9337001  67.8905035  20.0638580
  29.1795492  55.9502649  23.5875916  29.8880148  56.2094355  22.9984069
  28.6797523  55.3024912  23.0907774   1.9215230  72.5018681  56.0391140
   2.6424841  72.8513826  56.5628386   1.1319021  72.8292132  56.4698982
  74.5687015  79.3705727  20.4164195  74.1434605  78.5968370  20.7861972
  74.5578964  79.2210067  19.4710386  10.4576504  12.5477731  56.3030052
  10.5204642  12.4966598  55.3492355   9.5458949  12.3285925  56.4950800
  32.7148747  27.9575014  45.1994324  32.8471208  28.8145590  45.6046391
  33.0513787  27.3338532  45.8429098  44.8468065  13.3133900  54.4967031
  45.3533459  12.6415062  54.9530172  45.2205753  13.3381498  53.6158419
  75.3441814  41.8389654   1.6899455  75.6163935  41.2079239   1.0236725
  74.4825212  41.5323734   1.9723845  70.8523320  73.1993430  72.0880278
  70.7667254  73.0986683  73.0360614  71.6078709  73.7762063  71.9756847
  18.9196944  26.6136408  38.1116486  18.8825166  25.6665897  37.9776835
  19.5784891  26.9181371  37.4875474  84.9131129   8.5671300  47.4447107
  85.8580086   8.7096113  47.3890066  84.5686445   8.9220923  46.6252136
  81.2328026  14.0124416  36.3325739  80.5883113  13.4492815  36.7611933
  81.0545746  13.9118350  35.3975105  30.6712008  14.9643171  42.8083038
  31.2143183  14.4360471  42.2233391  30.7030106  14.5029736  43.6463881
  64.4729875  84.4420459  12.5351357  65.1039137  84.4165234  13.2545197
  65.0119738  84.4561043  11.7442334  83.4703369  78.7454987  61.4038563
  84.1557856  79.3778593  61.6195250  82.9705639  79.1637809  60.7027864
  17.3856831  18.2379699  45.2816725  17.7344656  18.1843460  44.3918896
  18.0857778  17.8911269  45.8346605   6.7582065  26.1787915  34.6473312
   7.5579566  25.8104825  34.2718577   6.0511422  25.6686664  34.2522812
  23.2650201  37.6967536  62.5186012  23.2839172  38.6287429  62.7360198
  22.6585274  37.6352190  61.7806218  73.9147444  68.0443979  55.1915789
  74.8555620  68.1312741  55.3450298  73.5712738  67.6823355  56.0083818
   6.9731170  28.5801387  59.9120522   7.9249102  28.4938049  59.9656105
   6.7324251  28.0931687  59.1239119  21.7200012  75.3085924  40.0400829
  22.4744792  75.3444482  40.6280518  22.0606918  75.6021167  39.1950941
  65.6508509  41.9797325   3.0676991  66.3841335  41.4712095   3.4140131
  65.4248086  42.5853729   3.7736288  52.3994828  74.6225942  39.1358757
  52.3375530  74.9938060  38.2557631  51.5800275  74.8758365  39.5608401
  72.1456845  61.1072017   5.6856513  71.6861064  60.6331039   4.9926496
  72.4908335  61.8882943   5.2532190  91.1055256   8.7027699  31.1910701
  90.6147248   9.5052600  31.3681483  91.0356964   8.1958705  32.0000243
  22.6782465   3.0227366  37.6666975  21.7419457   3.1405801  37.8269601
  22.7254510   2.6490641  36.7867136   1.8622640   4.4000304  36.7462087
   1.0901150   4.7431827  37.1959472   1.7420575   3.4504449  36.7546010
  29.9751830  40.7519817  21.7524242  30.2714205  41.6047764  22.0705581
  30.5648518  40.1231241  22.1684265  86.2194819  83.3725602  30.5828643
  87.0192499  83.4369723  30.0608945  86.2324042  84.1521665  31.1380935
  75.1356692  82.1485914  26.0218453  74.5257266  82.6115558  25.4475045
  74.6247835  81.9555197  26.8079424  21.8944478  14.8319435   6.9586647
  21.4391422  15.4914844   7.4820518  21.2071466  14.4337022   6.4245743
  83.8112841  39.4288874  21.8304348  84.0679768  38.6399841  21.3529682
  83.6212388  39.1212606  22.7167082  71.3476515  10.7898104  37.2690129
  71.6885471  11.4599860  37.8613710  70.4688406  10.6029308  37.5991583
  82.5478927  15.6658423  15.3261876  82.1272442  16.5249753  15.3604960
  81.8623803  15.0758672  15.0127625   0.8111473  35.9895921  17.7536523
   0.9240121  36.7717886  18.2937074   1.4278607  35.3552413  18.1190252
  80.4237238  28.9023733   6.1037862  80.3882936  28.6288381   7.0203865
  81.1584178  29.5146918   6.0647941  47.9763794   4.0178201  62.0605373
  47.1427155   4.1951758  62.4961805  48.6391163   4.2131442  62.7230024
  37.1058702   8.1233388  36.5755773  37.2494841   7.8949934  37.4939799
  36.2155604   8.4741127  36.5523815  87.2712297  85.4399978  34.2704868
  87.9098411  85.6496455  34.9519968  87.2551031  86.2160982  33.7104511
  31.6722298   9.6443194  24.6659517  30.8207226   9.5409012  24.2411304
  32.2785497   9.8223257  23.9469814  49.5244752  38.4916596  73.2767555
  50.1707231  37.7861576  73.3061173  49.8483156  39.1393166  73.9027746
  27.8595519  11.8115830  10.5127382  27.2529578  11.2795639   9.9977332
  27.5234485  12.7041638  10.4317105  33.7504387  19.9290967  54.7593975
  33.6201334  19.8803854  53.8123608  34.5003104  19.3584704  54.9276543
   2.6326609  30.4491544  40.2144909   1.7218508  30.7369733  40.2762794
   2.5760305  29.5276332  39.9618602  16.0255361  21.1887884   9.9257058
  16.3637722  21.5652013  10.7381976  15.6087017  21.9240594   9.4764227
   6.4743757   6.8231720  43.7618637   5.9866673   6.8621528  44.5845747
   7.3892373   6.9349927  44.0202379  43.5619545   8.0337840  18.7038338
  43.3159018   7.7842349  17.8130949  42.7287579   8.1215650  19.1667771
   5.5308241  23.3212566  35.8005786   6.1956942  23.0978346  35.1492262
   4.8688650  22.6355386  35.7120681  29.4648290  17.2014427  42.1826124
  29.1195750  17.4011207  43.0527639  30.0618792  16.4668667  42.3246050
  46.1023808  20.1278234  31.7381907  45.4153061  20.4654837  31.1636043
  46.3259268  20.8667374  32.3041105   2.5717825  38.7378335  12.7277207
   2.4016428  38.9947152  13.6339748   1.9020154  38.0817127  12.5349832
  57.0160554  22.1033423  61.5449521  56.7184781  21.9735472  62.4454138
  56.6047381  22.9236524  61.2726626  34.2361135  82.3173575  33.3818030
  34.6753068  82.2305409  32.5357509  34.4524426  81.5098033  33.8479447
   1.4616755  85.3783635  21.4591980   1.6620759  85.3573690  22.3949480
   0.5184916  85.2219258  21.4126778  74.6802087  83.8540063  52.1827888
  74.7434349  82.9015807  52.2543430  73.7726135  84.0150876  51.9248056
   1.3699397  31.1431599  70.3414011   0.9219705  31.9177580  70.0014687
   1.5844578  31.3685060  71.2466288   4.6757656  15.3832579  27.4964333
   5.3752977  15.4276013  26.8445754   4.9560520  15.9809375  28.1895781
  87.2354067  26.5719604  58.3450890  87.7495310  26.1777616  57.6404476
  87.8838066  26.8238139  59.0026426   4.0595120  32.2519493  41.8172407
   4.6871027  32.5421381  41.1553144   3.5266787  31.5943742  41.3701200
  73.5497352  46.5327936  14.8619869  73.2609960  47.4007662  14.5800522
  74.4836828  46.6382267  15.0432613  28.4434366  35.8802485  44.3786812
  28.4100604  35.1958871  43.7102747  28.6731076  36.6747451  43.8967466
  46.6835581  22.7353804  71.2227744  46.7100357  22.8457634  72.1732197
  47.6032172  22.7190559  70.9578366   3.0063450  13.2851779  50.0705767
   3.6652446  12.5945580  50.1421881   3.5129297  14.0871859  49.9425697
  90.8254197  10.7403040  72.9501104  89.9946742  10.9199405  72.5098562
  91.4509092  10.6099081  72.2373772  30.0462226  82.7138628  29.1764832
  29.5257786  81.9699527  29.4797421  30.9513835  82.4650733  29.3636107
  68.2357259  83.8394564  45.7243633  69.1358126  83.7423045  45.4134941
  67.6953096  83.5778944  44.9788618  74.9051924  76.7186887  25.1055884
  75.2885063  77.5910790  25.1963496  73.9606078  76.8659235  25.1536894
  35.4321480  29.4936657  68.2670450  35.6585097  28.5880136  68.0554199
  36.0290766  29.7301149  68.9769793  20.5347565  84.8335368  42.7732515
  21.4239911  84.7671012  43.1212091  20.6452540  84.7890551  41.8234921
   2.2748498  69.6012784  33.8616967   1.9746617  70.5054272  33.7687826
   1.6653231  69.2096270  34.4872522  63.1933394  75.9630556  45.6575346
  63.5378186  75.0700987  45.6714535  62.7471800  76.0345305  44.8136950
  21.4007020  12.6844370  18.3751678  20.7642889  12.0357788  18.0744183
  21.3386488  13.3948183  17.7366233   1.2065915  59.1204835  48.9190340
   0.7885865  58.2594205  48.9102507   1.6871360  59.1618896  48.0922365
  43.9857325  74.3601592  33.6003616  43.4276911  74.5654210  32.8502300
  44.8306807  74.7553118  33.3855369  50.8486150  19.4443934  68.6862335
  50.0733088  19.8581831  68.3068786  50.6704806  19.4184654  69.6263549
  86.1921189   7.6376337  19.5503914  87.0123015   7.5330544  19.0681088
  86.0472832   6.7866355  19.9639797  24.3965558  61.5467764  29.0994692
  24.3252400  62.1516801  28.3610678  25.1171092  60.9630586  28.8621759
  50.4593372  14.1635871  23.2129526  49.7291088  14.7802532  23.2651639
  50.6942940  13.9928138  24.1250181  29.6842194  13.1113493  25.1071143
  30.2601218  13.2836294  24.3622065  29.3959236  13.9783359  25.3925133
  14.1030598   0.5271433  32.9128242  14.6267354   0.9781313  32.2505498
  14.3302274   0.9619845  33.7347364  48.4452200   2.6410052  35.7223177
  49.3619394   2.7216241  35.9856915  47.9830790   2.4151133  36.5295529
   2.6573518  79.7581078  20.9789991   3.2759718  79.2324747  21.4861965
   2.3057154  79.1515828  20.3273010  90.6971641  74.4162775  29.3532825
  90.9694858  75.0535704  28.6930323  91.5145130  74.0198816  29.6550179
   1.1489674  27.1304584  44.6700764   1.5311301  26.4587498  44.1052818
   0.8656537  27.8176689  44.0669918  13.8187838  36.4811945  38.6963487
  14.1854191  35.6484127  38.3992243  14.0649724  36.5354156  39.6197581
  20.9275416  76.3487620  45.7445765  20.2381543  75.6891192  45.6681061
  21.2005166  76.3047935  46.6609764  64.3148188   6.9829122  68.6027375
  63.9240436   7.5280420  67.9198298  64.6595432   6.2226621  68.1343231
  13.9897040  78.3904547  23.5672212  14.4165066  79.2472268  23.5709667
  14.3020180  77.9637999  24.3651271  12.0713603   0.6368632  14.3614423
  11.2631142   0.9975141  14.7259974  12.6314878   0.4866864  15.1229787
  84.3550439  70.9566201  14.6949792  84.7828097  70.2090229  15.1125264
  84.7063656  70.9670390  13.8046455  81.3740463  38.9063812  36.6448784
  80.9071751  39.6745897  36.9736981  81.0385318  38.1794716  37.1695328
  26.4033152  54.4610016  72.1409119  25.6987338  54.2255871  72.7445475
  27.1915616  54.0882163  72.5357920  31.9969348  65.9417749   6.0937607
  31.1340312  65.6291939   6.3656479  32.6006487  65.5659080   6.7344540
  17.4136305   6.2335849  37.9909205  17.2888231   6.6138989  38.8604116
  16.9299173   5.4080731  38.0188918  52.0906098  71.3261736  53.2483196
  52.6250709  70.7365859  53.7802696  51.6482551  71.8880785  53.8845730
   6.8667582  81.6635475  24.6935320   6.1306575  82.2744987  24.7270608
   7.3254708  81.7954395  25.5232430  90.5979614  44.2262650  42.0824957
  89.6998779  44.0917444  42.3851204  90.6732713  43.6752081  41.3034630
  19.3307053  85.7804744  73.1620892  18.9961504  85.1406448  73.7905174
  20.0399815  86.2244480  73.6268969  28.1221724  21.0468483  20.1509976
  27.9178619  21.9626999  19.9620390  27.2679520  20.6219840  20.2286553
  14.9546659  11.6501081  72.2014570  14.2783570  11.1491132  71.7455578
  15.6594014  11.7400992  71.5599871  38.7829447   5.9933054  63.9366388
  38.3735919   6.8542719  63.8506269  39.3605709   5.9257084  63.1763697
  31.5871787  35.0217986  16.2482941  30.6313825  35.0644088  16.2188041
  31.7799568  34.1066146  16.4520299  32.4429727  48.2835007   3.1743926
  32.0376730  48.4130812   2.3169707  32.9914570  49.0579271   3.2995477
  41.1795855   7.7966708  19.8793733  40.3758478   8.2709378  20.0922227
  40.9775400   7.3364651  19.0647447  24.1488385  23.0126238  34.6855092
  24.1975260  22.7338338  35.5999160  23.7974572  22.2525573  34.2217636
  37.2928047  14.6905982  24.2318487  37.8346229  15.4341042  23.9675307
  37.2202373  14.7731662  25.1827168  33.8367844  30.3105831  58.1861687
  32.9244471  30.4038954  58.4603310  34.1295004  29.4987822  58.6003304
  87.8913564  24.8134875  22.7332497  87.9758737  24.0856290  22.1173692
  88.7649030  25.2035928  22.7643418  41.3144159  10.2512693  27.8955889
  41.5645695   9.9068493  27.0382500  42.1463156  10.4185045  28.3385444
  34.5678639   0.4479486  19.6719337  33.9039922   0.4513339  18.9823735
  34.5467472   1.3357666  20.0290966  31.1437178  28.9212847  50.3499413
  31.3207030  29.4297576  49.5585108  31.7730951  28.2008243  50.3174877
  89.8286616  18.1363714  33.8731718  89.0752999  18.6667514  34.1327381
  90.5887964  18.6519957  34.1425395  60.7012765  85.4113033   3.9019132
  60.9371077  84.6758441   4.4673467  60.8522270  86.1868539   4.4422528
  44.1810799   3.8545811   7.7179760  44.2557764   2.9014784   7.7653813
  44.7973299   4.1761512   8.3760476  83.3790083  63.3465601  10.2462280
  82.6504297  62.7678920  10.4710579  82.9716701  64.2014886  10.1069248
  16.5284276  29.4880462   6.9054854  16.4805222  29.6608996   5.9652412
  17.1690321  28.7814713   6.9867802  35.5488825  25.6744242  44.9077177
  34.8525715  25.7752538  44.2587090  35.2572846  26.1967540  45.6549644
   8.6070800  15.5807412  17.1779335   8.6356324  15.7349265  16.2336648
   7.6744771  15.5067694  17.3804474  83.3319107  13.7915099  69.6690941
  82.7346472  13.4667075  68.9952898  84.1200093  14.0449750  69.1885853
  14.0214694  38.6017799  59.7107744  13.9799857  37.8528476  60.3054285
  13.5000098  38.3355284  58.9535284  20.5318141  34.5239997  61.4404488
  21.4288521  34.5310235  61.7743731  20.3764296  33.6131811  61.1904573
  41.7645168   3.2573691  34.5593333  40.9546661   3.6015519  34.9360394
  42.0871401   3.9633867  33.9992571  30.3201580  10.0640738  32.0894790
  31.0112619   9.4622183  32.3658466  30.0963569  10.5519414  32.8820229
  28.6745548  57.0907497  36.5326595  28.7940645  57.2086763  37.4750209
  28.6813116  57.9795170  36.1773014  72.2883701  31.1945653  58.7739706
  72.5363159  30.4498196  59.3217945  73.0601072  31.7608213  58.7759876
  88.6304892   8.8953042  36.2191701  88.8864163   9.7811276  36.4761734
  87.8980926   8.6804986  36.7968249  45.8880234  25.0138855  12.4779725
  45.2942276  24.2674780  12.3972690  45.5869055  25.4760027  13.2602823
  35.2155542  24.8871040  48.9053917  36.0247803  25.2674556  48.5637522
  35.0057340  24.1813517  48.2937384  20.6528831  32.1076417  29.6223760
  21.2478733  32.2197533  30.3637600  20.0324059  32.8321910  29.7015357
  74.7842450  82.6367755  34.4102097  73.8576574  82.4495439  34.2598391
  75.2258415  82.3030127  33.6292958  25.3235558  69.2410804   3.4858006
  25.5470351  68.4192205   3.9226466  25.4978732  69.9160756   4.1417167
  73.1954526  80.4791229  73.9248936  73.8138484  81.1446254  73.6233545
  73.6814688  79.6565597  73.8664990  42.6910782  19.1327572  48.1108570
  41.9141006  18.9992476  47.5679827  43.3401632  18.5269761  47.7531576
  10.5537963  14.7757697  50.6234455  10.9254730  13.8955998  50.6816673
   9.7584867  14.7355342  51.1545706  44.4545794  42.5076628  22.1183515
  43.5724211  42.8528500  21.9809604  44.4347429  42.1453571  23.0041122
  26.7327285  47.3308372   2.8375205  26.0950661  47.0713758   2.1724646
  27.2007442  48.0682421   2.4458212  12.5907115  67.3617340  12.5919557
  12.5222233  67.4823893  11.6448629  12.5425747  66.4139260  12.7167571
  77.0054181  81.4414299  41.5441084  77.9006035  81.5459985  41.8665028
  77.0293386  81.7907817  40.6532574  28.9709520  30.1721573  39.7166491
  29.5175052  29.9320769  38.9684033  29.5601726  30.6504846  40.2999640
  77.6581783  79.0916879  17.5751948  77.9284329  79.9448193  17.9148448
  76.8463106  79.2692317  17.1002412  32.8228617  37.0079660  25.4233122
  33.1575465  37.0290470  24.5267773  33.5470343  36.6562581  25.9411025
  34.1549492  22.9524326  47.0672607  34.5370460  22.0986319  46.8641424
  33.5804963  23.1404424  46.3250399  21.6014985  81.2173862  21.0026026
  22.2213915  80.8706207  20.3609514  20.8578185  80.6158269  20.9665394
  44.7508907  59.7646379   4.0527537  45.1803350  59.8586702   4.9030301
  43.8417530  59.5539284   4.2655957  62.6180264  72.0672687   3.6897590
  62.1147677  71.9416197   4.4942310  62.8968927  72.9823740   3.7221601
  21.5915537  29.3823791  29.2298269  21.2226367  30.0016451  28.6000323
  21.0368967  29.4700933  30.0049996  31.1906123  19.2747808  12.3412216
  30.3471327  18.8356340  12.2320247  31.8199444  18.6946034  11.9127738
  47.6936935  74.5254462  69.6110088  48.4021615  74.2896812  70.2099422
  47.1215652  73.7580888  69.6029252  89.7270360  51.8235493  19.7126853
  90.2140644  51.2967825  19.0790057  90.3871383  52.3921728  20.1091266
  12.5820851  32.9024911  54.4714117  13.4924257  33.1693268  54.5991230
  12.5626767  31.9828248  54.7361183  22.7502370   5.5286902  31.8405914
  22.6917887   4.7681674  32.4188828  23.6366510   5.4889882  31.4815259
  22.8125858  33.8620067  28.5149932  22.3546004  33.1759834  29.0006423
  23.3349371  33.3889246  27.8672481  32.7208066  10.5202854  21.6009092
  32.8757977   9.9764711  20.8285904  33.5726476  10.9125865  21.7924762
  82.7794395  24.3682456  26.9704008  82.3800830  24.4478011  26.1041331
  83.5135475  24.9822593  26.9530129  23.7955737  16.3789380  27.5199032
  23.6680627  15.4575861  27.7459168  23.1029940  16.8397713  27.9933977
  28.8802028  24.0294266  39.4088244  29.0566945  23.3596611  40.0695038
  29.0312886  24.8587847  39.8622227  62.4059676  59.8475616  66.0730371
  62.2206973  60.4830151  65.3815857  61.5452884  59.5201843  66.3343516
  47.8632927  14.7135735  43.6467791  48.1685829  15.6205201  43.6686420
  48.6652517  14.1910708  43.6373186  68.5783027  48.2292889  70.1137975
  68.8278459  48.7799178  69.3716601  67.6645111  47.9996281  69.9450583
  79.5300026  83.4167389  28.6586142  78.7552566  83.6333565  28.1398869
  80.1078303  82.9603771  28.0469918  65.0094421  80.9689371  15.0104880
  64.4315467  81.2217964  15.7304394  65.7737316  80.5851121  15.4403389
  61.0443752  83.8515397  20.6630468  61.5478876  83.0502284  20.5194950
  60.4550903  83.6377724  21.3864279  45.0289917  18.3907008  36.0017753
  44.2858219  18.9620864  35.8082604  44.6351051  17.6068759  36.3847947
  27.8470969   8.4775329  33.1579781  28.6322641   8.5696417  33.6976647
  28.0290055   9.0029776  32.3788452  80.4598473  73.6845105  66.8056962
  80.6024931  73.9788072  65.9061006  81.1493443  74.1153924  67.3108384
  47.8713560  20.9667420  27.6291537  48.3962107  20.1995707  27.4006724
  47.0332384  20.6060338  27.9184341  31.8061614   2.9253480  44.0406466
  32.5807810   2.7070507  43.5224390  31.1909795   3.2954741  43.4075642
  52.0560169  22.5178838   8.5945374  51.8950748  23.4066725   8.9113748
  52.7711439  22.6136613   7.9655278   5.4318941  16.5881693   5.9449530
   5.3487557  15.7318556   5.5253738   5.3369176  16.4069486   6.8800306
  60.2290583  51.2460947   9.3871206  61.1816645  51.2411308   9.4806516
  60.0712824  51.7152119   8.5678136  11.2900746  19.5135438   6.1660534
  11.4334691  19.1441905   7.0374018  10.8076823  20.3246546   6.3261473
  63.5217714  41.1574030   1.9185728  63.3929777  41.8484020   1.2688333
  64.3627787  41.3651943   2.3257047  17.2807097  19.9511743  14.5242453
  17.9667008  20.5492973  14.2277682  16.4634788  20.3760457  14.2637658
  38.5651612  26.5128422  26.8864012  38.0132484  25.8757138  26.4328694
  38.0077338  27.2845674  26.9861197  51.7030716  24.9056840  66.9374228
  52.6225328  25.0698042  67.1469212  51.5390444  24.0187407  67.2578239
   8.2325867  83.8568848  31.8532491   7.4383691  83.9740893  31.3319898
   8.1633667  84.5135904  32.5461984  67.8891654  75.2271296  16.6699612
  68.0486829  74.5657814  17.3433137  68.6898555  75.7514358  16.6547596
  52.6408720  12.3508012  44.2134809  52.5753593  12.3230410  45.1680326
  52.6685095  11.4314353  43.9484644   2.9600716  36.4007115  55.5079412
   3.2571116  35.7132411  56.1040783   2.8368250  35.9544516  54.6701479
  10.6139874  57.9010773  52.4887228  10.1931000  57.4620676  53.2278824
  11.1577380  58.5786247  52.8905964  49.8491357  66.8597119  60.9906146
  49.3272065  66.3519042  61.6118667  49.2287181  67.1123998  60.3069017
   3.6773330  16.0228717  42.8103828   4.1912690  16.4684319  43.4838629
   3.8521716  16.5171576  42.0095444  85.3964872  79.8542316  22.7550840
  85.7858510  80.1909734  21.9480944  85.5404897  78.9088107  22.7141500
  76.7301853  58.9249469  59.2621756  75.8036835  58.9287473  59.5026159
  76.9348891  58.0020214  59.1120529  33.4609127  17.0358229  14.5973563
  32.9935980  16.4115667  14.0422404  33.9171624  16.4911592  15.2387702
  58.3324242  22.4381304  55.4479694  57.6494741  22.1135736  56.0348892
  58.3098841  21.8404651  54.7006273  21.4356494   5.8920026  53.6370134
  22.1043897   6.5126765  53.9264631  20.7367945   5.9729129  54.2860794
  29.9036574  11.3321555  43.3399534  29.8650265  11.6339135  42.4323845
  30.4751086  11.9628930  43.7779570   5.8103478  15.0512266  37.2323608
   5.9571475  14.3398833  36.6089249   5.3722298  14.6333396  37.9737473
  31.8694186  29.2444468  29.6909809  31.8623328  28.3053994  29.8763824
  32.7923846  29.4531369  29.5467043  22.6933956  12.3158383  45.7738352
  22.2956324  11.4514005  45.6700897  22.4786639  12.7771604  44.9630928
  23.2646918  18.5713136  49.5989990  22.9758310  19.4826317  49.6468544
  22.8062749  18.1366754  50.3181458  29.9274087  35.4114199  21.6515541
  30.5998945  35.7399631  21.0548520  29.1853738  35.2021408  21.0842609
   4.1645473   7.8098708  25.7832551   4.9166739   8.0861294  25.2595949
   3.6745298   7.2227913  25.2075362   1.8957208  61.5831232  24.4945455
   2.4827315  61.9921970  25.1303983   1.7052940  60.7210445  24.8644018
  23.6015511  27.9943180   6.4109832  24.1621709  27.4170613   6.9293559
  23.2535005  27.4320149   5.7189524  84.7552494  41.6999960  22.9108906
  84.5792542  40.8131790  22.5965500  83.9091156  42.1445942  22.8596711
  40.5359602  25.8499146  34.2490101  41.3099670  26.2861013  34.6052289
  40.4710436  25.0340891  34.7454429  47.0455027   6.2228316   3.8431424
  47.8367472   5.6932694   3.7445050  46.4420033   5.6630468   4.3316725
  22.0448256  20.0958991  17.3186553  22.0737123  19.1574204  17.5048113
  22.8546500  20.4398870  17.6955974  90.8876425  38.2984328  40.5432796
  91.8437631  38.2555294  40.5582666  90.6208958  38.0013537  41.4132357
  16.0274839  22.1013880  33.4259248  16.8688118  22.2160149  33.8678050
  15.3749883  22.2718763  34.1051984  48.3568287  32.8418231  13.7230825
  47.6016474  32.5338602  13.2219911  48.4888840  32.1715379  14.3935382
  35.8252406  36.4485598  10.8958530  36.1297369  37.0278716  11.5943599
  35.6083107  35.6296182  11.3413966  72.6822709  73.1261580  67.7537403
  73.2155417  73.4260647  67.0175973  71.7804287  73.2935278  67.4800560
  19.0474045  11.6386163  22.7444196  19.0245903  10.9108245  23.3657312
  18.1363344  11.7504692  22.4729919  78.1696674   2.8021883  30.9135437
  78.1790515   3.7293409  30.6757760  77.7299806   2.7773165  31.7634201
  45.6076384  25.9726191  63.1441402  46.0980272  25.2676058  62.7214050
  46.2247896  26.7032146  63.1839418  74.1695069  52.6675527  72.0907481
  73.2162140  52.5946538  72.0444362  74.4728278  52.3963981  71.2243161
  53.0539751  25.6261277  11.3800180  52.4360228  24.9361706  11.6215205
  52.5291252  26.2552381  10.8850586  86.5061320  27.6175213  38.3963060
  85.8947030  28.0370760  39.0015841  85.9473786  27.1300292  37.7910137
   0.4797730  34.3331790   7.2082806   1.3620934  34.6541286   7.0219100
   0.3683853  34.4712734   8.1488943  21.5987471  73.8843251  30.0259519
  21.1897114  73.0891252  30.3673887  21.1592177  74.5975257  30.4889750
  47.5514364  38.3116078  25.6023860  46.8527794  37.6951861  25.8217716
  47.6757383  38.2069206  24.6590829  38.2349181  60.5801105  33.7670469
  37.9908395  61.2613392  33.1404757  37.5023484  60.5469370  34.3822479
   1.6759852  72.9908157  64.0220737   1.1149648  72.6150514  64.7005177
   1.1999181  72.8379930  63.2058382  34.9924284  70.2715524   9.5981529
  35.8637574  70.3956636   9.2218330  34.7115230  69.4155868   9.2746666
  90.8091350  79.0886141  38.2557631  91.7404838  79.1558225  38.0452752
  90.7898397  78.7615425  39.1551423  11.5389216  30.7545090  22.4418211
  11.5593100  31.6852713  22.2193432  11.5707242  30.7361269  23.3983159
  18.7578201  47.6553535  32.1812010  18.4518278  46.7802334  32.4194527
  19.4684827  47.8363228  32.7963758  88.5796065  74.5514120  21.0057092
  87.8736873  73.9465714  20.7775044  89.2338104  74.0033723  21.4391875
  88.2572241  72.2458900  38.0190206  87.6175518  72.0659948  37.3300433
  88.1711621  73.1843616  38.1866407  20.4191828  33.6464405  18.3319223
  21.3600564  33.7362671  18.4833133  20.2637482  32.7020192  18.3439279
  91.0277308  56.9277859  47.2131872  90.4213320  56.4947557  47.8140163
  91.5109888  56.2107801  46.8025875  88.0962582  59.4536258  38.8030219
  89.0450020  59.3581534  38.7193346  87.7987261  58.6067892  39.1355515
  84.6050520  82.3292662  40.3571796  84.4324155  81.8996618  39.5194054
  84.1647644  83.1763099  40.2872086  29.4692087  17.1953058  38.7754631
  29.0065360  16.6962671  39.4486070  29.8114991  17.9605615  39.2374730
  53.7846184   3.4681806  35.2187514  54.3565512   3.9414957  34.6145177
  53.7307119   4.0330490  35.9896278  21.7117858  16.6028190  42.0959473
  21.8029594  17.4368024  42.5568056  22.4814057  16.5572810  41.5286303
  26.1622071   2.5834399  32.0966101  25.6796265   2.4517682  32.9127049
  27.0467901   2.8185776  32.3767042  59.6695469  39.5981209  71.8400741
  59.9978446  39.9650775  71.0192231  60.4498004  39.4931986  72.3845248
  28.2742643   6.3164276  40.6795311  27.4010181   5.9322584  40.6015253
  28.7144971   5.7788384  41.3378811  76.0815663  59.3484498   7.4048489
  76.7144139  58.7048746   7.7235121  76.3810427  59.5615459   6.5210307
  89.1828985  84.3843634   8.9561337  89.0163846  83.6888544   8.3199167
  90.1295609  84.3597520   9.0956217  23.0369592  21.8160152  10.9174919
  22.0864964  21.9093752  10.9818017  23.2554293  21.1415195  11.5605760
  20.8011007   1.3146329   6.6680616  21.5402222   0.7313274   6.4957690
  20.1301956   1.0424943   6.0419154  26.6460061  37.8102279  16.5757120
  26.0717177  38.5585570  16.4131367  27.5064707  38.0979371  16.2706625
  81.7749710  69.1061307  17.1642554  82.5672526  69.3417884  17.6469398
  81.1503048  69.7998274  17.3759401  48.0681705  39.7347045  17.2165537
  48.0412626  40.2588701  18.0170286  48.3966923  38.8814664  17.4999046
  23.7568164  40.6086206  30.6308484  24.1462898  40.2721405  31.4378929
  22.8381324  40.3443384  30.6799364  32.3211646   0.7614753  39.6146917
  32.2559237   1.4900944  38.9973688  32.1980286  -0.0203358  39.0763235
  63.6651134   9.3966293  41.8385410  63.1981277  10.1685858  42.1582842
  63.1571436   8.6555773  42.1687555  45.7354021  23.4112215  31.7518997
  45.2352858  23.9685845  32.3481059  46.3449383  22.9395843  32.3195767
  90.5093902  55.0266171   7.6686502  90.5176599  55.5969572   8.4373337
  91.4304888  54.8140907   7.5181764  20.2985382  18.4940493   6.8077540
  19.9301279  17.9891372   7.5327152  20.5161905  19.3427432   7.1932101
  68.1802572   6.6395322  69.8893106  67.8563757   6.6271917  70.7899660
  69.0636857   6.2756578  69.9474618  19.2405081  25.9817910  27.6053476
  18.7116730  25.2027178  27.7774191  19.4210398  25.9460521  26.6660070
  55.1049519  13.9807057  13.7230527  55.8124781  14.0301037  13.0802488
  54.5079470  13.3200586  13.3718240   7.1195763  40.4923487  52.8513193
   7.4993449  39.8895931  53.4906054   6.5278846  41.0433435  53.3636999
  84.1958515  23.4056139  36.1527514  83.3924369  22.8937626  36.2463689
  83.9933745  24.0467119  35.4714108  86.7289300  58.0233599  18.0161977
  86.6190953  58.6215092  18.7553775  87.1232314  58.5611130  17.3294806
  44.1528654  25.0310707  32.9008436  43.7826061  24.8425698  33.7631726
  43.5715961  25.6953621  32.5306106  82.7610693  22.1674418  38.7202382
  82.1574984  21.6676092  38.1705999  82.3631415  22.1495271  39.5906186
  33.0081892   8.9432847  28.9139795  33.3480859   8.1472045  28.5053754
  33.6209488   9.1274887  29.6258974  36.2970328  13.2258523   5.4339546
  35.5627346  12.7470922   5.8184373  36.7737222  13.5774446   6.1858737
  10.4057324  20.1852036  26.1325979  10.6062829  20.2120566  25.1970291
   9.7939128  19.4549489  26.2255359  36.9074397  33.3121662  61.1208615
  37.2562395  32.5192683  61.5281496  36.0683428  33.0409561  60.7485792
   7.9492167  75.3085662  18.9160454   8.0985597  74.3653263  18.8510251
   7.9650763  75.6165970  18.0099010  70.3326893   1.5320180  40.4605722
  71.2379503   1.6529079  40.7471371  70.3992462   1.3664232  39.5201588
  37.2473001  33.3134961  30.3226900  37.0834780  33.2034993  31.2593317
  36.4346409  33.0316901  29.9026871   3.0545692  36.3916298   3.1832769
   2.3351746  35.8625575   2.8386238   2.6848202  37.2700890   3.2717397
  27.9074192  12.1779823   1.0534789  27.6796722  11.4327335   0.4976298
  28.4265399  11.7982340   1.7623773   8.7651783  20.0593424  32.3454118
   9.5806193  20.5300760  32.1730828   8.3006841  20.0705814  31.5085435
  70.2115194  23.1812882  24.1183567  70.3735463  22.8274155  23.2438564
  69.3466178  23.5866475  24.0562391  67.1969509  10.2293980  43.0357313
  66.8327522  11.1118114  43.1060076  66.9712973   9.9470437  42.1493959
  49.1394567  20.3027010  32.8272128  49.0347958  20.2190804  31.8794346
  48.3173609  20.6917763  33.1255627  33.9658475  23.5715818  29.8264980
  33.6553383  23.8928795  28.9799833  33.4869695  22.7540469  29.9626851
  50.1165485  25.6249189  53.1362343  50.3100348  26.1775541  53.8934565
  50.9416008  25.5837893  52.6526737  26.2584186  28.1235933  50.9039259
  25.8749104  27.3588157  51.3331890  25.5551124  28.7728691  50.8982563
  19.8625934  30.5510664  49.4461250  19.8174751  30.4014373  50.3904819
  19.0666103  31.0424495  49.2431831  34.6230841  28.2683611  24.6619582
  34.4767427  27.3327947  24.8017073  33.9630294  28.6979294  25.2060437
  31.1321974  43.9597321  41.4933681  31.1460400  43.4025717  42.2715807
  30.2639365  44.3625546  41.5026140  86.3570336  26.0772371  48.6802530
  86.0179666  26.8194842  48.1799173  87.1455956  25.8102012  48.2079268
   2.8049400  24.3049765  40.3105116   3.1635132  23.5087061  40.7024479
   3.5326815  24.6744442  39.8103952  13.8970757  39.6970701  31.5604019
  14.0996695  40.5031395  31.0856009  14.3770969  39.0151906  31.0904527
  29.8617816  19.7441995   5.9201366  30.4223967  20.1968455   5.2900141
  29.5376992  20.4382229   6.4941871  38.2598519  16.6066766  20.2233911
  38.3513880  17.1457779  19.4377565  38.2270455  17.2364211  20.9435153
   1.3766507  85.1905011  53.0710983   1.5746907  85.1621460  52.1350384
   0.7162241  85.8782142  53.1554604  46.2637281  10.5449522  39.2386365
  46.0137272   9.6551913  39.4877505  45.4413652  10.9615326  38.9809370
  35.1422365  49.1635143  65.9823892  35.8928792  49.4959681  66.4745692
  35.0646682  49.7560464  65.2346454  26.2587690  35.3421259  29.0748906
  26.9397688  34.8744082  29.5583296  26.2465668  36.2166214  29.4639111
  49.2056094  46.5524812  59.6478233  49.4945739  47.3861625  59.2767331
  48.5942589  46.2012230  59.0004442  66.0150821  67.0879603  60.1955938
  66.4360524  66.2392915  60.3326225  65.4634447  67.2092498  60.9683943
  32.5995421  23.5611224   1.1389747  31.8919826  22.9370618   1.3006556
  33.2956886  23.0366850   0.7432736  48.6678909  84.1599720  53.4385536
  48.4199558  84.1744535  52.5141356  49.3452512  84.8319166  53.5154126
   4.8055431   0.4943079  44.7743511   5.3180796   1.0059221  44.1484213
   5.4578704   0.0002494  45.2709484  26.5091205  16.3578534  39.9060321
  26.3039303  15.4980505  40.2732706  25.6555080  16.7471039  39.7161412
  18.0620384  48.2876968  40.1387930  18.9562869  48.2789469  39.7975063
  17.5087202  48.3389950  39.3594074  27.5223565   1.7728166  19.4629622
  28.3378053   1.9096762  19.9451900  27.6010895   0.8884037  19.1054058
  52.3575306  15.0945413  72.6936150  51.4435053  15.2235711  72.9468822
  52.6651335  14.3863213  73.2593346  88.5196780  30.4490416  71.1299351
  88.3286046  30.3459017  72.0621826  87.6968382  30.2325611  70.6914133
  51.8524885  20.8934355  12.9601049  51.5256548  21.6115093  13.5021210
  52.3515987  20.3446865  13.5650826   3.6151937  15.7907593  50.2985716
   4.0316167  16.1097360  51.0992432   3.1961119  16.5645456  49.9219322
  20.0566936  36.9059134  42.1067762  19.6164513  37.4861741  42.7278376
  19.3959117  36.7249465  41.4383078  40.7169342  34.5036888  24.8331833
  41.3414240  34.3315244  25.5378866  40.4092646  35.3949380  24.9982405
  37.9674888   9.4643021  39.1928625  37.1729279   9.5960152  39.7101235
  38.6819887   9.5621419  39.8222661  89.4121952  51.5931368  30.0243235
  90.1989356  52.0498228  29.7264791  89.3871712  50.7924938  29.5003271
  15.8775091  16.4276123  20.8906436  16.1638916  16.7688453  20.0434256
  16.6544271  16.0009575  21.2520242  14.1037035  18.0233574  27.9022956
  13.2094359  17.7716279  28.1328368  14.0002668  18.8065493  27.3617935
  20.7181215  70.1241970  38.9210224  20.4187870  70.9662676  39.2638731
  20.3419542  70.0760555  38.0421519  32.1384144  55.9477758   7.9947466
  32.5571609  56.8081188   8.0210561  32.8243566  55.3390503   8.2689190
  41.2683821  40.7528543  21.8000579  40.4645634  40.2575159  21.9573760
  41.9700527  40.1677036  22.0855260  26.9444942  50.4699802  23.8342905
  27.0091009  49.6971607  24.3953705  26.2136126  50.2787924  23.2465076
   4.3534833  37.2053075  20.8376622   5.2070969  37.4332213  21.2059426
   4.5509511  36.5662670  20.1529241  76.5502118  69.1265552  55.1328084
  76.4477585  69.6036189  55.9563038  76.7780827  69.8004501  54.4923613
  34.2008046   3.6020509  56.7278621  34.5111493   4.4992010  56.8505082
  33.6670283   3.4252540  57.5024948  89.0552761  38.7102652  30.2334237
  88.7365445  38.3077669  31.0412836  89.2522789  37.9705191  29.6587968
  15.6023863  20.5009309  71.3703481  14.7557906  20.6547538  71.7896849
  15.6356076  19.5534698  71.2382481  20.3382301  17.6895034  39.6888971
  21.0288405  18.0054450  40.2715397  20.2397108  18.3827567  39.0362692
  46.3662910  56.1154127  16.8818629  45.5374384  55.6609106  16.7313051
  46.5596390  55.9609413  17.8065181  33.3163214  42.3637390  16.1465442
  33.4839773  41.5467358  16.6162622  34.1330290  42.5443745  15.6811476
  37.5405431  13.2180190  32.9892778  37.2221136  13.7083840  32.2314024
  37.2822285  13.7480927  33.7432861  31.2316370  30.6769991  23.4336734
  30.5004597  31.2784028  23.5748386  31.6663146  30.6244659  24.2848659
  27.8192759  41.9088459   8.7097126  27.5647211  42.5987005   9.3225187
  28.1175232  42.3784876   7.9307920  30.0630069  27.9411054  47.7500105
  30.1075768  27.7860737  46.8064976  30.5527592  28.7527370  47.8827715
  35.3159952  42.3856497  33.9313722  35.3146052  41.6520548  33.3165002
  36.2047148  42.3986816  34.2866707  25.1955175  15.9448326   1.8330653
  24.8640561  15.0996470   2.1364218  24.9501753  15.9804678   0.9085284
  47.1553707  58.9944077  24.3056297  47.6872826  59.0973520  25.0947475
  47.5645018  58.2688856  23.8339734  30.6336689  52.2953701   8.4726405
  30.4151320  51.3848829   8.6713517  29.9271750  52.8036928   8.8710254
   8.4411633  61.1548662  44.6528769   7.8204608  61.0560989  43.9309311
   9.1114986  61.7476320  44.3130112  13.8041055  39.4188905  25.3301787
  13.6288965  38.4888172  25.4733419  14.7556615  39.4724464  25.2412677
  36.7961311  22.0298076  15.4895484  36.9592285  22.9702926  15.4179966
  35.8456850  21.9451118  15.4139769  22.1163845  34.9539709  40.1522923
  22.8758955  35.2533674  39.6525550  21.3623405  35.2652717  39.6515512
  55.9521818   4.4384792  34.1062236  56.4772654   4.8835868  34.7713518
  56.5874815   4.1589278  33.4470749  27.7348304  11.0557616  57.3532534
  27.6272774  10.2808523  56.8017292  27.4947572  10.7599545  58.2313728
  58.2190943  20.6780171  39.7704148  58.8974571  21.0012341  40.3633642
  58.6962843  20.1681256  39.1157913  57.3319769   2.2421911  47.5186396
  58.2125092   1.8669420  47.5274658  56.7496347   1.4889869  47.6175928
  55.6348658   8.1275201  36.7408991  55.9783459   8.9324307  36.3531184
  55.9582472   8.1386977  37.6417494  60.6117916  57.1493006  28.5637736
  61.3741112  57.4288702  29.0706658  60.6458282  57.6797581  27.7677298
  47.5228500  14.3588901  16.8476236  48.3838844  14.4315600  16.4358294
  47.4607277  13.4411705  17.1125102  51.4394665  58.8419104  11.6012228
  50.8686733  58.4994173  12.2890639  50.8600044  59.3654919  11.0477650
  34.2744637  23.6830640   6.7433089  34.2641568  22.8091264   6.3529772
  35.1382637  24.0328145   6.5247697  32.2126654  84.0973251  24.2489576
  31.3700083  84.4823770  24.4895673  32.3030451  83.3390630  24.8261070
  46.6672659  33.6378336   2.7087548  46.2403297  32.8618598   2.3456869
  45.9530354  34.2583561   2.8538641  20.7452607  56.6426945  19.5867026
  21.0781145  55.7909584  19.8695266  21.3978815  56.9595528  18.9622664
  39.2504835  37.9194570  13.7749028  39.1365218  37.3357534  14.5249259
  40.1990271  38.0101514  13.6839390  13.4517729   7.3583114  24.4293833
  13.2611990   7.6970649  23.5546494  13.2491839   8.0859327  25.0173950
  31.9849896  46.0736418  21.4667988  32.1218395  46.2407589  22.3993087
  31.0625029  46.2819719  21.3189864  43.1194496  32.5021744  32.8708506
  43.7142181  32.9894042  32.3006868  42.7369261  33.1677198  33.4426522
  36.5043974  31.4918280  20.6662369  36.6854954  32.0392656  19.9022031
  35.6712484  31.8202925  21.0041738   5.6814849  10.0373781  41.7924547
   5.5204719  10.4755712  40.9568167   4.9940029   9.3739575  41.8513918
  27.3336196  54.7179317  36.4449191  28.0103898  55.3880644  36.5404916
  26.5345120  55.1373482  36.7638922  39.7136402  32.2457504  17.7391660
  40.3044939  31.5257335  17.9598522  40.2587175  33.0302119  17.8003633
  89.3289871  10.9551994  68.1211392  90.1969571  10.5615512  68.2100198
  88.7287922  10.2098028  68.1016115  15.7767773  15.6192911  52.9617977
  15.8683336  16.1189508  52.1505117  16.6398275  15.6695127  53.3727169
  22.3999047  46.8564463  27.8108454  22.9123163  47.6498413  27.9663849
  21.7603755  47.1109295  27.1456575  22.9358792  34.1259480  18.8571441
  23.2143092  33.5512066  18.1441367  23.7146449  34.2220330  19.4053423
  39.4012403  44.2983961  38.1934762  40.1041794  44.0209961  38.7809753
  38.7843800  43.5664749  38.1957245  21.0326362  49.3899345  23.5451078
  20.6617141  48.7613535  22.9258037  20.7448006  50.2434921  23.2213497
  41.7304039  48.4584188  40.4373980  42.5446987  48.5234594  39.9384689
  41.0516167  48.7451506  39.8264456  20.1762009  67.2988749  20.9535694
  20.1304102  68.2357216  20.7626367  19.9503553  66.8744326  20.1258779
  27.1862888  53.9015818  31.0058427  28.1412172  53.8942337  31.0713291
  27.0087194  53.7509871  30.0773907  22.6465321  19.3756282  68.4094810
  21.8790174  19.6731532  68.8979816  22.2850347  18.8920534  67.6667118
   7.9975098  74.3856525  25.2143550   7.1626467  73.9518452  25.0381541
   7.8480148  75.2998161  24.9731374  26.0925770  45.4767084   8.9412028
  26.1079526  45.0240088   8.0979604  26.5228701  44.8719215   9.5456129
  41.0232925  43.6968184  32.6393151  41.4259386  43.6654234  33.5071421
  40.4254723  44.4432926  32.6795125  47.2355986  18.4431803  33.7723279
  46.3978100  18.0546498  34.0240932  47.0590353  18.8710570  32.9344845
  34.1922569  31.7187095  11.7217159  34.7291493  30.9355879  11.6004705
  33.3229756  31.4633083  11.4129293  42.3520517  33.7237024  12.4613857
  42.9006100  33.2816124  13.1093633  42.9508781  33.9359236  11.7454231
  19.8286974   2.9629359  37.4550152  19.0771556   2.6682511  37.9693866
  19.8596776   2.3622273  36.7104197  20.2064371  77.2794104  36.0777164
  19.6802783  77.1336985  35.2914882  20.5314088  78.1750584  35.9858418
  10.6953752  57.3159695  35.0218034  11.2808180  57.1031141  34.2950439
   9.9467802  57.7459192  34.6082997  14.1346717  28.0011201  17.0744050
  14.7042251  28.7005138  16.7539489  13.9105332  27.4973440  16.2919700
  23.6603999  20.7313919  24.6683216  22.8194070  21.1752033  24.5588040
  23.4904575  20.0544286  25.3233552  51.5677404  50.4725075   9.7828472
  51.8921089  49.6966505   9.3256152  51.6680431  50.2627325  10.7113755
  14.6710563  45.1480150  39.5916367  13.9421296  44.5332384  39.5082784
  15.4388475  44.6481752  39.3143487  65.7581711  50.7867861  20.3664494
  64.8825312  51.1468267  20.5073643  66.3387966  51.5467644  20.4057598
  31.7899847  39.6814847  34.6118474  32.1022868  38.9725900  34.0495610
  31.4560270  40.3405046  34.0032458  28.6300206  10.2728343  13.0178475
  28.4537077  10.6521642  12.1568859  29.5844531  10.2768946  13.0904675
  51.0671186  27.3722219   0.8367062  51.9058895  26.9589400   0.6320380
  51.2599468  28.3096337   0.8542398  50.3073572  81.2052600  68.6257890
  50.1591443  81.4643734  69.5352537  51.0364936  81.7536919  68.3362797
  71.8662834  14.4022191  43.7399244  71.1326981  14.4575727  44.3523169
  72.6117849  14.7534466  44.2268467  -0.0515100  76.9296671  13.0597758
   0.6876711  76.9060684  12.4520874   0.2866438  76.5351881  13.8636851
  32.7108121  52.3141527  33.1302977  33.4747601  51.8487215  32.7897215
  32.8378105  52.3209667  34.0790105  31.1948586  67.1172476  39.6820378
  32.0307946  67.4040174  40.0497389  31.3685727  66.2361574  39.3507767
  36.4693642  34.1801167  19.8804986  36.9293928  34.6816683  19.2074060
  35.5554533  34.1793299  19.5959032  54.0393782  59.2740440  10.9836447
  54.1816473  58.4447193  10.5273390  53.1102419  59.2646074  11.2135339
  36.5344834  65.2106762  26.9171238  36.3525772  65.2174091  25.9773898
  35.7538319  65.5960846  27.3149610   6.9677383  35.8225250   5.0273764
   6.6635615  36.7214751   4.9024752   7.6054978  35.8821201   5.7386726
  35.2406001  23.5477448  21.7058110  35.4379439  23.3928108  20.7820773
  35.2232480  22.6742148  22.0968056  34.1038656  27.7834201  50.3554869
  34.7715163  27.1442223  50.6042814  34.4342041  28.1718159  49.5453882
  25.9707069  28.8252974   2.9808274  25.5444622  27.9688382   3.0128172
  25.5418515  29.2793226   2.2554466  22.3112988  28.2035446  34.3389964
  22.1940637  29.0270948  33.8654399  22.3943996  27.5420475  33.6521554
  27.7088118  23.1293988  11.2260938  27.4969935  23.3150482  12.1409154
  28.0057311  22.2194171  11.2289023  25.9475851  14.6290994  30.5551028
  25.1667619  14.1703999  30.8651662  26.6734838  14.0496445  30.7864785
   5.0625920  31.5931153  39.2166424   5.0280303  31.5427494  38.2613945
   4.3849602  30.9855771  39.5131946  61.1079884  40.9617710   3.5316631
  60.4676819  41.3109398   2.9117271  61.8569756  40.7152271   2.9890162
  78.0675507  82.7447605  11.3646770  78.3964252  82.2106934  12.0877600
  77.3295593  83.2260609  11.7387629  38.8776898  54.9888420  17.9352057
  38.1275749  55.3562880  18.4026945  38.4948015  54.5489502  17.1761799
  54.8638010  82.2683525   5.1500285  53.9577723  82.5726891   5.0977892
  55.3533411  82.8775692   4.5973653  16.4561307  44.1198397  37.4692655
  16.9762897  43.3658648  37.7470994  17.0990741  44.8139000  37.3238873
  72.5150633  73.3378553  49.8721313  73.2509899  72.7257872  49.8763466
  71.8688202  72.9314327  49.2947054   7.1150332   5.9158968  47.0044374
   7.4246149   6.7703318  46.7038965   6.5361862   6.1160444  47.7400351
  42.0064259  57.0472479  28.6711550  42.2289848  56.8066311  29.5704913
  42.7927923  57.4788332  28.3371043  44.2623138  64.0461493  25.3431916
  43.3431435  64.2750645  25.4808688  44.4360304  63.3567095  25.9840751
  44.2305899  51.3232946  35.2967572  43.7945986  52.0341301  34.8268056
  45.1218748  51.3167095  34.9477530  43.0695868  73.0733013  27.9498529
  42.7203846  72.4352074  27.3276591  43.9338589  73.2965708  27.6042819
  25.5040216  79.8713779  19.9030995  25.3774619  79.3817663  20.7158089
  24.6262240  79.9447346  19.5285034  40.0838900  60.1014805  10.9484231
  40.8445263  60.3540611  11.4717448  39.6535397  60.9296989  10.7360983
  60.1451921  73.6032200  40.7585526  59.6876907  72.8623581  40.3610039
  60.4068375  74.1490126  40.0170088  43.7473726  49.6471214  38.7243581
  43.4105730  50.5047083  38.4648514  44.4901705  49.8441935  39.2950153
  58.0754614  54.2356300  24.7142506  58.5933876  53.4377384  24.8208332
  57.2194195  54.0164423  25.0821924  65.2900812  14.9655222  60.2926588
  65.5201908  14.0482973  60.1444101  65.0571462  15.2971911  59.4254971
  20.6193542  53.3063984  64.0160990  21.0924435  53.2271338  64.8444366
  19.8029184  52.8278542  64.1598272  36.9009995  47.1814203  32.5010920
  36.5024185  46.7300081  33.2451296  37.7105665  47.5526285  32.8518629
  58.1751251  58.8111115  19.4815588  58.0193377  59.1408300  18.5965478
  58.1036139  59.5843172  20.0412631  36.9072247  73.9773369  27.9986596
  36.2453246  73.6322737  27.3994493  37.5083733  73.2457066  28.1385422
  52.2234058  76.2236452  21.1400270  53.0918694  76.1500311  21.5357423
  52.0520830  77.1649647  21.1117792  51.8622303  43.6519098  24.3428183
  52.8181124  43.6976242  24.3635631  51.5826607  44.1276264  25.1249743
  61.1526203  62.2630310  11.6513371  61.4843178  62.1679401  10.7584953
  60.2245045  62.0377922  11.5873027   9.5970469   9.6062159  17.7660859
  10.5270176   9.4175886  17.6403832   9.4730263   9.5779585  18.7147963
  39.6254444  74.1774559  25.9951711  39.0606117  74.8853731  26.3050938
  40.3986549  74.6224308  25.6482172  44.1291761  66.8451166  27.9467750
  43.2181931  66.7377806  28.2203054  44.5146799  65.9752178  28.0511642
   7.2257023  13.9167284  10.9180319   7.4628429  13.9730429   9.9923825
   6.9109230  13.0197882  11.0304999  62.7596017   0.2791475  38.9889812
  62.8673645   1.1034559  39.4634652  61.9896528  -0.1272799  39.3867517
  61.3448668  71.8361473  45.4475880  60.9720325  71.2094355  44.8275423
  60.7193089  72.5605297  45.4613161  30.6766205  25.3132032  48.3763313
  31.0352402  24.9354624  47.5732565  30.6912785  26.2580751  48.2239151
  11.6603482  54.4759178  15.8796430  11.9581330  54.4325924  14.9709737
  11.8359971  55.3782320  16.1464882   8.3699187  72.5704575  41.4896917
   8.0230483  72.1472359  42.2750568   9.1920050  72.9688311  41.7755413
  71.8425131  73.8399553  36.0774136  71.1207533  74.4682503  36.0542870
  71.8795061  73.5511208  36.9892454  74.2387601   7.9646658  55.9299231
  74.5650073   7.8768038  56.8255091  75.0161001   8.1714129  55.4110479
  69.7296381  79.0221548  28.3700871  69.4448185  78.3238840  27.7805710
  70.6772137  78.9056969  28.4391093  31.1901712  85.4512501  20.5804515
  31.1429214  86.1779404  19.9592316  31.9993591  84.9935341  20.3525352
  68.5337782  77.9490280  44.2728758  68.5491371  78.9055157  44.2393112
  69.4310522  77.6876688  44.0659571  65.2437687  61.8710423   8.1292903
  65.0140429  60.9427595   8.0874795  66.0847235  61.8893290   8.5861242
   6.7640170  81.6203403  53.2596016   6.4822062  82.1131516  54.0302801
   6.4857730  82.1568298  52.5173140  74.9269819  64.4606543  29.6352649
  75.5689716  65.1648569  29.5448136  75.2670431  63.9162874  30.3453732
   1.2059554  60.9890509  58.0728626   0.2726229  60.8103991  58.1877470
   1.2363490  61.7065287  57.4399853  79.3542480  64.1211128  19.7224641
  80.2327442  64.4265938  19.4962883  78.9172554  64.8932743  20.0816846
  68.7428713  82.9699421  34.5272326  67.9182005  82.6436806  34.1670942
  68.7102556  83.9154816  34.3819189  70.7969924   1.3688635  32.1454620
  70.4877349   1.5330195  31.2545943  70.2781555   0.6224798  32.4453831
  73.5667821   4.6088671  18.8232744  73.1524774   4.0822100  19.5068061
  73.5991355   4.0301107  18.0615497  41.4969206  80.4601097  74.0276289
  40.9082985  80.5567837  73.2790184  41.0288143  79.8787117  74.6268654
   9.0372782  24.1364931  42.2290993   8.7777929  24.9320768  41.7643976
   9.1535883  23.4832739  41.5391636  84.9154282  78.3479023  28.3370185
  85.5586338  77.6495504  28.2152843  85.2831650  79.0967083  27.8676677
  79.5101997  16.1708521  15.8103883  80.0454208  16.9627070  15.7580745
  79.1977331  16.1522841  16.7149603  42.0568371  56.5331841  31.4259434
  41.3204050  56.3540983  32.0106053  42.6612806  57.0540380  31.9547033
   9.5584448  45.8087397  38.7846684  10.1245459  46.5660667  38.6355853
  10.0788649  45.0597906  38.4940362  88.6810112  54.9789286  42.8621387
  88.5108566  54.0369749  42.8614712  89.6073246  55.0548267  43.0910873
  68.6081171  62.4280262  63.2364655  68.3071756  62.9093313  64.0071869
  67.8611517  61.8838596  62.9871559  47.1348572  71.6877794  38.8845706
  46.2829399  71.4568758  38.5142326  47.3970890  72.4759769  38.4089565
  74.6512604  75.7996988  36.7136025  73.7614870  76.0665321  36.4826536
  75.1825666  76.5814495  36.5625668  88.8775635  85.6213379  14.9424338
  88.5063171  86.4975548  14.8392498  89.1059017  85.3516769  14.0528393
   1.4471655  22.0025515  43.9496851   0.7429962  21.9409918  44.5951223
   1.1073570  22.5965475  43.2804060  65.7595778  47.1677303   9.9703199
  66.4757776  46.7983913  10.4869235  65.3127956  46.4058828   9.6012652
  42.7613783  76.8822145  33.5212278  43.2730150  76.6890764  32.7356339
  42.5221586  76.0229158  33.8685179  72.5495338  48.5189533  25.8099914
  72.4250412  47.5791121  25.6779575  72.1135473  48.7037754  26.6418481
  67.9718733  41.0526657  12.0587873  68.1688833  41.2204885  11.1372375
  68.0764246  40.1063347  12.1575797  89.0855428   2.9568361  60.3540373
  90.0009414   3.2358240  60.3329515  88.6200305   3.6244082  59.8501730
  71.9724226  27.8015709  24.2362618  71.1347151  27.9575157  24.6723342
  72.4049854  28.6554575  24.2361259  22.7758845  54.7920895  28.8389134
  23.6132105  54.9996376  29.2536902  22.2332343  54.4535351  29.5510554
  57.3956367   4.5479845  49.0080690  57.8640505   4.8555731  48.2320499
  57.1554109   3.6449503  48.8005638  71.3734102  45.4505205  28.7453890
  71.6588163  45.3830194  27.8342247  72.0785332  45.9279871  29.1824961
  72.3644658  13.8889383  23.4284163  71.7922756  13.5322451  24.1078305
  73.2144853  13.4805273  23.5924339  27.3791909  74.1008234  30.6829524
  27.4734831  73.8842916  31.6105580  26.4759731  74.4063950  30.5989432
  32.8636341  21.4191031  30.5770421  31.9781380  21.1250948  30.7907653
  33.4090881  21.0675978  31.2807131  40.2511358  67.7288961  51.0247564
  39.5919299  68.0179548  51.6557264  39.7775173  67.6662159  50.1953077
  60.8757305  72.4638700  59.3222809  60.8968592  73.2885933  58.8368845
  60.1366091  71.9844961  58.9479351  56.3544416  72.1597195  51.3762760
  56.7009544  72.5782204  50.5882263  57.0748377  72.1998644  52.0052814
  44.1376543  80.8296776  55.2635860  44.0288925  80.2133560  54.5393276
  44.4338083  81.6389751  54.8469734  82.2836086   0.3711199  25.5542803
  81.6865703   1.1157869  25.4818130  82.5352689   0.1771521  24.6513557
  80.5681324  55.5347252  22.8725672  80.4637623  54.5881224  22.9689169
  79.9898338  55.7667208  22.1459413  51.2291242  17.5160630   2.6533535
  50.3443052  17.1517737   2.6782158  51.1547948  18.3567698   3.1049326
  77.6641464  62.4606609  30.1835847  78.0886650  61.6056871  30.1126242
  77.0968437  62.3834610  30.9506869  67.3628780   0.0307631  71.2260818
  67.3472139   0.9878134  71.2321568  68.2739135  -0.1926733  71.0354900
  69.2502594  69.3815565  42.3117638  69.4934177  69.5515442  41.4017010
  68.6186266  68.6641407  42.2609091  36.2405896  61.3047934  27.3778439
  36.2282062  61.3123465  28.3349347  35.3737497  61.6220999  27.1245837
  37.8892689   6.4918589  42.1780539  37.7674942   5.6659769  42.6463842
  38.7983398   6.7348837  42.3534632  61.2806654  74.0249205  33.8124108
  61.2653923  73.8359022  34.7506380  60.6892395  73.3778286  33.4280634
  54.1834879  71.2450552  13.9949656  53.4745026  70.7860041  14.4453442
  53.8543177  72.1359348  13.8757765   0.7384070  80.5710316  17.8337359
   1.4544161  81.1685562  18.0494452   1.0066470  80.1631451  17.0103848
   7.9693946  63.7848473  13.6551523   7.5975855  62.9291630  13.8691604
   7.3337897  64.4141912  13.9959776  71.5053463  62.6237631  43.0660677
  72.3102856  63.1342363  42.9782009  71.8054342  61.7274094  43.2168198
   8.1558399   2.8379892   1.8466285   7.4447088   3.4737371   1.7669794
   8.3560638   2.8185820   2.7824518  73.7294340  61.8331242  34.8197150
  73.0170918  61.2420082  35.0634003  74.2378330  61.9397449  35.6237006
   3.8821535   5.1593279   7.2666019   3.4039240   4.3475508   7.0976764
   4.6000128   5.1505922   6.6334850  71.7915535  53.5567045  46.9834280
  71.4273548  53.1533289  47.7713871  72.5291967  52.9948759  46.7458057
  74.5780802  52.0293856   5.4145229  74.2209148  51.3731909   6.0129124
  74.7915983  52.7746010   5.9760404  58.7062693  48.6864519   9.6894491
  59.4806385  48.1241941   9.7105157  59.0206146  49.5134449   9.3240744
  55.9991976   6.7289900  15.3050613  56.5607759   6.4059233  16.0096812
  56.5246984   7.3992132  14.8681688  50.6052017  38.8442254   3.9602908
  49.8056746  39.1130567   3.5078353  51.2015533  39.5852995   3.8535023
  88.0738449  77.5011063  25.0123811  88.3313847  78.4071302  24.8420095
  88.7607479  76.9756651  24.6021318  36.5270424  72.5977898  20.7500863
  36.0578918  71.9397402  21.2630200  36.7064142  73.3030224  21.3719416
  41.3900614  74.1288900   6.5634954  40.9160089  73.6643124   7.2531843
  40.8332396  74.8785686   6.3533455  65.1575184  77.2883654  47.1419001
  64.4738150  76.9488621  46.5643835  64.9970531  76.8581247  47.9817677
  69.3403482  59.8943901  48.5643625  69.8679113  59.6396017  47.8074026
  69.9764681  60.2212381  49.2005634  91.2812901  49.4548750  54.5905161
  90.6891346  49.6546888  53.8654947  91.4947319  50.3083754  54.9676275
  54.7560072  60.6370020  21.1636329  54.9538517  59.7301865  20.9295917
  55.5926561  60.9961033  21.4590931  50.3922224  63.6387300  17.0102453
  51.1674690  63.3947039  17.5158858  50.3227615  62.9620838  16.3367796
  88.6923409  81.7016220  72.1295452  89.1935349  81.4790535  71.3450098
  89.3299484  81.6561127  72.8420162  89.1317081  59.8714256  35.2131224
  88.8627815  59.0657330  34.7717953  88.3503056  60.1577330  35.6860638
  69.8742628  63.9788818  61.2273073  70.6960201  64.1437769  61.6896486
  69.3445873  63.4813595  61.8503189  72.5159148  36.0629980  68.6679003
  73.2995490  35.7756702  68.1992940  72.7127150  36.9606010  68.9358750
  79.0124369  53.9662790  12.7849555  79.6726561  53.3049345  12.5776756
  79.5140457  54.7688913  12.9279125   1.8766432   5.5464624  26.0725451
   1.1256104   4.9796652  26.2483978   1.5500574   6.1879419  25.4416180
   0.8153896   3.8077616  66.7024469   0.2207737   3.9207243  65.9608889
   1.2341957   2.9612326  66.5468407  63.9671659  64.0719795  24.6199965
  64.0880775  63.3443499  25.2300477  64.8257399  64.1886902  24.2132258
  55.9951973  72.1457720  36.3667846  56.1964035  71.8785334  35.4699397
  55.6051302  73.0151463  36.2758541  73.8737154  52.8812313   2.9336777
  73.0717421  53.3984995   2.8595158  73.9536667  52.6961279   3.8694003
  69.9571943  83.8535213  65.0461960  69.9199486  84.0882397  65.9734249
  70.2260208  84.6596909  64.6056700  59.7038078  53.0145359  16.1377835
  59.0639305  52.3150921  16.0052371  60.2895117  52.6779699  16.8159461
  86.0363960  82.5507164  45.4396725  86.5272999  82.7864742  44.6524858
  86.1607742  83.2931995  46.0308456  36.5594578  58.6244297   2.2599107
  35.7378435  58.1830311   2.4751998  37.0773673  57.9589081   1.8070468
  37.0149211  24.9580232  58.3211467  36.7828110  24.0887252  58.6477647
  37.9591874  24.9131671  58.1708715  30.4979014  60.9537411  52.9053211
  29.6654677  61.4258432  52.9253912  30.8055139  61.0488415  52.0038986
  85.0862810  13.5044931  72.8979683  85.6194040  13.7864946  72.1546745
  84.2103788  13.8388514  72.7050304  71.7492437  72.5753880  32.0305181
  72.5201273  72.6980448  32.5845242  71.6000080  71.6298962  32.0336914
  85.3590679  65.1287127  19.1563749  85.8430672  65.9370947  19.3251812
  85.3867245  65.0272226  18.2049727  64.7582674  56.5094185  21.8337083
  64.0520191  57.1550608  21.8579602  65.1958942  56.6012478  22.6800442
  33.3408955  32.4336092  68.5507277  33.1735304  32.0341198  69.4043240
  32.8340081  33.2454912  68.5627303  75.0995255  47.9997921  28.1057310
  75.9674644  48.2440281  28.4270787  74.6437025  48.8334703  27.9898214
  25.2470018  63.1759293   3.8197401  24.6087696  63.8871224   3.7641552
  24.8144533  62.5068696   4.3502977  55.6629705  70.4471827  11.8576348
  55.0404882  70.5673742  12.5747824  56.3398933  69.8763609  12.2211874
  65.5076599  70.6724787  50.8803034  66.3567686  70.7524395  50.4457331
  65.7129335  70.7037687  51.8147087  57.2424412  82.0845318  36.8318772
  58.0797529  82.4221897  37.1498728  57.1976233  81.1924934  37.1761227
  69.2418596  19.4049143  29.0158367  69.4015666  18.4856390  28.8021803
  68.8773652  19.3853258  29.9007034  69.0730095  81.9869709   0.8577132
  68.2018089  82.3805141   0.9062991  69.4554520  82.1444702   1.7209408
  70.6745720  57.2761011  44.2233324  70.7382107  56.3219643  44.1808176
  70.7924557  57.4829340  45.1504517  17.3709087  18.0009436   7.7578515
  17.5267820  18.9409517   7.6666337  16.7627697  17.9292845   8.4935606
  44.0300512  46.4096022   9.2868710  43.6829090  45.5192184   9.3410259
  44.4869423  46.5395021  10.1179016  90.1887512  69.6353769  37.8630137
  90.2521896  70.3420067  38.5055780  89.6039772  68.9949846  38.2681870
  78.0502701  49.9362755  49.9517965  78.9351892  50.1357174  49.6462297
  77.7478504  50.7491302  50.3568172  30.9331822  26.8844128  15.1519167
  31.7903233  26.9877815  15.5652642  30.4385328  26.3353968  15.7603037
  66.8299838   3.5251020   7.9579455  67.7867552   3.5238432   7.9865378
  66.5649029   3.8359617   8.8235819  12.0203216  84.9796312  73.6610894
  11.1673076  84.5827167  73.8373027  12.6542098  84.3210046  73.9450485
   2.1499758   3.5400652  22.3389745   1.2863712   3.7474321  22.6959252
   2.2643690   2.6063417  22.5158930  52.9000187  54.1404724  31.2098455
  52.8631353  55.0963163  31.1747956  52.2207117  53.8974762  31.8389106
  51.4385509  57.0783901   4.9833673  51.7040157  56.2051344   5.2717865
  50.6030750  57.2325850   5.4243225   6.0535698  11.2773966  22.1674538
   5.3088741  10.7247805  22.4046731   5.6752758  12.1474241  22.0402122
  56.5458776  22.9147274   1.6291454  57.1441366  22.8835041   0.8825948
  55.7100393  22.6061089   1.2793329  54.5699957  46.0822240  55.9074721
  54.5527724  46.8502370  55.3364250  53.8000659  46.1826555  56.4672408
  46.8017626  51.7857170  34.3352294  47.0339680  52.5269318  33.7758470
  47.6410961  51.4546728  34.6548438  53.3147955  55.9089613  22.7034783
  52.6995897  55.1885843  22.5663114  53.4020472  55.9715939  23.6546350
  24.6270542  27.5979113  30.3363442  24.5681171  26.8384336  29.7567272
  24.0714436  27.3732733  31.0827160  15.1936798   1.8314718  23.4573936
  15.3254442   0.9340166  23.7630773  15.3622656   2.3740648  24.2277193
  51.7677382  58.4313242  72.0027212  52.1491507  57.5534574  71.9930138
  51.9377307  58.7565652  72.8867759  16.7079116  27.3090918   3.9367130
  17.0906402  26.5834076   3.4436252  16.3827373  26.9064028   4.7419050
  66.1919260  82.8259563  49.9806833  65.2565956  82.7593517  50.1729298
  66.4229918  81.9715118  49.6163225  55.0570202  74.9929810  19.6483755
  54.2616653  74.7644424  20.1294351  55.7471848  74.9903488  20.3116226
  72.7689219  59.2832756  11.4111340  73.3104515  58.5871363  11.7831087
  72.6760626  59.0471935  10.4881632  43.3978804   1.6480993  25.5074501
  43.9847430   1.8018698  24.7670603  43.9823409   1.4510511  26.2394404
  20.4028015   5.9489512  41.3174200  20.6187992   5.0243830  41.1959648
  21.1446457   6.3060926  41.8056345  64.6243525  69.2598104  28.8267565
  65.3469896  69.2310572  29.4538164  64.6884298  70.1272106  28.4270763
  85.3961277  83.8990116  17.7659667  86.1166286  83.4557247  18.2138622
  85.7684708  84.1752434  16.9285345  76.9534397  63.4930992  51.8480682
  77.4208927  63.9631891  52.5385284  76.5899897  64.1827059  51.2925768
  70.0804424  62.4992466  18.0501866  69.5090580  61.7313528  18.0402029
  70.5782175  62.4380112  17.2348940   2.5013475  11.7857336  62.7273273
   2.8466301  12.5384020  63.2074308   1.8720322  11.3866209  63.3280849
  84.1080666  70.4447222  56.2393427  84.6056652  69.6281862  56.1957979
  83.3460808  70.2323961  56.7783451  47.2007179  63.5193634   8.8412791
  46.3831520  63.7393808   9.2878312  47.4951124  62.7127504   9.2642868
  71.3985920  53.9262962  21.3990808  70.7224989  53.5958910  21.9906545
  72.1435070  53.3409882  21.5359783  75.8429146  58.2706976  47.2519445
  76.1086655  59.0342093  47.7644444  76.1637926  57.5216484  47.7541351
  51.3429880  36.1901760   7.1692699  51.3637590  35.3824735   6.6560280
  51.8848944  36.0011768   7.9353297  16.6085756  58.7026501  46.4202690
  16.4338434  58.2560158  45.5918837  15.8761764  59.3101597  46.5239620
  28.3044076  80.1963425  29.7476101  27.6849365  79.6780491  29.2339396
  28.4141755  79.7022724  30.5600643  72.8501654  75.0000477  16.6473818
  72.3134041  74.3974018  17.1621072  73.7471390  74.8243475  16.9316351
  54.6979952  76.2660933  51.0861444  53.9955807  76.7977715  50.7117510
  54.4471693  75.3638792  50.8878469  66.3480711  76.3282633  44.5953703
  66.0881710  76.7854643  45.3951502  66.8741179  76.9671679  44.1144228
  50.0355339   0.8402458  70.4619328  50.1248741   0.4488292  71.3308645
  49.2206573   0.4749408  70.1173181  52.3554134  52.8124380  19.9132407
  52.5939274  51.9316006  20.2021408  52.2352743  53.3062267  20.7243943
  37.6709223  62.8306723  31.7469430  38.5214210  63.1008291  31.4006782
  37.1376562  63.6250782  31.7190242  29.3215013  78.0992985  23.2827520
  30.2692556  78.0150175  23.1783891  29.1953516  78.2387733  24.2212963
  45.8150911  31.2023354  13.0048084  45.6331158  31.9607782  12.4499416
  46.1061144  30.5240178  12.3953605  32.5301361  71.6068840   9.7958088
  32.4457955  72.0367384   8.9447260  33.4696198  71.4519930   9.8938549
  75.2638837   2.3912691  12.2755456  74.3932029   1.9959520  12.2322011
  75.7642051   1.9440912  11.5929437  83.2085133  75.9652662  17.5058818
  82.9878139  75.7708120  18.4167671  82.8786469  76.8525076  17.3636723
  74.5545626  63.2109070  27.0848989  74.4882250  63.5020256  27.9943395
  74.4499969  62.2604752  27.1294236  50.4567719  85.3623009  17.1218133
  50.2782631  86.1985970  17.5519061  51.4075089  85.3477097  17.0117235
  55.0783968  69.9358273  52.2480106  54.3572664  69.7375870  51.6505957
  55.5955601  70.5970669  51.7880821  70.0248289  45.1151896  51.1114693
  69.1447353  45.0048161  50.7516289  70.2986002  44.2297029  51.3506126
  56.0725212  62.2751284  14.3089378  55.3234816  62.0906973  13.7422299
  55.8437443  63.0935240  14.7495306  66.4435196  73.5682583  30.4545665
  65.8104229  73.8427782  29.7911978  65.9172487  73.4162903  31.2395358
  69.0647646   2.7396177  57.2841978  69.1201683   3.4893583  56.6916943
  69.6778938   2.1009516  56.9203234  10.3655966  46.4248228   3.3470321
  10.1718386  45.5873060   3.7680504  10.9616526  46.2013102   2.6321906
  77.3199531  47.2681498  22.1654153  77.9837390  47.1220087  22.8394032
  76.5309163  46.8516039  22.5120378  56.6078472  64.6234179  19.5849538
  56.0103989  65.2247620  19.1403461  57.1230030  64.2322969  18.8793540
  82.9156038  23.5783743  33.7559605  81.9826242  23.7913012  33.7349629
  83.2257911  23.7736105  32.8717089  32.1262479  58.4978819  15.5023932
  31.5682435  59.2755890  15.5082667  32.9934263  58.8234663  15.7436883
  57.2464514  45.4481220   4.3353271  56.3295174  45.3161144   4.5762348
  57.5389719  46.1695147   4.8923346  68.8680359   5.6170630  27.5483203
  69.3910476   5.1736330  28.2161975  68.7836167   6.5154718  27.8676510
  26.4029169  70.6255770  18.7926686  27.1207833  70.2163029  19.2757773
  26.1322618  69.9619961  18.1581295  33.4769993  18.0063604  30.7208109
  34.0475922  18.3274530  30.0225592  32.5951939  18.0571627  30.3519225
  24.5311909  10.6305861  11.6812241  24.5250588  11.4434408  12.1866548
  25.1292496  10.0559305  12.1590662  29.1620426   5.5284094  30.1945043
  29.4947701   6.3658880  30.5172515  28.8752918   5.0652575  30.9815836
   1.0479983  81.9274521   2.4360323   0.4329165  81.1967850   2.4994723
   0.6923541  82.5918484   3.0262336  80.0564480  46.8684053   2.6984110
  79.5468616  46.2472963   2.1780477  79.5454931  47.6774502   2.6736736
  13.5293369  10.0763582  11.3843787  13.0657654  10.3370832  10.5885410
  12.8391438   9.9661516  12.0383811   8.3647041  22.1048903  39.8034048
   7.5190001  22.1734499  40.2464724   8.2351713  22.5556349  38.9689684
  53.1864882  62.8613281  33.6815143  52.5246525  63.1573439  34.3064809
  53.1422663  63.4966564  32.9669261  25.1457195   0.1382422  31.0033774
  25.5412655   0.0438475  30.1368523  25.4341297   0.9993910  31.3058019
  12.2133904   8.6246561  17.8453922  12.6708965   9.1328787  18.5151875
  12.0280581   7.7853178  18.2665706  16.8174037  70.8688354   3.3509874
  16.8210658  71.8142414   3.5007399  17.4927004  70.5305719   3.9390266
  88.3321353  18.7200045  61.5661907  87.7925512  18.3766722  62.2783756
  89.2198345  18.7347960  61.9239712  60.7822462  19.4282412  14.4005692
  59.9615165  19.0908312  14.7594452  61.0639545  18.7590479  13.7768304
  58.0796604  10.6931376  32.6973915  58.9224320  10.2545904  32.5805879
  57.4366837  10.0708174  32.3575020  72.4721861  65.2483320  49.0996265
  71.9074535  64.6003819  49.5208979  73.3096313  65.1692581  49.5564270
  60.3744602  84.5659256  25.0467849  59.6166229  84.5983696  25.6306171
  60.8600187  83.7902451  25.3274870  73.7881279  28.5017157  27.8769398
  74.1865778  27.6545215  27.6776218  73.3418465  28.3657908  28.7127566
  46.9249467  38.8018266  69.8840270  47.2062234  39.6184484  70.2966321
  47.6529387  38.1973497  70.0284642  75.5635854   9.8716902  29.2935371
  75.2937337  10.4120325  30.0361276  75.6092521  10.4818415  28.5574269
  82.5031471  64.2543030  18.7629533  83.3681965  64.1640568  18.3632350
  82.6808262  64.5635748  19.6512163  73.6002970  81.1336803  52.5975275
  73.1986427  80.5946064  53.2789278  74.3318558  80.6069756  52.2755957
  79.7693559  10.2289938  32.0078778  79.9008867   9.6180319  31.2828493
  80.3808090  10.9442114  31.8323207  20.0288849  76.0332807   5.6142547
  20.2414208  76.7286976   4.9918010  20.4352360  76.3134893   6.4343765
  12.6266747  18.5156702  73.3348608  12.6781588  18.5450720  74.2902231
  12.8091602  17.6025557  73.1131506  23.8994654  49.6596670  55.6096935
  23.2090052  49.2671061  55.0754786  23.5549029  50.5189896  55.8527327
  67.1475649  51.7997074  44.8269606  67.9991674  51.3674736  44.7623110
  67.1912766  52.5117111  44.1887093  28.7365799   5.0482630  56.9904804
  28.3658962   5.6115030  56.3110781  29.6708279   5.0092100  56.7858219
  49.1233492  72.8915358  40.5576801  48.8287878  72.7470684  41.4568996
  48.4639168  72.4568892  40.0168800  81.0047626  85.3620529  61.3023233
  81.3786602  85.7169342  60.4957914  80.5111217  84.5924282  61.0190868
  71.2936899   0.4692053  23.0289412  71.5802499   1.3730406  23.1600380
  70.9037753   0.4659628  22.1547604  65.7162571  54.0729666  64.8221922
  66.2282896  54.8645258  64.6563959  64.8673487  54.3957806  65.1244736
  28.3220271  11.4608137  68.6447469  28.7030963  12.1332351  69.2094312
  28.9672497  10.7537691  68.6452690  34.4084721  31.1986136  55.5770540
  35.3041248  30.8920263  55.7186317  33.9143353  30.8442091  56.3162804
  63.8250208  76.8905878  21.4949465  64.6081781  77.1682215  21.9701481
  63.4089136  76.2504435  22.0722699  84.4892216  82.1498013  24.0926695
  85.3822899  82.4431229  24.2732787  84.5962906  81.2818432  23.7035275
  15.1029261  64.6003962  17.3398566  15.7165011  63.8930511  17.5384092
  15.0803145  65.1288319  18.1376505  12.7694826   4.8521875  40.9813070
  13.4663515   5.3598570  41.3970900  12.3691921   5.4595922  40.3591776
  45.4252768  78.4201336   5.5506164  45.8535242  79.0608120   6.1183888
  45.6472349  77.5724792   5.9359080  34.1947060  30.1629995  18.6241055
  34.4377785  29.2394327  18.6886072  33.9919262  30.4206728  19.5233953
  73.8525459  12.3210405  31.2290692  73.7049123  12.4069380  30.2872324
  72.9965087  12.4910234  31.6221762   9.2245444  53.4161234  27.4429417
   9.6875724  53.7891245  28.1930804   8.9600238  54.1751385  26.9231772
  12.9232483   1.6820311  49.2365599  12.7539425   2.5243162  48.8145065
  13.4253769   1.9037222  50.0207520  69.0954018  59.3608189  54.3571568
  68.4621572  59.0205193  53.7251520  69.1993618  60.2822304  54.1196156
  38.6694433  29.6107705  11.1695411  38.7890293  29.0554697  11.9399765
  38.1069375  30.3233702  11.4728954  61.1525011  81.7404366  57.3049641
  60.9624672  81.5054417  58.2132053  60.4234362  82.3039341  57.0457935
  49.0130166  48.5303632  70.7927105  48.0847624  48.3437769  70.9333066
  49.0940980  48.6419717  69.8455036   9.4766196  30.0697327  63.4888840
   8.6004790  29.6889305  63.5488605   9.5548781  30.6150198  64.2716837
  12.9190998  13.3649229  43.8353014  13.4122162  13.3148741  44.6541786
  12.7859287  12.4521326  43.5797358  59.5215608  64.6055634  25.2957275
  60.3907491  65.0044377  25.3361442  58.9552785  65.2170880  25.7664707
  57.2166538  69.1186285  39.9094772  56.8967342  68.2405996  39.7022414
  56.5781212  69.7073603  39.5070982   2.3433809   7.3463797  51.6486740
   2.1121006   6.9062971  50.8307076   2.5602369   8.2410120  51.3863087
  68.2580328  83.7438965  55.3776598  68.5249901  83.1448460  54.6804428
  68.8511658  83.5470772  56.1027002  18.5019426  20.9470343  55.0250101
  18.5047989  20.0031160  54.8661232  17.6733189  21.2499117  54.6536970
  66.5070295  69.2229366  45.0445652  67.3311996  69.2519093  45.5305052
  66.0941076  70.0679111  45.2227306  83.2619381  45.7841158  46.9063997
  83.6302090  46.2177515  47.6761866  83.3766079  46.4167929  46.1973190
  69.1930819  68.8168001   6.0420948  69.0778065  69.7120047   5.7234162
  70.1025486  68.7834072   6.3387239  21.6430454   7.6884436  51.2810898
  21.3585644   7.0345854  51.9196558  22.5725823   7.8182482  51.4690876
  59.4728926  75.1704256  72.6022706  58.8273505  74.6976034  73.1275677
  59.3672255  74.8178903  71.7186493  69.1165781  55.8247137  25.2358603
  69.1453171  55.0087452  25.7354593  70.0231791  56.1316586  25.2261424
  75.1810408  57.7455616  28.5873842  74.9708748  56.9833136  28.0479026
  74.5057821  57.7523804  29.2657733   3.8222914  11.2998175  32.6516080
   4.3490963  11.4624285  31.8691349   3.5564117  10.3834700  32.5751591
  11.9585475  45.0656033  35.1251221  11.6751250  45.3588486  35.9910965
  11.8006381  44.1215229  35.1283956  76.1916161  73.9854765  30.4742646
  76.0510635  74.7124147  31.0809231  75.8831358  74.3149090  29.6301389
  65.5401707  76.1750841  17.7911901  65.0160933  75.3809261  17.8955364
  66.4250422  75.8564329  17.6131511  66.9157457  54.6448278  14.3088269
  66.4332724  54.4162750  13.5143387  67.3857069  55.4470539  14.0812135
  68.8457441  74.9006987   8.5996771  68.5253572  74.2729712   7.9519594
  69.6825218  74.5384026   8.8908392  45.3432369  78.7163925  20.2050853
  44.8087311  79.4501114  19.9014580  45.8026218  79.0563440  20.9729552
  74.6613809   0.6216406   9.8183793  73.8648149   0.6340860  10.3490019
  75.3278371   0.2488684  10.3955376  62.6601934  58.3245516  30.0585580
  62.6632023  59.2087269  29.6918821  63.5823345  58.1329823  30.2294207
  50.3807878  58.0879593  14.1891718  50.0468922  57.9019070  15.0667429
  51.3259554  58.1822395  14.3075275   3.9964350  76.1298847  15.7185292
   4.0540751  76.9610739  15.2473247   4.9004992  75.9280968  15.9597266
  64.7347450  75.9208632  54.5804834  64.9695063  75.4186344  55.3607941
  63.8531494  75.6209898  54.3589020  89.1906548  37.9207349  10.0042546
  88.9785671  38.6834669   9.4662070  88.6173630  37.9986739  10.7668114
  63.6459351  83.0952740  66.9034815  63.5493135  83.9801979  67.2553539
  62.9315281  82.5992489  67.3032331  63.1034136  70.8214426  47.5468063
  62.9289532  71.6172028  48.0493593  62.4348497  70.8193779  46.8617916
  55.6722166  31.1268647   3.8247564  56.0711862  31.9969542   3.8247564
  55.3716184  31.0012133   2.9247072  22.8411083  14.9785780  38.7104654
  23.4415608  15.6664728  38.4232450  21.9842987  15.2588438  38.3886647
  68.1745338  78.4410286  47.1658993  67.8878212  77.6533318  47.6280260
  67.9476500  78.2775879  46.2504530   5.5857019  24.6301340  70.2490759
   4.6824532  24.3283724  70.1525879   5.6033831  25.0642561  71.1019850
  80.2380180  74.4832897  49.6861839  80.0830841  74.6069908  48.7497425
  80.8957100  75.1420307  49.9092007  67.7728197  22.9185080  31.1113262
  68.2025668  22.9636072  31.9654417  66.9144174  23.3173632  31.2537479
  66.6971990   4.7631048  42.4611473  66.2364050   4.1976999  43.0810070
  66.5986129   5.6442808  42.8217554  69.3974921  16.3698935  29.3296170
  70.2838155  16.0294985  29.2080092  69.2776653  16.3922190  30.2790260
  68.8063860  77.3467398   7.2313887  68.0710745  76.7414808   7.3273933
  69.5695686  76.7803097   7.1176320   0.7645302  19.1882490  13.2381499
   1.1821489  18.5324167  12.6798332   0.4642897  19.8640417  12.6303756
  47.7497816  76.6793394   6.1818117  48.4798431  77.2616816   5.9717572
  47.9566431  76.3404894   7.0528007  70.8076525  62.8246403  48.9947510
  71.0594606  62.3473883  48.2041454  71.2118721  62.3334408  49.7099876
   2.7457770  65.7004023  53.1908512   2.8261717  66.3329792  52.4769783
   2.5914153  64.8633718  52.7529144  26.4543705  14.0458464   9.3756467
  25.5532055  13.7535357   9.2389482  26.6246014  14.6451735   8.6489749
  61.7248487  78.9259958   5.6408501  61.0495424  78.2498312   5.6955689
  62.5390100  78.4690094   5.8518803   6.5363054   2.0015596  37.1380663
   6.2592487   1.6862558  36.2778020   6.9762831   2.8324293  36.9583416
  80.6239223  62.6599598  43.9120913  80.3445339  63.5400248  43.6597824
  80.0527382  62.0753098  43.4139204  30.9419804  16.0946631  24.3110013
  31.7428761  15.9083628  24.8010015  30.2553539  16.1256956  24.9771929
   5.1774721  24.7105097  32.9821706   5.6212740  23.9873194  32.5391531
   4.4754868  24.2916655  33.4801793  68.4545013   0.4031252  33.1806970
  68.3850476   1.3146090  33.4646106  67.7952215  -0.0597025  33.6977816
  61.7639780  85.5894089  38.9136004  62.6061726  85.4757214  39.3540716
  61.1410856  85.1108170  39.4605827  91.4539719  65.1254845  36.7054367
  90.7947731  64.5688009  36.2909532  90.9604645  65.8768511  37.0342755
  86.5355226   7.9107069   0.1292747  85.8909294   8.5711645  -0.1247532
  87.3779127   8.3604692   0.0635652  19.1994532  85.4543781  30.0387192
  19.2096385  85.2443218  29.1049075  19.1383608  84.6044445  30.4747486
  20.0295811  14.2075895  30.9254575  20.2307301  13.5462259  31.5875554
  20.2892475  13.8040613  30.0972247  25.5984573   1.7445921  42.1233702
  25.4509907   2.5497507  41.6271782  24.7995071   1.6307329  42.6380968
  84.2524215  16.0992121  27.1961999  84.5954582  16.1943125  28.0847454
  84.6174404  16.8434786  26.7175984  84.6574088   0.5346560  40.1755285
  83.7067052   0.4238771  40.1642179  85.0024339  -0.3371836  39.9829698
  18.4845333   0.2591585  25.7019997  19.0613728   0.6639551  26.3497853
  18.1297426   0.9955191  25.2038717  39.2642166  61.1353333  22.0092418
  39.3769886  60.2881367  22.4402549  40.0506116  61.2379391  21.4732483
  72.6639843  17.2667423  73.8128203  72.0552921  17.9929653  73.6774227
  73.5314703  17.6622501  73.7275225  83.5272789  48.3100414  32.0613790
  82.8829479  47.6364803  31.8437052  83.2053566  48.6949301  32.8765249
  76.5763378  52.7027130  33.1241632  76.3501358  52.9341364  32.2233248
  75.7355404  52.6649714  33.5800862  78.9530584  15.8405661  51.8171310
  78.0379506  15.8703398  52.0962715  79.0817138  16.6548704  51.3307333
  73.4944963  66.8473768  40.6763268  73.3818913  66.1097813  41.2759161
  72.8740406  67.5062656  40.9879875  25.1820592  56.7470304  74.1950300
  25.4150656  56.6006605  75.1118277  25.9973506  57.0337431  73.7835300
  58.9896154  68.7844276  31.7515969  59.8684692  69.0207624  32.0482278
  58.9674377  67.8290129  31.8056250  62.9140329  69.2594767  52.9669809
  63.5529613  69.4824219  53.6439562  63.4031582  68.7225771  52.3435020
  89.2608901  10.8199667  15.7653129  89.7004434   9.9939035  15.9668946
  88.4913799  10.8269476  16.3345528  22.4394112  17.8110670   4.7750801
  23.1059055  17.2757029   5.2056730  21.8429546  18.0635904   5.4798472
  31.6762333   0.6526064  57.4800587  32.0037823   1.4973330  57.7889013
  32.2908955   0.0120234  57.8379202  51.8790197  71.6482878  18.1397629
  52.1022558  72.5789261  18.1223536  52.0768356  71.3379574  17.2561359
  20.9683113  20.1405787  34.0000987  21.5256290  19.4224237  33.7002873
  21.3405304  20.3963446  34.8440576  61.6153288  74.2539692  36.4970899
  61.9887924  75.0899839  36.2180948  61.0291195  74.4823551  37.2184968
  55.9621791  33.2577411  58.9170871  56.2656573  32.6596109  59.5999977
  56.7408351  33.4327165  58.3885953  79.6562719  84.1073895  36.1552930
  79.9382019  83.2370949  35.8736062  78.7447739  84.1680622  35.8694315
  22.3984699  -0.1276327  59.2834473  22.2245674   0.6408857  59.8269320
  22.9238586   0.2069353  58.5566282  50.6936502  66.5195751  23.3772826
  50.8926868  67.3255873  22.9008842  50.3923035  65.9108925  22.7027988
   5.4690798  84.7562408  30.8221531   5.3346499  84.1109943  31.5162849
   4.5892390  84.9419880  30.4941297  62.0343161  45.9012556  16.3881862
  61.5471125  46.2176514  17.1489477  62.4746370  45.1098108  16.6979706
  77.1273136  79.2716551  43.5557270  76.8516779  79.9939489  42.9913235
  76.3152885  78.8132477  43.7718487  82.6505184  72.8653097   8.5641271
  83.4114456  73.3788681   8.8351977  83.0139923  72.1692944   8.0166966
  44.4510221  58.5436201  25.6285453  44.6958351  58.0467176  26.4091778
  45.1231432  58.3230686  24.9836874  71.8079349  39.6900057  22.1530652
  72.0663520  38.8504194  22.5332427  72.6289388  40.0796293  21.8524265
   0.5370121  31.7544436  59.7740841   1.1213903  32.1995806  60.3877592
  -0.0578566  31.2523912  60.3311348  58.5139418  78.2889414  46.7761278
  59.4625616  78.4037495  46.7198038  58.3752966  77.8491116  47.6149130
  87.0049688   5.0159620  47.0739269  87.1916505   4.0932535  47.2471380
  86.1828967   5.0060820  46.5836859   3.4668025  80.5640316  24.0588140
   3.5668334  81.4996433  24.2344666   3.8974627  80.4314899  23.2143044
  68.8724661  70.1986074  50.7619476  68.7710810  69.2480993  50.7120848
  69.8192739  70.3391314  50.7559967  85.2614307  63.0923653  62.6073122
  84.8153305  63.2973576  61.7856026  84.8838139  63.7002897  63.2429743
  81.8411350  69.0653372  51.0676479  81.5064716  69.1279650  50.1730490
  82.7309799  68.7271881  50.9673691  88.4860897  62.7346754  38.4876990
  88.4175110  61.8526602  38.8531899  89.1008663  62.6450586  37.7595186
  67.1095637  27.4251358  66.2274579  66.7314032  26.6401569  65.8311966
  67.2221831  27.1971122  67.1502552  91.3456600  44.3452580   3.0439546
  90.7730429  43.5858853   2.9358032  90.7939308  45.0949795   2.8209140
   6.4028339   2.0178293  39.9423957   5.5191116   2.1442007  39.5970082
   6.7907648   1.3550066  39.3710732  86.1388111  66.1076736  31.8704391
  86.6156292  66.7250156  32.4251986  85.7292557  66.6548491  31.2002897
  86.5070459   3.4283613  42.0577955  86.6546842   2.4827360  42.0423079
  87.1841976   3.7859320  41.4834785  59.4513988  77.4661160  40.0547838
  59.4839764  76.9861317  40.8823013  59.5501041  78.3843470  40.3064537
  11.4073353  21.7986654  47.3292875  11.5835314  22.4885534  47.9690075
  10.7019453  21.2835001  47.7207661  62.2682949  25.9428572  46.2053347
  63.0010578  25.8650755  45.5944014  61.5279409  25.5504965  45.7425594
  82.0474911  73.1674242  35.4663110  81.7221737  72.7377129  34.6752644
  81.6744804  72.6584101  36.1860323  80.4399681  49.8255444  12.1659780
  79.4956303  49.6877956  12.0919383  80.5867767  50.6899071  11.7818546
  67.7213812  81.0150909   3.5977972  68.1723928  81.8446541   3.7548074
  68.4060526  80.3511238   3.6790001  59.7061014  62.5981236  72.3602581
  60.1930857  61.8466282  72.0221376  60.3770065  63.2562685  72.5418234
   6.4741736   3.8236593  23.0271459   5.6351547   4.2338537  22.8173304
   6.5770989   3.9572405  23.9693737  79.3102264  79.8435450  21.4627361
  80.0008392  79.8982763  22.1232557  79.3846226  80.6608868  20.9701324
  91.1160871  22.6998400  34.4156528  91.1763688  22.6890253  35.3708911
  90.1774713  22.7524542  34.2354751  68.9225149  53.0882788  15.3507543
  68.1173134  53.5278225  15.0774693  68.6405039  52.4681234  16.0231423
  59.8143291  21.7158866  18.2504725  60.0322008  22.5385237  17.8122568
  60.6619930  21.3341665  18.4784937  80.2425119  24.4999193  33.0334806
  80.2892085  25.3461241  33.4784389  80.2647611  24.7177385  32.1016598
  85.8158370  -0.3046919  16.2924063  86.4912053   0.3480696  16.4768469
  85.3253528   0.0597452  15.5556238   1.2951164  45.9232019   8.0384040
   0.6577330  45.5621981   8.6545539   1.7934780  46.5576147   8.5535669
  41.4487914  30.0050918  72.4885068  41.8822411  29.1768591  72.2826311
  41.7581872  30.2254192  73.3671217   0.0949793  33.6050390  34.1801667
   0.9375219  34.0275263  34.3470621   0.3197031  32.7953028  33.7218451
  74.8563072  19.7339319  21.4784884  74.2192241  20.4179644  21.2724280
  75.6974956  20.0998949  21.2051630  76.8828174  16.7194342  22.2353697
  75.9986659  16.7104982  22.6020169  76.9701311  15.8714842  21.7999554
   5.0020437  36.8167662  35.3426027   4.4155054  37.4633764  34.9500489
   5.5578785  37.3250269  35.9333229  22.0489265  39.5220692   4.7829893
  21.4413978  38.8010151   4.6180036  22.8135730  39.3190606   4.2441681
  18.5304984  50.7132626  44.1520262  18.1126937  49.9612141  44.5716715
  18.3305129  50.6100607  43.2216597   3.9160498  78.9030552  41.3234520
   4.7190245  78.6459780  41.7766380   3.7185343  78.1639051  40.7482338
  69.0375519  84.3794441  26.5082049  68.3670998  84.7063637  27.1080756
  68.9867115  84.9629974  25.7511663  32.5303078  83.3458328  18.9819813
  32.6768422  82.4366856  18.7208259  33.3992457  83.6700439  19.2187750
  86.3554307  13.7595343   2.2915223  87.1718093  13.2714914   2.3990941
  86.3745996  14.4150423   2.9887834  70.7989502  63.3065033  10.5310071
  70.5353546  62.4642754  10.9016907  71.6022301  63.1143761  10.0472093
  90.3277561  36.2371897  38.4326935  90.6205388  37.1060919  38.7075090
  91.1335584  35.7264685  38.3547568  11.4005165   2.4788546  40.6411505
  11.8196230   1.9871782  41.3474321  11.9541149   3.2511400  40.5256701
  65.8216667  64.5717287  36.6890883  66.6258717  65.0892973  36.6490149
  66.0577822  63.8019609  37.2067189  54.0363216  77.0259905  57.3871946
  54.8888731  77.3510981  57.6764965  53.6342430  77.7716827  56.9416475
  87.4741479  37.5923418  48.1713820  88.1835004  37.4206041  48.7907028
  87.2047063  36.7249464  47.8692865  20.1595001  25.3023886  52.8811312
  19.4298058  24.6960806  52.7540207  20.1204948  25.8862661  52.1236324
  28.9285069  15.6306910  26.1619210  28.7212544  15.2984976  27.0353770
  28.1012325  15.9878706  25.8389950  23.3561306  11.1909460  21.1892343
  23.7680702  11.5463137  21.9767928  23.5096054  10.2476858  21.2434793
  73.3878279  58.4406185  30.5057859  72.9690075  58.2826424  31.3518739
  73.4113884  59.3940687  30.4245019  11.1408978  15.3966497  62.7095461
  11.4685803  14.6053862  62.2820473  11.8695478  15.6936621  63.2545996
  18.0321768  80.0017149   7.8608727  17.6505259  80.1874364   8.7188256
  18.1980637  80.8643771   7.4807060  79.0696950  79.0791650  53.5297012
  79.5285995  79.7786022  53.0644846  79.4606585  79.0760035  54.4034100
  11.4309863  81.3078923  40.2607584  12.2213105  80.8957482  39.9118257
  11.5042857  82.2258479  39.9995780  30.3045654   2.4790591  30.0119805
  31.1245108   2.8336221  29.6681714  30.1217246   3.0081692  30.7884121
   6.9603709  65.6274105  20.3209162   6.7806486  64.7300125  20.6012869
   7.4611786  66.0080040  21.0424256  81.4760776  61.0076285  28.8213229
  81.5528126  61.0838867  27.8702569  82.2819252  61.3987542  29.1587591
  74.6968050  66.5362442  12.8420031  73.9418490  66.5125419  12.2540319
  75.0249894  67.4328805  12.7743876  24.5905709  29.3514705  14.1881227
  25.4232645  29.2799973  14.6547532  24.8270345  29.6986818  13.3280277
   6.7259291  77.3362870   5.4855812   7.2266463  78.1419821   5.3576386
   6.1442402  77.2927243   4.7266525  90.5917783  79.2527557   8.8947338
  89.6580596  79.2232848   8.6860931  91.0282869  79.0376760   8.0704576
  25.3538322  37.8288007  30.0779867  25.1729131  38.4906316  29.4105434
  24.6000123  37.2399998  30.0419617  86.7585940  84.2216993  15.5363989
  86.3649197  84.0787346  14.6756935  87.5950665  84.6478161  15.3493941
  68.5671700  62.6758290  23.5910630  67.6354040  62.5081516  23.7322307
  68.7911106  62.1514250  22.8222442  75.7560156  30.7601659  56.4990125
  74.9431656  30.2610414  56.4191351  75.6125735  31.3324683  57.2527549
  58.0837611  82.8014047   6.0611099  58.1341723  83.6278612   5.5808389
  57.6647357  83.0314750   6.8903959  42.0424223  26.1044788  58.3174419
  42.4212694  26.3014746  59.1741180  42.7394962  26.3096881  57.6943731
  67.9831589  80.4687996  15.6672215  68.6788220  81.0012073  15.2814412
  67.8353805  79.7697438  15.0302637  31.1813092  26.3537097  31.0654140
  30.6695437  25.5952334  30.7842731  31.1750388  26.3058567  32.0213962
  41.8240781  82.1713451   5.0386071  42.7050741  82.0854125   5.4028773
  41.6338177  81.3103039   4.6662623  42.2538757   5.0763607  23.3818865
  41.5872478   5.1208794  22.6964259  43.0363703   4.7542959  22.9344392
  31.0747600   6.9041479  12.5438213  31.8311119   6.4373451  12.1884918
  30.9054971   6.4804870  13.3853042  15.9554938  45.7513691   6.0820347
  16.0503367  45.1003624   5.3867453  16.1175088  46.5895439   5.6490797
  79.7018702  81.2957049   2.5930053  79.9437637  82.0307590   2.0296094
  80.3584201  81.3016097   3.2895246  19.3854272   5.5385906  17.0302570
  18.7690639   4.8439842  17.2623134  19.9129283   5.1647562  16.3244081
  33.1794957  45.7952429   3.8603571  33.1465748  45.4097248   2.9848456
  32.7982882  46.6666532   3.7528339  34.0426135  19.6908164  21.3759422
  34.2815590  20.3840089  21.9912648  33.8421011  18.9368820  21.9305682
  60.9547281  37.1450305  13.7507582  60.0185442  36.9594741  13.6775911
  61.3164711  36.8901563  12.9019856  53.0473375  15.4855359  39.9163318
  52.7690792  16.2090826  40.4778290  52.9492474  14.7063124  40.4635239
  30.5038095   7.5018704  21.6798306  30.5279851   8.1974190  21.0226703
  31.0408592   6.8022245  21.3079357  34.0280179  63.1910563  23.2243133
  33.8579110  63.5862423  22.3692560  33.2730464  63.4397913  23.7575912
  63.5179658  45.2354456  70.8751678  64.1150395  44.8653961  70.2249384
  63.3320190  44.5091892  71.4703226  75.7687290  82.8909180  29.0862679
  76.4581854  82.9594518  28.4258246  75.3293939  83.7410204  29.0629792
  69.1345550  60.4676653  44.4369793  68.7195785  59.9107409  43.7782955
  69.5882858  59.8557521  45.0165653  88.1222672  67.6662386  38.7190509
  87.7410383  66.8227900  38.4751415  87.6711149  67.9080690  39.5278835
  56.5193510   3.3709392   2.8646657  57.3502302   3.0335665   2.5299209
  56.5510750   4.3099868   2.6818678  33.7630606  44.4674969   0.9861660
  34.6667814  44.7245932   1.1689753  33.6095977  43.7118864   1.5533841
  86.8749638  62.2814108  25.9889197  86.2369032  62.5576640  25.3310490
  87.3503776  61.5616179  25.5740547  25.1183963  35.4357815  11.5170264
  25.2310967  36.3093257  11.1422563  24.1889572  35.2414155  11.3962162
  23.5875872  68.4495343  41.0189390  23.5873393  68.3405722  41.9699144
  23.3652476  69.3706251  40.8833361  69.8274602  74.5610178  22.7340531
  70.4763288  74.1982378  23.3370376  69.0197844  74.0903092  22.9397798
  35.4051379  58.2215024  14.0937984  35.9050206  57.4188663  13.9450490
  35.3300980  58.2839347  15.0460076  20.8650184  16.3495708  32.1050453
  20.7112861  15.4483998  31.8213391  20.4368615  16.8868470  31.4385247
  13.9605522  27.3346829   0.4878623  14.6596253  27.0763803  -0.1128108
  13.3115888  26.6348243   0.4152141   8.6229399  82.2588719  27.0222163
   9.1777447  82.5300912  26.2908745   9.2162160  81.7966653  27.6143503
  10.6879119  76.7724789  19.0099633   9.8707799  76.3343860  19.2478836
  11.3622931  76.3062275  19.5039785  85.7220650  34.2684317  19.6871519
  86.2476158  33.7863636  19.0486836  84.9345875  33.7360954  19.7999620
  30.3263092   8.9189297  18.6349702  30.4533553   8.1090140  18.1408775
  31.2027884   9.1534162  18.9399767   5.1767635  14.0941203   4.0438280
   5.5931342  14.6699345   3.4024978   5.1538348  13.2375050   3.6173108
  61.8590973  75.9430759  71.0789940  60.9788273  76.1644714  70.7751167
  61.9027780  76.2992280  71.9663945   5.2151269  44.0167809  58.7693024
   5.1158357  43.2940674  59.3890285   5.5646062  44.7365284  59.2947149
   6.9560826   0.9163472  31.6283464   7.6991838   0.3890790  31.9216371
   6.2972379   0.2748205  31.3626409  49.1332494  55.1082103  71.9746301
  49.1897224  55.5394440  71.1219398  49.1168951  55.8273702  72.6061160
  25.9385085  29.6982002  59.6612740  25.2792025  29.2187858  60.1629829
  25.4316258  30.2625299  59.0774632  25.7430196   7.9857284  12.7527916
  26.5960765   8.2936394  13.0589259  25.9475636   7.3958796  12.0272064
  27.7162055  80.9186811  18.7481678  26.9613007  80.6196279  19.2550385
  28.4392098  80.9234090  19.3754470   0.8833458   0.5811261  20.1839042
   0.4799036  -0.2783022  20.3057623   1.5330234   0.6422016  20.8842063
  90.0290508  56.1190964  23.0472851  89.9581332  57.0228649  23.3545423
  89.8837109  56.1751057  22.1028423  60.7239102  48.8198941  70.0380663
  60.8894013  47.8777425  70.0726366  61.1826776  49.1149526  69.2514882
  23.3894757  65.9544493   4.3414494  24.1237143  66.4412559   4.7158059
  23.0024603  66.5562118   3.7055779  31.4197135  25.2186561   6.0010189
  31.7745495  24.3959904   5.6640536  31.5836763  25.8536458   5.3037852
  37.8732467  12.3757172  42.7763700  38.1831932  11.4849675  42.9398584
  37.1618032  12.2696304  42.1448421   4.0326221  46.8231537  52.7608201
   4.2148120  47.4584948  52.0684478   4.0991742  45.9718542  52.3282811
  20.9210948  10.6392280  58.2486424  20.6653050  11.2276689  57.5383339
  21.2364701  11.2212698  58.9400170  18.5827950  54.7888876  22.5524735
  18.3216885  55.3248716  21.8036246  17.9524354  54.0686346  22.5629044
  48.8229513  23.5319471   9.4847155  48.2598257  22.7690363   9.3539953
  49.5205021  23.2188964  10.0606120  -0.1976998  25.0844264  54.9115181
   0.3031350  25.3197169  55.6925678   0.2584434  25.5230665  54.1933537
  68.9480717  70.4839028  29.1664481  69.8139204  70.6021775  28.7758732
  68.8946207  71.1617220  29.8401952   2.8366688  81.4622433   6.5047550
   3.0696634  80.6152476   6.1245662   3.6759833  81.8997980   6.6473377
   8.1660748  11.9620264  23.9688611   7.7732259  11.9692993  23.0960202
   9.1037565  12.0709920  23.8103962  71.5691514  83.9156728  27.7004051
  71.4543815  83.0266191  28.0360270  70.7645984  84.0935093  27.2132707
  73.7540869  17.0191717  11.9727707  74.5160977  17.5948739  11.9084561
  74.1064850  16.1908674  12.2982860   8.3800939  64.8641039  27.6377034
   7.9174379  65.1865698  28.4111381   8.3751920  63.9119101  27.7353477
   4.5548728  20.5429792  35.3557277   4.3447676  20.3817153  34.4359016
   4.6602726  19.6700096  35.7339454  30.6812167  12.5243378  18.3573532
  29.8035455  12.4418950  17.9843569  30.5339432  12.8411758  19.2485082
  29.4922423   4.5407140  42.5165653  28.8647461   4.4530639  43.2340622
  29.5500016   3.6624813  42.1402645  86.4704798  79.3795388  74.4771289
  86.2481259  79.1975467  73.5640742  85.8272503  80.0317233  74.7548724
  27.1677184  11.8201423   5.1120299  27.5055099  12.3534203   5.8315742
  27.1517038  12.4135494   4.3611354   8.1754688  78.8007588  21.0950756
   8.7883381  78.1070293  21.3387179   8.0940918  79.3364675  21.8841434
  22.5666046  29.0232849   3.5060492  22.3921943  28.6497855   4.3699428
  23.3710551  29.5289683   3.6217064   3.9940122  82.9144467  28.8342857
   3.8384393  82.7830730  27.8989935   4.7015480  82.3059286  29.0471935
  37.3443317  42.5357962  37.6142859  36.8104553  41.7439318  37.5497746
  36.7610097  43.2413673  37.3347545  58.2616711  16.6500068  36.4149880
  57.5011826  17.2305703  36.3860154  58.5003662  16.5219688  35.4969144
  87.0711274  74.8904861   6.9582444  86.2833853  74.8487032   7.5004131
  86.8800826  75.5684103   6.3100523  84.4309233  48.3736335  42.1574161
  83.7098311  48.0003946  42.6643250  84.0257166  48.6581318  41.3382075
  35.9510684  12.6129556   0.4018867  35.7354641  13.0390108   1.2314788
  36.6013122  11.9502795   0.6348583  40.0993306  66.1521308  57.6483557
  40.7737500  65.7794564  58.2162533  40.4001481  67.0436447  57.4724529
  19.1712248  13.8283455  24.4934058  19.3156326  13.0904889  23.9010000
  18.2401490  13.7823761  24.7107005  43.6904192   1.5199344  20.4022717
  43.3066654   0.6964899  20.7037759  44.5378637   1.2688640  20.0347996
  80.7741494  59.4726659  10.0357103  80.7602079  60.3927542   9.7721356
  80.2712817  59.4490934  10.8498371  43.1439638  37.1917582  27.2270322
  43.0764389  37.4397945  28.1490684  42.6714945  36.3614440  27.1671462
  17.7082598  13.0694818  59.6180391  17.6589990  13.9531159  59.2533541
  18.5160244  13.0670118  60.1315975  45.4054308   5.3037947  23.1065536
  45.3164196   5.7127088  22.2456837  45.1548529   5.9902203  23.7248278
   5.9414537  51.6210829  63.2862470   5.4867847  52.4305223  63.5193047
   6.3117654  51.7950140  62.4208865  48.7858725   5.5351186  25.6696248
  47.9367304   5.4072946  26.0925388  48.5719681   5.8753878  24.8008943
  75.4639815  79.4732134  72.5478746  76.2813376  79.8568957  72.2301525
  75.7197617  78.9720099  73.3222145  36.2382579  41.0119104   5.4086190
  36.8176079  40.3256607   5.0774920  36.5725875  41.2056828   6.2843508
  37.9497337   2.6005241   7.8051054  38.6929560   3.0460003   7.3984045
  37.7713227   1.8573834   7.2287863  67.0656870  69.6167963  70.6687025
  67.2363614  68.9280098  70.0263027  67.8398608  69.6164577  71.2316302
  19.0467560  23.2132173  23.7316561  18.3253741  23.8040590  23.5154486
  18.7158549  22.3416948  23.5144329  35.6106997  37.0936060  21.3438511
  35.9074998  37.9938126  21.4771485  35.9912705  36.8378735  20.5036139
  88.8751145  56.7293930  26.1795640  88.3100951  57.4997139  26.2394714
  89.3579679  56.8495321  25.3618550   4.7831849  82.6805795  32.4578762
   5.1756362  82.2366346  33.2096243   4.1850713  82.0339240  32.0832705
  45.3323078   8.3985776  11.7730391  45.0739670   9.2126369  12.2052395
  44.5106363   7.9249734  11.6434860  39.6400670  67.9368664  34.3479466
  39.2653731  68.4997810  35.0254154  40.5855778  67.9923416  34.4863820
  51.4584255   5.6590319  42.1829939  51.5252447   6.5131122  41.7560148
  51.8531179   5.7906866  43.0450392  88.3668919  57.0765568  30.7204509
  88.2344813  56.1506439  30.9238863  88.8492436  57.0735289  29.8936725
  37.3746014  44.5012426   4.0445158  37.8583002  43.6818838   4.1490012
  37.5793767  45.0025797   4.8337919  26.7623496  26.4638209  39.4984055
  26.7996407  27.2027707  38.8911200  27.6135063  26.4704609  39.9362659
   6.8746379  49.4486214  33.1832433   7.3183325  49.1621018  32.3849487
   6.9949511  48.7242533  33.7972856  38.6898017  48.2281399  19.3859947
  38.7496352  48.6888504  20.2228928  39.4482088  47.6441813  19.3792963
  16.9553471  13.2658362  65.1822424  16.0708606  13.3361924  64.8231220
  16.8616486  12.6855946  65.9377337  80.2639389  43.1445312  20.2344441
  81.0919571  43.1823826  19.7557116  79.8232222  43.9656734  20.0159860
  42.7488327  14.6989429   3.7057886  42.5280285  15.5991375   3.4667769
  43.5085821  14.4866669   3.1636101  63.5135555  16.7941022  25.4963803
  63.5709572  16.9236255  26.4430380  64.3647671  17.0786464  25.1636577
  87.1820862  15.8685541  28.2628226  86.6928599  15.1714587  27.8258467
  88.0960313  15.5889547  28.2102847  16.3056878  74.3621541  14.0570557
  15.4440240  74.7015930  14.2990351  16.3968638  73.5560311  14.5650768
  39.1333573  34.1694431  69.1831139  39.9835460  34.5524352  68.9669475
  39.0821706  33.3801721  68.6439816  25.6852892  55.2693463  17.8088570
  25.4175023  55.1362349  18.7181437  25.1623658  54.6411134  17.3107541
   5.7958102   8.2134616  17.1814167   6.3653892   8.8875794  16.8107724
   5.4743725   8.5942960  17.9986525  20.9466593  50.2494227  65.9813795
  20.0725924  50.5642097  66.2119189  21.0098235  49.3905311  66.3991675
  23.5094479  67.3932482   6.9081444  24.2295769  67.2250105   7.5158793
  23.0815676  66.5435244   6.8026882  44.3511581   4.6911991  59.3781376
  44.6254063   4.5550162  60.2850389  44.2778873   3.8086057  59.0149689
  71.0408448  54.3544607  70.3761027  70.2736710  54.6344571  70.8753774
  71.3405894  55.1479392  69.9325058  47.7672577  11.0386217  28.2981825
  48.0273819  11.9347441  28.5115647  47.3804903  11.1029816  27.4249697
  23.5561204  32.7308416   2.3458847  23.8800883  33.6266351   2.4398540
  23.3776259  32.4454665   3.2419500  26.0294318   1.2976660  24.6788740
  26.5998363   1.0485902  23.9516664  25.7624984   0.4656722  25.0697255
   3.3996299  79.9899662  50.0896168   2.8911856  79.2037029  50.2883816
   4.2211798  79.8707504  50.5661392  11.3636950   2.9864971  63.7031493
  10.7250050   2.6650516  64.3395266  12.1152810   3.2537786  64.2322168
  51.6023874  30.7105398   4.0065315  52.4775267  31.0186768   4.2419323
  51.0080338  31.3163686   4.4491902  89.4577069  82.7776656  25.0779867
  90.0254650  83.3818508  25.5563617  90.0210328  82.0315731  24.8724627
  71.1790131  29.6932726  72.1821364  70.4631661  30.0226932  71.6387442
  70.7584761  29.4378428  73.0031947  43.2624149  42.5468874  11.5884876
  43.0004406  41.6596603  11.3426578  44.1786861  42.4617290  11.8519843
  20.7263756  15.8433485  13.3645904  19.8010147  16.0668850  13.2647491
  20.7955885  14.9517763  13.0232120  13.9242915  83.6700235  19.8385108
  14.7127131  83.9181989  19.3557763  13.2621697  83.5321563  19.1611481
  80.0152881  70.5429364  14.8219371  80.7416696  71.1547078  14.9416816
  79.6858461  70.3861345  15.7068729  38.4015608  40.7005072  18.7562919
  38.7970734  41.4932823  19.1186619  38.6354613  40.0107384  19.3773699
  29.3597293  18.1521595  15.6859076  29.8904538  18.1495619  16.4824975
  29.5636535  18.9872968  15.2649653   2.8214744  75.2818848   4.3778482
   2.2923926  75.2125693   3.5831779   3.3934334  76.0330082   4.2200267
  88.3611770  79.6371413  17.6473582  88.7289162  79.3581946  16.8087935
  88.6924620  80.5267561  17.7701056  44.4013166  21.2749958   4.0085807
  44.3819427  21.1083150   3.0662042  44.8733521  22.1031451   4.0956789
   6.5351633  78.0516816   9.0643442   6.2098173  78.8304950   9.5158213
   5.7456235  77.5668604   8.8239139  30.1513171  16.0301650  -0.0241568
  30.1222849  15.1773095  -0.4577756  29.5755768  15.9329414   0.7343298
  35.0904131  13.5196102  28.4861350  34.1952133  13.8553107  28.5325599
  34.9981356  12.6418316  28.1157017  49.4652653   7.4569166  33.7622571
  49.1589832   7.9131740  32.9785132  48.7217379   6.9174540  34.0312934
  39.0648799  45.6764146  68.8042942  39.8191832  45.3440194  68.3177016
  38.3229534  45.1728614  68.4693149   2.8176315  61.9398980  70.1502783
   2.5474412  62.8202443  70.4114643   3.7517650  62.0230286  69.9586526
  45.0901365  10.2049470  24.0065670  45.0437832  11.0657513  23.5905147
  44.6707344   9.6138340  23.3813310   4.8930362  77.9715354   3.1804195
   4.2440799  78.6324401   2.9389825   5.7046679  78.2723112   2.7717409
  87.4727963  23.2523387  57.7937302  87.0539855  22.4039452  57.6486120
  87.5099276  23.3413415  58.7460599   5.0533731  64.7657864  70.9632054
   5.1516063  65.3859608  71.6856790   4.7831351  65.3048914  70.2198539
  11.9002369  64.6151758  13.3305681  12.8142193  64.7942210  13.5514998
  11.9336108  64.2607523  12.4420297  57.3296928   2.9392120  28.4302998
  58.1541538   2.7530271  28.8795567  56.9312906   3.6427483  28.9426899
  17.1713694   3.4993845  53.8240910  16.4505633   3.5743412  53.1987619
  17.1302088   4.3077466  54.3350601  47.2443485  25.6067514  18.6919188
  47.6100779  24.7516298  18.4655607  47.8325129  25.9480953  19.3655467
  35.5566001  27.7954316  18.7381911  36.3780403  27.7004266  18.2560706
  35.7084012  27.3344088  19.5632041  48.3483171  15.6152821   5.0667793
  47.5044107  15.9697711   5.3467679  48.3959532  15.8196068   4.1328552
  40.6522989  13.8118422  10.8212709  41.2431717  13.9371729  10.0787163
  40.9526825  14.4426799  11.4755213  29.3865824  15.7702553  22.1186829
  28.7160277  16.4470482  22.2110915  29.9917054  15.9322345  22.8424358
  42.7374792   6.1985070  33.2715559  43.0424309   7.0991337  33.3815861
  41.8668699   6.2861478  32.8834939  66.7684555   1.4328055  27.6202655
  67.2756147   2.1601975  27.2598195  67.3694754   0.9985228  28.2255769
  80.2536006  70.7010115  34.7689056  79.6129579  71.2176467  35.2576756
  80.7122261  70.1929213  35.4380393  34.6902752   7.8038460  14.7583401
  34.5734859   8.4398365  14.0525723  34.9914789   7.0094144  14.3174469
  19.3782008  28.7084508  13.4620655  18.7183189  29.0294361  14.0766847
  20.0149059  28.2512403  14.0114272  40.8476925  34.2630911  31.8675160
  40.2511454  33.5491514  32.0925784  41.2688065  34.4934082  32.6956773
  86.5342994  69.1258074   8.6950862  87.0137997  69.0721739   9.5217878
  86.9856663  68.5115624   8.1161171  21.5826825  84.7996810   7.0845425
  21.1478547  85.2402490   6.3544351  22.4476031  84.5700134   6.7448443
  37.4597812   9.2633623  15.7614696  38.3185530   8.8829029  15.5770934
  36.8812871   8.5083008  15.8685184  78.1229110  85.5402427  40.2359343
  78.0922694  84.6952918  39.7872138  77.3630316  85.5300580  40.8179235
  44.5705891  21.5381813  45.4826355  43.6512804  21.7165661  45.2844286
  45.0362635  21.7555690  44.6750927  83.9033127   1.9022244  17.6488900
  84.1141033   1.5751249  18.5234213  83.3117962   2.6384819  17.8046930
  17.2788489  39.0086699   8.2897228  18.1967294  39.2459226   8.4217799
  16.7988372  39.5511103   8.9154851  64.5328379   7.2341108  25.7484937
  64.5237398   7.8686070  25.0318575  63.6161089   7.1588415  26.0133982
  47.3566103  28.6611032  17.0067024  48.1463146  29.0782332  17.3510873
  46.7486858  28.6520338  17.7460098  33.2825403  54.7564845  68.2972113
  33.8145827  54.1441779  67.7890334  33.6563273  55.6162016  68.1038174
  55.9378910  18.2664537  36.0670352  55.3977489  18.1154144  36.8427038
  55.4031086  17.9524124  35.3379154  33.2886910   7.8901672  10.2924025
  34.1891956   8.0322713  10.0006366  33.0291224   7.0679951   9.8766029
  21.8881869   8.0471700  19.8751557  22.4912858   7.9475534  20.6117558
  21.5709877   8.9475501  19.9453890  79.1752718  45.4691395  69.3664030
  78.5050725  44.9661470  68.9037279  78.8956545  46.3801663  69.2765341
   7.0833540  20.0984573  19.7365224   7.1598613  19.6473157  18.8957798
   7.0005268  21.0235977  19.5052433  42.9559469   9.8943794  45.7228565
  43.4303713   9.6568406  44.9261570  42.0506048   9.6373451  45.5481386
   9.2517812  38.2047426  70.5979991   9.5512492  37.4377434  70.1098767
   9.6558435  38.9472218  70.1488963  50.7175159   7.7481407   5.3627336
  50.1662445   6.9897205   5.5554283  50.8833170   7.6908326   4.4217458
  36.5643716   0.2424928  12.8481531  37.1695352   0.4580130  12.1385336
  35.7105970   0.1707936  12.4213529  45.7844353  11.9348311  43.9697599
  45.5795956  12.8481734  43.7695646  46.6435194  11.7896056  43.5733891
  69.4158481  77.3058908  64.1172716  69.5271729  76.9434111  64.9961612
  70.2100514  77.8187101  63.9673219  74.2248772  64.6025174  63.2145092
  73.8143729  65.4666727  63.1836459  73.8791941  64.2014878  64.0119490
  17.8349710   2.8947583  21.0382199  17.5180888   2.0411569  21.3334846
  18.2824349   2.7114791  20.2121329  32.8371096  13.2259202  38.9107037
  32.5279498  13.7530613  38.1739712  33.1780481  12.4275112  38.5075474
  55.2845764  23.7531686  63.1418562  55.5065680  24.5371509  62.6395416
  55.4714537  23.9898872  64.0503025  74.4839001  18.1264031   3.4463578
  74.8228359  19.0215683   3.4522924  74.1252041  18.0002832   4.3248004
  39.6531848  83.9827769  28.6669517  40.1728276  84.0011624  27.8632951
  39.3157939  83.0882252  28.7136030  42.8739071  20.5447388  16.3549244
  42.1408081  20.0207472  16.0320759  43.5814524  19.9130428  16.4836621
  87.1203752  80.5137456  20.4058218  87.3409862  80.1377339  19.5536602
  86.3920779  81.1077420  20.2242136  18.8843298   8.7895226  42.6157665
  19.5727539   9.4174308  42.3965979  19.1847873   7.9630458  42.2377539
  31.6509652  10.0336587  12.4376690  31.7669511   9.0873617  12.3522305
  32.5118780  10.3997433  12.2350764  20.4471350  56.8615770  32.5202346
  21.0506821  57.5791502  32.7127147  20.8103085  56.4464664  31.7379189
  89.9492569  25.7020140  14.0859592  89.5625294  25.1142764  14.7349870
  89.1988375  26.0753202  13.6236346  51.6183853  19.8741257  27.2856545
  51.7967319  20.8089352  27.1829176  50.6646633  19.8172450  27.3440099
  12.1947411  80.2993722  30.0179505  13.0854586  80.6498338  30.0127745
  12.3039654  79.3706233  30.2222228  42.1071863  46.3416576  26.5255380
  42.5501871  47.1817589  26.6447449  41.4459896  46.5125942  25.8548403
  83.1242413  83.8386839  22.6709867  83.4941907  83.1943835  23.2745147
  82.7452440  84.5092306  23.2392812  19.8127747  10.5304289   7.9428136
  20.7044315  10.8629942   7.8399497  19.8314333  10.0463891   8.7683982
  67.9723157   5.6084339  66.9234661  68.0791802   6.0320083  67.7751688
  68.6935742   5.9491197  66.3943592   4.3564803  34.8192643  67.8960112
   3.5867936  34.5541935  68.3995536   4.3780286  34.2138104  67.1549353
  57.8212404  20.3671813  22.5643969  58.0092764  21.2216616  22.1761489
  57.8192329  20.5280519  23.5079813  49.4264269  25.9238029  25.5295944
  49.0806961  25.2805972  26.1484551  48.9311695  25.7719874  24.7246695
  17.7904141   0.2737756  15.6909525  17.3980570  -0.0785122  16.4898157
  17.4261785   1.1556121  15.6139541  76.8489618  62.6594687  42.7486467
  77.5300748  62.1319557  42.3314571  76.6340346  62.1825791  43.5502815
   0.2647001  20.3396988   8.6873353  -0.6249601  20.6711626   8.8092762
   0.7161983  21.0355878   8.2097155  45.0278282   5.7183039   2.0093985
  45.8737230   5.8698851   2.4309641  44.9498367   6.4246154   1.3680926
  14.1128027  13.3920646  13.7837756  13.5347700  13.0190778  14.4493520
  13.7982869  14.2887604  13.6686790  77.8440491  19.7045314  38.3808327
  78.0755714  18.8103330  38.6319041  78.3721737  19.8789191  37.6017904
  36.2491322  30.2346468   3.5923436  35.8626580  30.8565164   4.2089066
  35.9941602  29.3751073   3.9276227  79.0698288  37.4591540  50.9597204
  79.0080641  38.3570300  51.2856576  78.9112519  37.5344871  50.0187585
  10.0061778  42.2241474  18.0804050  10.4288748  42.1868683  17.2224009
  10.5279139  41.6394068  18.6300445  74.2139290  45.0451935  59.0582023
  75.0812005  44.7740001  59.3590817  74.0044497  44.4355850  58.3505807
  55.6508017  23.8907647  14.0156090  54.9248457  24.1303158  14.5916605
  55.7361841  24.6325803  13.4167337  51.5742016   0.9596837  52.5782919
  50.7105398   0.5489961  52.6189423  52.0043564   0.5395982  51.8334913
  40.9828091   5.3123593  20.9804916  40.8198786   6.2162590  20.7109547
  41.6927576   5.0167471  20.4105616  49.2666054  17.0038378  32.4235845
  50.1321220  16.9825983  32.8318238  48.8075972  17.7140391  32.8720927
  73.7928016  71.2695230  12.9984319  72.9485507  71.7205454  13.0055404
  73.5690398  70.3412975  13.0659604  45.6854057  18.3753181  69.1453886
  45.0869513  18.6112201  68.4365606  45.9878969  19.2144287  69.4926929
  29.0282822   9.4264281  62.5179148  28.7446594  10.3275168  62.3635530
  29.4811344   9.1765618  61.7124844  45.2543116  26.4903617  15.0324178
  44.4215631  26.5040636  14.5606422  45.0186396  26.6828918  15.9399545
  57.3129892  17.4209309  41.2717962  56.8005848  18.1713605  40.9709167
  56.8444824  16.6589200  40.9311056  30.7739282  41.6535568  15.3501856
  31.5912819  42.0422077  15.6618214  31.0494852  40.8859968  14.8490345
  67.2505665  19.4381583  39.7642183  67.1480083  18.6453414  39.2377639
  66.6473246  20.0676727  39.3691969  33.6586073  79.3581201  30.5714655
  34.2558602  78.8638122  30.0100517  32.9190472  78.7672276  30.7133198
  17.4774659  49.3162203  15.9090292  17.8164744  49.1592264  15.0277472
  17.2823513  48.4432077  16.2496364  78.0872917   7.8036153   6.3081861
  78.4744930   7.6101476   7.1619296  78.3909035   7.0946181   5.7412863
  27.1117858  83.4241630  15.2055228  27.5074462  84.0427039  15.8196008
  26.5935687  83.9711095  14.6151531  71.3636017  29.2542577  12.8343546
  71.0349369  28.3591270  12.7509832  70.5911207  29.7731233  13.0585980
  54.2706440  61.0491281  64.9535534  53.3672045  61.3435893  65.0689599
  54.7075676  61.2910430  65.7701359  36.9520092  53.7226343  16.0316789
  37.3674440  52.8609562  15.9977114  36.0605764  53.5470438  16.3329184
  74.5559405  53.3300047  64.6089122  73.6833666  53.3176200  64.2156038
  74.8927830  52.4444913  64.4724009  48.7291622   3.7256742   3.7941831
  48.8127375   3.6738166   4.7463167  49.6153164   3.5706702   3.4671709
  75.5069883  75.1043821  21.9065404  75.8251281  74.6857763  21.1066723
  76.2769480  75.1549018  22.4729705  23.5260701  38.7829232  12.5860381
  23.2611322  38.7493777  11.6668451  22.8632593  38.2671905  13.0453146
  49.2787313   2.6814988  25.0687051  49.2971468   3.5270131  25.5170321
  48.5186386   2.7341366  24.4892883  19.0048770  76.9821174  25.7256103
  19.2683152  77.4144585  24.9132586  19.3739775  77.5293858  26.4187860
  31.1799622   6.3396537  15.1455641  30.6596351   6.3270098  15.9488904
  31.4615631   7.2501874  15.0569034  49.7146368  24.3455958  17.3934853
  50.1713753  25.0288057  17.8842461  50.1866484  24.2913771  16.5625238
  63.8011955  25.6198077  60.8335004  63.1297897  25.2908199  61.4311740
  64.4476412  26.0348229  61.4045534  79.2517851  28.4274142  47.9311821
  79.5737599  27.5290005  47.8575799  80.0213717  28.9377515  48.1832287
  24.0461520  71.7381884  35.6136584  24.1971711  70.8248461  35.3702855
  23.7701729  71.6995574  36.5293956  68.5370827   7.9265893   8.9372081
  69.0457344   7.1455872   9.1552472  68.6358452   8.0199331   7.9897034
  10.7202605   4.8801557  67.1929083  10.4305771   5.1871673  68.0520127
   9.9176530   4.5911876  66.7586813  50.0313473  21.7126346  52.0841837
  50.3621197  20.8278775  51.9291735  49.6293449  21.6694593  52.9517984
  61.1517096  32.2102809   2.3634727  60.5208826  31.6617346   1.8972240
  61.2831116  31.7654300   3.2007730  77.8193827  63.9570642  22.8945947
  77.4831552  64.3113805  23.7177849  77.0669134  63.9701653  22.3031116
  34.1430187   7.7498358  54.0742683  33.9668512   6.8217903  53.9195824
  34.9227667   7.7563232  54.6294117  36.6908768  50.6386043  13.5415602
  37.3850945  50.8343149  14.1708362  36.6590289  51.4080430  12.9730690
  34.3977145  80.3422386  17.0001101  33.8019351  79.7575987  17.4685907
  33.8364247  80.8121944  16.3834059  47.9145384   1.1707198   3.8604674
  48.3549976   0.7592199   3.1168985  48.1928349   2.0859639   3.8271371
  57.9617310  13.0718458   2.6902831  58.0765820  12.6584876   1.8346106
  57.2562790  12.5743306   3.1038624  29.4873742   6.1387197  62.5716016
  29.4572857   5.1839010  62.5112448  30.2700118   6.3853208  62.0787487
  56.4859009   3.0561444  36.7996144  56.8681192   3.9305079  36.7245984
  55.5739594   3.2135716  37.0441842  73.5737128  77.1785201  18.2265878
  73.6022015  76.8518973  19.1258860  73.3145304  76.4194752  17.7041817
  42.7677631  47.8865719   1.2962027  42.8107595  48.7961531   1.0011730
  41.8332338  47.7174759   1.4157562  90.7902355  77.5623561  45.9716892
  90.0177021  77.5751902  45.4066610  90.9478850  78.4825797  46.1827993
   5.1647810  80.3068907  37.7176404   5.5539731  79.8718638  38.4762645
   5.8252767  80.9419579  37.4407554  90.3843497  44.8722571  54.4889352
  90.4542826  44.1604618  55.1250872  91.2688778  45.2343145  54.4364188
  26.7973781  23.5026217   8.5256982  27.3345375  23.5390711   9.3171287
  26.6375685  24.4195557   8.3022547  72.4258581  40.4497910  14.7111762
  72.3247126  39.5269275  14.9442482  72.9443446  40.4382038  13.9066446
   4.3077285  76.9848244  60.9836743   4.7194774  76.8704646  60.1271603
   3.7394054  76.2206738  61.0801599  47.9998827   3.2678172   9.6420652
  48.1128263   2.5307336   9.0419126  48.8918734   3.5416755   9.8555917
  33.0358744  20.9001207  18.5595465  33.0487299  21.8315363  18.7798488
  32.1656609  20.6030846  18.8254988  57.8288364  16.3168764   8.3766741
  57.1708965  16.7854691   8.8902581  57.3528481  16.0011530   7.6085687
  80.6315039  67.7985089  73.7493746  80.2054022  67.0313756  73.3670439
  81.2120675  67.4402540  74.4208138  87.0575712  67.3163176  18.0122411
  87.3417313  66.4420891  17.7453959  87.7609853  67.6344728  18.5781193
  21.3848329   9.3508577  35.8299255  21.4931631  10.2697372  35.5846572
  21.7743778   8.8619465  35.1050448  48.1038979  81.2865112  57.8287268
  48.6987952  81.6577632  57.1771908  47.5654772  82.0260982  58.1104088
  45.1040506   7.7239460   6.6640270  45.1379919   8.5533941   6.1874813
  44.2861557   7.3169011   6.3783801  42.8307104   3.0811965  11.5016067
  42.1699476   2.8803053  12.1643794  42.7595663   4.0268254  11.3713920
  56.0569668   8.7594116  25.5355382  56.7942381   8.5141432  26.0945582
  56.3235331   9.5880759  25.1374316  53.0915023  67.9338873  32.5352478
  52.1973569  67.8776015  32.1982503  53.5606838  68.4549678  31.8836522
   0.2085498  81.0636632  24.0151453   0.9559420  80.9666927  23.4250307
  -0.5436727  81.1718149  23.4331679  60.5529976  34.8218441  30.7902598
  60.8153963  35.7423496  30.7971716  60.3896952  34.6262622  29.8675942
  37.7112746  10.9117877  35.4517245  37.8577995   9.9659258  35.4413176
  37.7741385  11.1740148  34.5332932  85.4132842  51.9133477  67.6917175
  84.9462412  52.6119291  68.1500695  86.1010169  52.3655586  67.2030852
  41.0353327  26.4381957  23.1953740  40.7801104  27.2636676  23.6073065
  40.6899261  26.4981461  22.3046827  42.8787661  83.5662365  10.8097410
  42.2446108  82.9167747  10.5059540  42.3464966  84.2444134  11.2256753
  69.6437311  44.6814203  42.9540110  69.3601131  45.0995445  42.1410131
  70.0560093  45.3856373  43.4543514   1.7308262   0.6066267  73.2991096
   2.2810391   0.7029573  74.0764245   1.9996337   1.3238327  72.7250141
   1.6679248  16.0228431  20.2670884   1.1270960  16.6547918  19.7934020
   2.0340403  16.5210962  20.9977961   6.5902289   7.6396465   5.1720512
   7.0468482   8.0234021   5.9206933   7.2462233   7.0847541   4.7501481
  10.8602484  51.4808226  26.5017200  10.2442797  50.7622576  26.6448259
  10.3847083  52.2631598  26.7810893  28.1963948  11.9187299  64.5995591
  27.9056290  12.7915517  64.8638854  28.8591221  12.0802108  63.9280305
  71.3570450  58.9775090  66.8644461  70.8267783  59.7723215  66.9221142
  71.7393874  59.0077786  65.9874466  64.6993230  62.5156395  72.0397443
  63.8433836  62.3103254  72.4158386  64.9985384  61.6894548  71.6601128
  74.3246745  79.0575211  45.1035473  73.5812472  78.9647024  44.5077822
  74.3128775  79.9798195  45.3593943  40.4825258  28.8146806  24.9707961
  40.3405285  28.1113124  25.6043100  39.6089578  29.1706443  24.8083186
  50.5840758  75.3347243   4.6524370  51.4387110  75.7629908   4.7016442
  50.5708674  74.7396232   5.4020458  77.2136210  70.8958190  73.7392208
  77.6437377  70.3672855  74.4114465  77.6500891  70.6480973  72.9241370
  19.2914179  22.4294654  68.0513838  19.8545006  23.0834428  67.6372812
  18.4461812  22.8680984  68.1484047  13.0879402  17.8994381  49.6458054
  13.1303513  17.5947750  50.5522346  13.0380261  18.8527811  49.7156477
  55.4854679   8.9840686  51.2526798  54.6662951   9.1733277  51.7102528
  56.0484743   9.7326255  51.4499569   3.3778337  77.8558827  26.2746119
   3.3176187  77.4580217  25.4061007   2.6385239  78.4627337  26.3118434
  54.2040682   5.1820588   7.6507688  54.0376043   4.8808730   8.5439700
  54.1953373   6.1370945   7.7145052  45.5874872  15.0794125  19.0905523
  44.8680830  15.4960966  18.6161435  46.2449408  14.8992622  18.4185958
  22.9218653  12.9197303  73.8357286  23.6700276  12.7071134  73.2778062
  22.6714114  13.8055078  73.5732365  37.0080113   3.9826187  66.6817379
  37.3067665   3.1834996  66.2477016  37.7777195   4.3011856  67.1532249
  62.7722858  84.6522396  70.6223059  62.9283665  83.7086980  70.6622446
  62.9001092  84.9544256  71.5215150   5.5701071  11.4307940  25.5163431
   5.0259417  11.0642779  24.8193645   5.8719677  10.6685650  26.0104299
  12.2780800  35.3615737  22.4434686  13.0220580  35.9064198  22.1868134
  12.6123011  34.8219085  23.1599092  48.3155155  13.5715628  35.8180046
  47.8407240  13.4191477  36.6350555  48.3797503  12.7064788  35.4133606
  19.4559908  27.8588343  20.7629800  20.2344847  28.0537081  21.2847137
  18.9564240  28.6753273  20.7640076  77.5018866  76.6032607  26.3547707
  77.2532804  77.3009742  25.7484508  78.3684916  76.8584264  26.6711855
  50.4296017  17.7250421  15.2001035  49.8066950  18.3279490  14.7942436
  51.0491657  17.5146008  14.5014715  42.5406265   9.1431588  25.5535173
  43.4828758   9.2367238  25.4133391  42.1483517   9.3873799  24.7152400
  25.8960891  24.3975306  30.8965588  26.2876725  23.6295962  30.4804206
  25.4039264  24.8249459  30.1956153  64.7535276  47.7897024   4.3666875
  64.0571976  48.0636501   4.9636048  64.8499393  46.8507862   4.5259860
   3.8160351  28.7638036  53.1280300   4.4454983  28.0608837  52.9670546
   4.3359855  29.4660942  53.5187552  43.2355118  34.7828245   0.5485310
  43.2926702  33.8464665   0.7387985  43.8000202  35.1950097   1.2024900
  45.5400753   7.4272656  38.2117653  45.3041983   8.1883889  37.6814032
  45.2821016   7.6664221  39.1019821  70.7540894  12.6682615  55.6368732
  70.7027674  12.0319998  54.9235916  70.0084114  12.4583948  56.1991501
  32.4823546  79.1327810  18.5885882  32.2026229  78.3409405  19.0479040
  31.7344618  79.3679762  18.0394340  63.5006475  41.2065840   8.8671529
  63.4500122  41.0522509   7.9238349  63.1106949  40.4251480   9.2589712
  69.8881386  81.2121694  70.2386332  68.9911245  80.8784168  70.2243460
  70.2645277  80.8530872  71.0421393  62.1676826  24.5163012  23.2391787
  61.7828798  24.6968055  24.0968370  62.2125292  23.5612702  23.1929851
  23.5900552  46.6889163  67.9949204  23.5403115  45.7363813  67.9147062
  23.4591539  46.8578647  68.9279548  34.5382166  23.5503745  25.5567026
  33.7455416  23.2347989  25.1227546  34.6775317  22.9359674  26.2773442
  45.8355999   9.9469203  30.2313733  46.2948036   9.1352761  30.4472351
  46.4852190  10.4728508  29.7648716  53.6836767   7.3194325  34.4677877
  54.3423033   7.3534459  35.1615334  53.7649965   8.1609076  34.0188575
   3.2554678  66.6853453  38.8767958   3.1160740  66.4285625  39.7883129
   2.7253178  67.4746622  38.7665653  47.5014114  26.2696624  23.3757377
  48.0944729  26.7727542  22.8176951  46.7182255  26.1431313  22.8401613
  65.7303238   2.2066660  43.5771561  66.3586473   1.9303901  44.2443275
  64.9791336   1.6264215  43.7006903  44.9229383  49.7667027   6.2960273
  44.4499636  49.4616079   7.0702648  45.7441711  49.2751122   6.3078833
  41.9650364   7.1615624  36.8272901  41.9808817   6.8884653  35.9100127
  42.5181484   6.5227473  37.2769737  58.6372451  12.7105276  60.7547531
  58.1429381  12.0666830  60.2474520  59.1719424  12.1863023  61.3510046
  64.7565125  85.8517759  69.1926495  65.4451178  85.6233280  69.8170415
  63.9693283  85.4325359  69.5402280  70.9335327  42.6943779  11.6573572
  70.1751709  42.5211287  11.0995877  70.6158590  43.3237505  12.3048198
  70.6895876  38.6378098   5.9112781  71.4143658  38.7438726   5.2951014
  70.8060980  37.7575970   6.2688833  68.8506842  16.9503915  18.8228333
  68.1562757  16.5843379  18.2750773  68.5715199  16.7646825  19.7193885
  61.8505192  13.9216101   8.2124579  60.9299374  13.7244511   8.3853352
  62.3068190  13.0959177   8.3744836  35.7527709  11.4499271  15.5375004
  34.9598503  10.9257662  15.4245162  36.4530325  10.9055817  15.1775670
  12.4452972  55.8464670  27.7539802  12.0908582  55.0902414  28.2216573
  12.4050415  55.5974579  26.8306136  75.9201479   4.9492493  26.9388914
  75.1727581   4.9909043  27.5354671  75.6895876   5.5429125  26.2243009
  36.7887221  42.0515137  73.4671994  37.4449883  41.6497021  72.8979074
  36.2270330  41.3244017  73.7356114  26.8535447  14.3619049  18.7348855
  27.2910404  14.1891873  17.9012191  26.1006880  13.7707782  18.7372684
  42.4839401  38.4560585  24.8439550  41.5573311  38.2188749  24.8069072
  42.7888203  38.1011248  25.6789994   7.1365840  65.3861587  67.5275526
   7.8952272  65.5328100  66.9625870   6.4429481  65.9203475  67.1405885
  74.0762615  15.3042805  45.0325394  74.0082216  16.0700059  44.4622183
  74.3077278  15.6634140  45.8890915  90.2359770  83.5042779  70.5170709
  90.1938723  83.2780998  69.5879302  90.5456828  82.7056043  70.9441984
  31.6815877   2.0921491  26.8903279  31.0523868   2.4824078  26.2836695
  31.2397289   2.1118912  27.7392125  75.9681320  16.1994517  18.8008046
  75.4287672  16.5599751  19.5046079  75.3512859  16.0313809  18.0884266
  38.4462667  33.0071688  24.2153978  38.1473017  33.4887671  23.4440875
  39.2516994  33.4524727  24.4784856  49.9470997  21.4623404  19.3968213
  49.7561073  22.3345590  19.7417641  49.0984726  21.0198259  19.3812430
  51.5811300  19.7495985  34.1813588  51.0131168  20.0711560  33.4812212
  52.4428034  20.1126027  33.9764643  49.0357208  28.0334115  21.8442345
  48.4651423  28.6585283  22.2913384  49.9169874  28.3889985  21.9589424
  87.4895925  76.8718017  58.7803411  86.5803404  77.1570213  58.8705969
  87.9056568  77.5590480  58.2599449  85.5282115  83.9606731  67.2629950
  86.3639067  84.1317956  67.6972285  85.6939410  84.1533487  66.3401500
  15.9622073  72.9938936  42.7958155  16.6577804  72.7929306  43.4219360
  15.2020621  72.5100899  43.1188393  85.7721041  71.2553661  42.6446483
  85.9909295  71.0268014  41.7412612  84.9488209  70.7976716  42.8148076
   5.9059292  66.3630676  43.2704782   5.4104364  65.6906176  43.7379551
   6.1525661  66.9930220  43.9476490  31.1083412  49.7883892  11.5652084
  30.3771687  49.6142149  12.1579003  30.7381964  49.6781778  10.6893802
  39.8236799  62.3358202   4.6740773  39.2870641  63.0389595   4.3081963
  40.6914616  62.4746227   4.2947033   1.2064484  68.4094978   7.9119176
   1.6720751  68.1113065   8.6932665   1.7448763  69.1232515   7.5700343
  15.7723784  42.9119301  23.5951543  16.6456842  43.2682467  23.4320378
  15.1747346  43.5759878  23.2515216  41.7402962   1.8640749  59.6876571
  41.8219784   1.5943233  60.6024215  41.1629561   2.6271192  59.7135994
  47.0493841  70.7877922  35.2610612  46.2110567  70.9179926  35.7043242
  47.6206827  71.4636755  35.6257915  33.2703114   7.6592201   2.4754548
  33.9187860   6.9584000   2.5430074  33.1526160   7.9641664   3.3751142
  30.2854306  82.3145740  41.0655258  29.8359449  81.8947499  41.7989752
  31.1957986  82.0306771  41.1483476  33.8520336  45.3549576  17.0863783
  33.4725237  44.4895172  16.9340253  33.9295721  45.4182816  18.0383289
  20.3935460  76.0941870  15.8693528  20.3727845  76.9866962  15.5240595
  20.7263402  76.1902798  16.7616796  76.1503361  80.2144401  62.4201331
  76.5436362  80.5513995  63.2251212  76.5598963  79.3586056  62.2934768
  58.3874893  20.6755328  35.6463313  58.6473989  20.1038361  36.3687181
  57.8043842  21.3194323  36.0483456  54.1881418  11.5582430  49.5912552
  53.4987402  11.6925967  50.2415705  54.8608637  12.1998560  49.8193169
  64.0572405  56.2194967  13.9375949  64.1008759  56.5003777  13.0235755
  63.2744837  56.6487360  14.2829597  51.2125015  70.7371473   7.1495026
  52.0816040  71.0474110   6.8952847  51.3548899  70.2772379   7.9768127
  89.1940497  66.4637368  74.4571988  88.7920807  67.3311727  74.5041777
  89.9133395  66.5665047  73.8340689  38.0181241  48.5539341  24.6530294
  37.3906517  48.5336304  25.3755927  38.6170793  47.8299284  24.8355293
  66.1551285  38.4178114  11.4168477  66.8154478  37.8946066  10.9624588
  65.5676508  38.7171793  10.7229614  33.0820203  15.4895520  28.4587812
  32.6123118  16.2489033  28.1138277  32.7660084  15.4006171  29.3579245
  65.8376551  37.6520467  20.0972033  66.3175678  37.6426673  20.9253526
  65.7051086  36.7277336  19.8867095  30.8903527  44.2379904   8.5806268
  31.4437151  43.5746002   8.1683898  30.3049493  44.5295954   7.8816974
  32.2284102  27.5981688   4.3159059  31.5944457  27.5524139   3.6002043
  32.2354126  28.5207105   4.5710549  40.9401226  22.6323533  53.1101418
  41.0189342  21.7230892  52.8215933  40.6487989  22.5705552  54.0198374
  63.1377268   4.0627202   5.1175809  62.4161482   4.0812239   5.7462412
  63.7678671   3.4484941   5.4942542  45.2526283  38.9461160  19.5092273
  45.5568027  38.0854702  19.7973239  44.9220228  39.3621564  20.3053689
   0.2734914  29.5410252   6.7568970  -0.3217041  29.6444774   6.0144198
   1.0856890  29.2150831   6.3691747   1.6807611  75.9243124  72.8585040
   1.6681630  76.4799683  73.6378105   2.0245130  75.0861137  73.1675230
  51.6354322  23.4086013  14.7276211  52.4071884  23.7299967  15.1938033
  51.1700964  24.2010617  14.4598532   3.1147313  29.3004417  47.4044323
   2.4122357  29.9289203  47.2378540   2.7619812  28.7201595  48.0790234
  24.6917534  23.0730271   1.5467152  25.5577850  22.6801586   1.6556838
  24.5492697  23.0799651   0.6002045  28.6943872  42.7006403  70.0541741
  28.6996133  41.9894020  69.4135926  29.3748147  43.3014980  69.7504875
  76.9120787  39.0676622  70.6234944  76.9224309  39.8990344  71.0977778
  77.6229476  39.1459923  69.9872855  74.0059301  68.5820015   0.9372070
  73.1759330  68.8550003   1.3281181  74.6673128  69.1061266   1.3889768
  76.7845937   2.9472326  15.1072657  77.4512216   3.4816526  15.5388176
  76.3027355   3.5641455  14.5563889  19.9058322  81.3359917   2.3052889
  20.0800923  81.5144474   1.3811573  20.5180768  80.6365670   2.5337553
  48.4997368  22.8133440  24.3647337  49.0210009  22.0357203  24.5642829
  47.7810717  22.4873996  23.8229680  89.0089798   3.4862852  20.1904655
  89.3997288   2.7036434  19.8018563  88.9952469   3.3056656  21.1303687
  43.0585241   9.0573978  33.8928604  43.8915110   9.5238453  33.9620781
  42.3941088   9.7306401  34.0395880  23.8236213  79.0827274  38.5929632
  23.3500767  79.2100191  39.4150233  23.5392046  78.2227802  38.2833982
  10.8160973  49.2521620  54.2391109  10.3574634  50.0819683  54.3706608
  10.8281446  48.8452005  55.1054049  78.3987904  54.7093534  26.7092752
  77.6210737  55.0704956  26.2838745  78.2009268  54.7505331  27.6448965
  14.1897781  82.5490396  66.7741970  14.1975743  83.5053794  66.7343787
  14.4926984  82.2708552  65.9098575  26.9279742   6.9480854  24.9942827
  26.0077405   7.2114980  24.9982882  27.0822406   6.6301954  24.1046882
  41.2196779  60.4370117  17.5895953  40.4289389  60.8481598  17.9387653
  41.1037874  60.4631329  16.6397965  56.4153169  72.8215282  68.7951258
  56.1781214  73.0113118  67.8874073  56.6573356  73.6717646  69.1622177
  14.7170794  23.2099652   8.8704312  14.9261808  24.1337395   9.0088052
  13.9354944  23.2214570   8.3179605  82.4587059  31.4671278  32.5656748
  83.3928013  31.3909888  32.7603507  82.0271111  31.3457680  33.4113908
  24.0250134  15.8142745  15.8071673  24.6451807  15.9655285  15.0939023
  24.4624996  16.1643910  16.5832198  51.1291361  63.3379936   5.6689095
  51.2646055  62.9549837   6.5356177  50.6820488  64.1667843   5.8405256
  43.2826900  12.3004699  23.2911754  43.6591768  12.5730538  22.4544048
  42.3381567  12.4010515  23.1729507  20.9395909  21.4794588  24.3585777
  21.2489891  21.3445234  23.4628677  20.4289985  22.2880030  24.3163562
  54.4811440  34.8556113   2.0062979  53.7605810  35.0340891   1.4020047
  54.0550423  34.7116232   2.8512445  21.3429669  83.1567324  19.1175199
  21.9706038  82.8988431  18.4423947  21.6795996  82.7607376  19.9213231
   1.1562974  16.8873971  62.9367373   0.8597905  17.7576010  63.2033048
   1.4267642  16.9954126  62.0249197  37.6878858  18.1019700  26.3878202
  37.6736784  19.0354002  26.1763048  37.4489808  17.6672220  25.5691934
  38.9598060  12.0687282  37.6773882  38.4575582  12.1653426  36.8682861
  38.8347387  11.1537290  37.9291153  53.1992817   2.6703465  16.4586246
  53.6869669   3.2657439  17.0277464  53.1276321   1.8607190  16.9641948
  27.9294372  55.8507872  11.4796138  28.0370164  56.3219690  12.3058403
  28.7658501  55.9646463  11.0283005  53.7810755  28.1802797  27.6492882
  54.2032623  27.5922418  27.0230269  54.4799948  28.4267712  28.2550812
  12.8554351  64.5351069  62.9862962  13.1899841  63.7744324  62.5112328
  12.8521545  65.2396910  62.3383901  45.5198050  20.0944757  25.3593230
  44.9841595  19.9974430  26.1466599  44.9653482  19.7679257  24.6506810
  36.0436797  40.6425524  11.3243210  36.0309744  40.4172659  12.2545433
  36.7644501  41.2665844  11.2388408  73.5131216   1.2545688  31.5323400
  74.0883970   1.9586238  31.2330079  72.6615477   1.6752280  31.6510677
  42.0708752  21.3266373  56.8559933  41.4001608  20.7043314  57.1372557
  41.5832853  22.0185924  56.4091301  57.3891258  26.7518687  43.0873013
  57.2967291  27.6435280  43.4229136  56.4983463  26.4015341  43.0897236
  66.3195208  12.3801271  67.3908303  66.3615874  13.2620279  67.7605811
  66.0824851  11.8212024  68.1308642  70.1290844  73.3172529  64.1612480
  70.4787491  73.7283294  64.9518064  69.6485470  74.0174906  63.7196801
  39.0879297   6.7385745   7.5662649  39.4423103   7.3631346   6.9333577
  38.1446218   6.9009584   7.5605619  35.5204916  63.0422544   3.3314580
  35.4151559  63.6034489   2.5632149  34.8327661  62.3824835   3.2422197
  34.7266129  84.0783330  59.9613142  33.8960818  83.6581151  60.1846218
  34.4883946  84.7619469  59.3350887  56.7115763  68.1227673  34.6138835
  56.0028914  67.8006590  35.1708794  56.6330794  67.6129354  33.8075709
  49.1303682  27.7849960   6.2491161  48.4878588  27.0756793   6.2323058
  49.9187994  27.3853326   6.6163707  82.3639865  85.2672973  29.4006562
  82.8234978  85.8818279  29.9728751  81.5337582  85.0997664  29.8466229
  58.6928082   1.5586446   2.2263487  58.6510277   1.6632017   1.2757942
  59.5111132   1.9863968   2.4786186  51.5073633  17.8404486  38.2250309
  51.5118456  17.5487626  39.1366959  51.7311192  18.7700474  38.2698822
  68.6680937  18.8106263  24.3264437  67.8969955  18.2455599  24.3748546
  68.5205603  19.4753170  24.9992394  88.7818594  72.2321535  45.6805134
  89.3420000  72.9683472  45.9264612  89.3817038  71.5926028  45.2965927
   8.4316734   9.2936698  65.6809554   9.0665821   8.9297668  65.0639484
   7.6086620   9.3156187  65.1926920  48.7275362  16.3548815   2.4059626
  48.2975578  15.6358695   1.9429620  48.4319162  17.1434724   1.9510286
  80.8043145  63.3894484  73.8417257  80.7800625  64.3038862  73.5598599
  79.9107359  63.0736558  73.7074762  65.8914423   7.9059976   9.1103083
  65.7578516   7.4093449   8.3030152  66.8078899   8.1799310   9.0741169
  85.1475620  22.0276546   9.2809504  84.9584675  22.6235080   8.5560834
  85.5501652  21.2651229   8.8653880  33.3590674  18.4952641   3.8906860
  32.8194332  17.7237725   3.7179804  34.2309165  18.2523596   3.5790616
  50.4269670  63.2786672  69.8869759  49.9363731  63.6288278  70.6305734
  49.8623775  63.4387748  69.1307769   1.5368136  43.0159187  53.2069826
   1.3739737  43.3976793  52.3444414   1.5174540  43.7618113  53.8065672
  68.3745527  47.2429895   4.3777171  69.2290735  46.8125725   4.3500277
  68.2290983  47.4271679   5.3057015  45.0705957  41.4703226   1.3254422
  45.7656717  41.7299318   1.9301800  44.3272877  42.0248079   1.5626411
  21.8445492  57.4380493  26.0784578  21.8253851  57.4852657  27.0342994
  22.2821927  56.6082525  25.8883691   2.0650775  77.2734683  70.7296169
   1.9212777  76.5938060  71.3881088   2.7618272  76.9246929  70.1736215
  29.4985989  64.5625664  12.5560832  28.7008694  64.4941665  13.0806625
  30.2053526  64.6094585  13.1999242  78.9054353  66.4469100  30.0462508
  79.6010573  67.0051731  29.6988535  79.3617136  65.8096028  30.5956888
  24.2764330  21.0709190  28.4364319  23.4986901  21.0063624  28.9906693
  24.8597240  20.3850651  28.7614059  39.4938731  17.3047280   4.9968135
  39.5614171  17.8018999   5.8119762  40.3988457  17.0874512   4.7731006
  34.0382794  67.1241141  24.8389554  34.7694996  67.5317634  25.3030396
  34.3970374  66.3039053  24.5001578  88.6541004  82.5656260  37.3093915
  89.1263218  81.9793434  36.7181945  88.1638856  81.9799797  37.8864002
  88.9211655  55.1191092   5.5494118  89.2888832  54.8713923   6.3977355
  89.6336842  55.5777931   5.1042539  31.9963145  58.1531286  19.6115720
  31.8643641  59.0533924  19.3143475  32.1580887  57.6572084  18.8089979
  82.1641350  69.7528982   9.5216691  81.6106892  70.4605389   9.8520780
  82.4808216  69.3092155  10.3084934  50.0250626  55.1297045  17.4622643
  49.9002075  55.6238365  16.6520321  50.4211617  55.7572174  18.0668819
  52.5466394  66.6673756   5.7537502  51.7348289  66.8562841   6.2243956
  52.2941923  66.6692400   4.8304412  56.7420387  77.8922415  54.8949862
  56.7300701  78.7173700  55.3800154  55.8248234  77.7312326  54.6735907
  66.7081833  64.1152811  20.7017612  66.2080383  63.6602974  20.0242066
  67.5278187  64.3588686  20.2715349  81.9490433  48.4508133  27.2498679
  81.1454201  48.6009216  27.7477622  82.4911594  49.2181396  27.4330568
  39.1779593   6.3493196  48.6727259  39.6661833   7.1233741  48.3921740
  38.9886407   5.8784048  47.8611657  81.7356777  57.6311398  47.8098392
  81.0645390  58.3023834  47.9333019  81.4321613  57.1247053  47.0564222
  55.0863028  27.1188545  23.0992389  55.9791565  26.7738366  23.0984163
  54.5704889  26.4474368  23.5457468  11.5925482  26.2157003  61.1282739
  11.1727122  25.9325639  61.9405565  11.8796805  25.4033605  60.7112799
  10.3447970  70.1859474   5.2625591  11.0542830  69.5639181   5.1014781
  10.1236495  70.5267191   4.3958423  47.8511238  83.6281490  20.8534336
  47.5534964  84.3809605  21.3642502  47.9873753  83.9755821  19.9719822
  39.8044705  34.6355486   2.9973337  39.2824674  33.8896227   2.7018037
  39.7853541  34.5778084   3.9525995  62.1723768   7.7512621   5.1309097
  62.6570698   7.5810312   5.9385771  62.7256605   7.3893141   4.4387347
  86.9254398  32.6756501  28.6748242  86.3365841  32.6515603  29.4290781
  86.4822483  32.1509624  28.0081034  38.9385581  37.1646500  20.7710981
  39.1728544  37.6515818  21.5611815  39.7636485  37.0685554  20.2954698
  55.7603931  60.0101042  29.4420576  56.1380482  60.8651018  29.2356825
  54.8710728  60.2059603  29.7369838  24.8710993  80.7124735  13.3808684
  25.3753499  79.9009509  13.3225894  25.5302600  81.4061804  13.3582675
  55.0109768   9.1687185  22.5060630  55.4922724   9.9751580  22.6911092
  54.2095995   9.2438316  23.0241203  35.5813531   1.5109197  64.3505118
  34.7807864   1.5951053  64.8684279  35.4682282   0.6932489  63.8659010
  67.2242498  45.5673552   2.3129068  67.3857641  46.5007114   2.1751274
  66.5420485  45.5388021   2.9837447  23.5554600  21.7901444  32.0755148
  24.2338252  22.4177790  31.8262577  22.7453685  22.3000312  32.0744944
  18.4976128   2.2913114  51.6225598  19.1867379   2.9550115  51.5935728
  17.7135066   2.7716390  51.8884561  48.5575725  22.3990424   5.1382187
  49.3247034  22.9081042   4.8763015  48.8444044  21.9147999   5.9124687
  50.9021187  42.6086760   1.4710465  50.4990721  41.8572998   1.0360586
  50.5892277  42.5587368   2.3742831  16.1037501  46.4153051  25.9522510
  15.9053763  46.4366341  25.0160766  15.8289775  47.2735691  26.2749195
  38.9558887  68.9507294  29.1775990  38.3504009  69.3569231  28.5574174
  38.3907938  68.4840441  29.7933102  58.3959150  54.3032932  10.2469444
  58.4941292  54.1110182  11.1794770  57.4612999  54.4773102  10.1354122
  56.0253096  79.7767353  11.8217623  56.6205835  79.2399883  12.3450053
  56.5502977  80.0542545  11.0710299  67.7635813  16.7910528  21.5843582
  66.8940496  16.9500887  21.2171340  67.6197338  16.1327314  22.2641754
  18.0879934  44.3082312  54.6022258  18.9085967  43.9564650  54.9473367
  18.2514102  44.4227425  53.6660573  30.5047560  32.9488587  14.8654795
  30.3861237  32.5027132  15.7039976  31.4086723  32.7553892  14.6170151
  61.9734955  65.3172398  26.0834885  62.2934484  66.1460352  26.4398050
  62.7069139  64.9780941  25.5703521  38.7730292   3.8716117  38.5497520
  38.2433966   4.5952980  38.8844154  39.4509581   3.7440816  39.2133615
  62.4729395  31.8075538  19.5364177  62.5398874  31.2614751  20.3197098
  63.0962944  31.4213347  18.9211965  15.8833750  36.4797664  46.8427563
  16.1421641  35.7086015  47.3473024  15.6812438  36.1391044  45.9713650
  90.1874732  76.4912908  68.9418892  90.9279297  76.7171400  68.3789072
  90.5179499  75.7889574  69.5020166  43.9353609  53.4361410   6.3019353
  43.2927418  53.0420208   6.8918061  43.4124613  53.9526558   5.6887281
  40.6036377  38.3184671   7.3591322  41.1365891  37.7423334   6.8111724
  39.7215772  37.9504442   7.3065650  68.9718962  64.8401880  65.6266785
  69.1616869  65.5478811  66.2426233  68.1449938  64.4695807  65.9350681
  61.1953115  58.9087486  26.4357233  60.7272005  59.6727371  26.0989261
  61.4315891  58.4089565  25.6543064  85.6581879  29.3277097  16.6873741
  84.9744320  28.9406252  17.2340679  86.2067318  28.5868669  16.4295411
  37.7749395  22.7979064   6.5659577  38.5879517  23.2965660   6.6470891
  37.3245311  22.9369545   7.3990417  84.2892312  76.6345828  70.2534193
  83.8083409  77.1314781  70.9152893  85.1382206  77.0727890  70.1948980
  60.2827597  59.8024035  13.4290385  60.1516962  60.0061750  12.5030088
  59.4008684  59.8013544  13.8011944  38.7250495  67.6103354  18.8318515
  38.6693788  67.4505997  19.7739863  38.4491873  66.7853975  18.4323442
  43.7177331  72.3316066  71.3054881  43.1132467  72.3684757  72.0467534
  43.3605058  71.6477840  70.7389108  51.5481138  56.6815424  19.5001113
  52.3505402  56.1607409  19.4667995  51.6096067  57.1637535  20.3246856
  67.6604128  73.0997992  23.0528760  67.6703978  72.1888065  22.7592373
  67.1327209  73.5567760  22.3979402  34.6078709   3.4425108  68.0198148
  34.9821261   2.6422540  68.3882651  35.2572087   3.7390653  67.3821214
  59.2778397  28.1332660  16.5955532  58.7855434  27.4787784  16.1000526
  60.0352955  27.6566720  16.9351947  84.7957897  44.8587751   5.2926904
  84.1707039  45.0938177   4.6069339  84.3280125  44.2245674   5.8360165
  48.1853390  21.2047029  14.7642100  48.2235098  21.9810724  14.2056179
  48.6788893  21.4485455  15.5472684  74.0421629   6.8181515  42.9065752
  73.5718250   6.1364341  42.4267054  73.4892845   7.0011753  43.6662197
  61.1357117  72.0601463   0.8126146  61.1607552  71.8067455   1.7353246
  61.3039064  73.0024338   0.8183619  36.8886593  29.9303762  56.0876248
  37.4928454  29.7438709  56.8062363  37.3751429  29.6934072  55.2980635
  51.3341618  46.2369013  10.4708111  51.7960024  46.8440866   9.8926586
  50.9106398  45.6165314   9.8775113  78.3547974  71.9884825  36.3039231
  77.9230022  72.5325632  36.9625282  78.0822468  71.0954762  36.5148520
  83.6719131  78.2847309  24.3185663  84.0754318  77.6483965  24.9088883
  84.3156624  78.9898109  24.2501974  15.3943661  17.8406898  71.1159212
  14.6957139  17.2573606  70.8195305  15.5722788  17.5639049  72.0147911
  50.5680609  75.3366423  40.8778095  49.8998642  74.6619225  40.7573795
  50.3189802  75.7781792  41.6897440  53.7271643  68.4086132  12.9059505
  54.5406389  67.9398870  12.7194405  53.7921000  69.2143822  12.3933566
  52.1728992  38.2157207  10.5340254  52.8069162  37.5901794  10.1833785
  52.5327158  38.4706926  11.3835847  50.6584692  27.1159625  17.9341686
  50.1890993  27.9088521  17.6748431  50.2436209  26.8495846  18.7546420
  39.2073274  81.9244099  12.6200914  39.2795849  81.0623264  13.0297494
  40.1084805  82.2437572  12.5735450  73.8650656  40.8475876  33.0276537
  73.1476974  41.1616421  32.4772120  74.0698576  41.5874577  33.5993958
  36.6611719  64.5230579  35.5207872  37.5504923  64.1732836  35.4659939
  36.4984298  64.6177101  36.4592886  26.9594955  51.4989901  27.8995323
  27.0471239  52.4504852  27.8428769  27.4749660  51.1668062  27.1645641
  72.5190020  31.9882035  37.9902554  72.3527193  31.4076209  37.2476196
  73.0630255  31.4693689  38.5827732  15.5276850   4.7420017  47.1999214
  15.4554394   4.5390312  46.2672827  15.1011733   5.5938093  47.2934029
  49.6084166  78.2766628  49.1038609  49.5770502  77.5623798  49.7402954
  48.7452841  78.6864901  49.1610479  71.3478612  83.2439201  61.3129554
  71.6275071  83.7815254  60.5720064  71.9817494  82.5272601  61.3416264
   6.8411596  42.3204433  70.4716865   7.7758796  42.5035794  70.3768802
   6.6374643  42.5742320  71.3718710  64.6200991  77.8260994   6.6119552
  65.3588724  77.2717190   6.8631721  64.9439383  78.3341455   5.8681464
   1.4437943   4.4493841  34.0242481   2.3220615   4.1910910  33.7446594
   1.5127258   4.5429110  34.9743700  19.5691788  65.1928377   1.2745360
  19.2885494  65.3829479   0.3793615  18.7791491  65.3075457   1.8026711
  49.1072893  57.8594208  16.6305184  48.3993816  57.8794050  17.2744870
  49.8579645  58.2381868  17.0879614  25.9705952  13.2371799  59.9928496
  25.3102330  12.5485460  59.9157963  25.5157975  14.0360729  59.7260806
  54.2467356   6.5199029  31.2567782  53.9050817   6.6257083  32.1446490
  53.5786009   6.9122243  30.6947136  51.7459679  82.6963139   5.4898828
  51.1870241  82.4105072   4.7672990  51.9013929  81.9021034   6.0010701
  64.6885014  37.0043421  15.4426134  64.2880964  37.2238708  16.2838721
  65.2956724  37.7242041  15.2712309  19.3709517  31.5247035  33.1637239
  18.5578609  31.3373137  32.6946807  19.7157502  32.3110509  32.7406383
  29.2147350  38.3846140  15.8766139  29.7503018  38.3752394  16.6699064
  29.6968579  38.9452267  15.2687490  84.9725628  39.9081969   7.3950964
  84.9110222  40.8474970   7.2214341  84.0665245  39.6291876   7.5272512
  34.3584299  72.9590750  48.0188847  34.9527407  72.2816467  47.6962090
  33.6836123  73.0272102  47.3434496  55.9426832  60.4477072   3.4821776
  56.5488768  60.4092598   2.7423939  55.6197596  59.5513201   3.5740590
  44.4537258  16.8010437  32.9588604  43.7168121  16.3828135  32.5135779
  45.2137041  16.5858018  32.4181819  69.4099665  82.7146721  14.4326591
  68.8209915  83.4624767  14.5332873  69.1657734  82.3289776  13.5913241
  81.3808155  33.5057044  21.2471652  81.8413067  32.9908824  21.9098425
  80.5582142  33.7563658  21.6675544  57.1521139  24.4795203  17.7786541
  57.1109581  25.3808808  18.0981660  57.1281052  23.9431691  18.5711074
  80.7329655  60.6241083  22.9671884  80.0838470  60.2674675  22.3608232
  81.3013077  61.1649179  22.4187803  87.5214577  26.4838195  12.5185359
  87.2112083  27.3847342  12.4272847  86.7739868  26.0087037  12.8815496
  77.6535320  39.1208148  35.1155901  78.0628920  38.2738876  34.9384665
  78.1901360  39.5059896  35.8083606  90.9932232   0.8585037  30.6378603
  90.4642200   0.2394106  31.1409616  91.1456394   1.5873632  31.2393308
  21.0518912  25.7040588  62.1461866  20.3332022  25.3143684  61.6483316
  21.2982777  26.4803831  61.6433475  52.8914309  69.2399216   2.4954002
  52.3115778  69.6449947   3.1403178  52.7227783  69.7217035   1.6856645
   4.6671537  25.2038137  63.5946557   5.4180673  24.6428672  63.7888286
   4.8592476  25.5709879  62.7318034  56.9265270  68.1983948  42.6310301
  57.4505806  68.8857794  42.2198153  56.7711878  67.5644445  41.9308805
  15.6896646  75.5924075  52.7880642  15.7657726  74.6399467  52.8451035
  14.8311717  75.7870262  53.1640217  58.8613224  42.3882294   4.2217985
  59.6203279  41.8113136   4.1362840  58.4609509  42.1355677   5.0537199
  61.1135530  24.5246959  12.0683813  60.5083704  24.8751569  12.7219558
  61.5677977  23.8132262  12.5197196  18.9649371   8.6621610  50.6700132
  19.7798947   8.2263080  50.9192226  18.5818747   8.9464180  51.4998886
  23.7294730  26.8218613  12.2855318  22.7896556  26.6444707  12.3241854
  23.8980349  27.3857141  13.0404413  65.8669281  71.9801044  45.4628372
  64.9773073  72.2571325  45.2435970  66.4131832  72.7359247  45.2470398
  51.4133215  50.0131035  14.9086094  51.3600969  49.4962883  14.1046822
  50.6930780  49.6893549  15.4495978  61.9341993  64.6504641  15.4533565
  61.3031292  64.6497107  16.1730647  61.9243002  65.5502796  15.1270700
  27.6345594  77.0824306  72.5407678  26.8219621  77.3380654  72.1042246
  27.7611215  77.7459948  73.2189243  82.1007442  58.1631088  29.5015121
  81.7467308  59.0410042  29.3593693  82.8318882  58.2945395  30.1051521
  75.3297186   4.7019431  13.4626222  75.2556801   3.8900757  12.9610038
  74.4339514   4.8951012  13.7392545  27.8789452   3.6357872  44.4216082
  28.2319192   3.8704387  45.2798483  27.0947436   4.1768066  44.3290827
  50.5046988  15.3323019  19.1829622  50.2620602  14.4515526  19.4686866
  49.6717930  15.7525885  18.9688087  41.8771887  70.2988815  12.3508024
  42.6063681  69.7583580  12.0468891  42.1563101  71.1976957  12.1762753
  60.6914806  30.3698277  26.6702151  61.3167858  31.0680914  26.8642640
  61.1589670  29.7899246  26.0690451  26.3242224  34.6106426  59.2728469
  25.6080607  34.4751112  59.8933146  27.1165684  34.5651142  59.8079548
  64.0475941  66.9564581  27.2155952  64.7261333  66.6260099  26.6268516
  64.5190477  67.5114202  27.8368711  58.6352015  10.3398478  45.7899570
  58.8808966  11.0870969  46.3353777  58.4917307   9.6263760  46.4117336
  91.3082695  36.3650060  13.8997805  91.4649773  36.8092728  14.7330296
  90.5774879  35.7729578  14.0777373  46.0094193  24.4178382  66.2531159
  45.6490830  25.1946489  66.6808483  45.9372977  23.7267486  66.9114671
  48.9749098  19.0578210  13.1229830  49.8005867  19.4651830  12.8611720
  48.4626341  19.7742677  13.4978259  65.1102209  59.7557831   4.0935159
  66.0299158  60.0099802   4.0175253  64.6836042  60.1737976   3.3455265
  63.8857889  26.5260410  24.1430974  63.2495070  25.8324361  23.9690471
  64.6776247  26.2452888  23.6843991  66.0142851  74.3038321  21.1530089
  65.6252003  75.1763201  21.2131310  65.2680111  73.7165308  21.0330725
  41.6708333  56.0362463  71.9164876  41.4502675  56.9515936  71.7440936
  42.0255239  55.7151108  71.0874489  45.0874090   4.9479705  10.2944815
  44.6567869   5.3538096  11.0468721  45.9983635   5.2353579  10.3561294
  48.5611677  37.0078564  13.8798475  48.0250692  37.7270651  14.2138648
  48.2920647  36.2484598  14.3966961  86.5578938  21.4960194  26.5233827
  86.1975670  20.8449626  27.1254802  85.9181595  22.2080112  26.5296483
  79.0104245  54.0872865  72.0023238  78.1021737  54.2109590  71.7266036
  78.9755391  53.3584123  72.6218060  56.8178628  70.5230300  67.1420911
  57.5021528  71.0610859  66.7440018  56.7563509  70.8414762  68.0426690
  52.6789549  12.1492807  51.7419193  52.6631526  12.9866640  52.2053501
  52.7618865  11.4937727  52.4344966  48.0716801  50.3247833  19.6003211
  47.1306562  50.3252077  19.7755659  48.2715130  51.2302971  19.3629551
  82.2023438  54.8641090  48.4496257  83.0114172  54.6593015  48.9183352
  82.3199032  55.7661407  48.1517193  29.4829920   6.5556375  70.4620851
  29.9714688   6.2043230  69.7176353  30.1498345   6.7254488  71.1274586
  45.1667670  16.9889871  65.4099468  45.3197840  17.0698110  64.4685194
  46.0256318  16.7756788  65.7747552  18.4301622  40.9634741  72.5737729
  18.8671214  41.6808544  73.0327556  19.1139753  40.5777097  72.0262175
  35.7531221  71.1553614  63.7271509  35.2801473  70.3474968  63.9268563
  36.0055406  71.0642355  62.8083405  73.0563307  51.6204643  10.3791416
  73.5390949  50.9942293  10.9185863  73.1980515  52.4647093  10.8073938
  39.0278912  48.8481617  33.6086583  38.4673262  49.5758009  33.3393216
  39.9193597  49.1753626  33.4884286  65.2545432  42.4888841  58.1269083
  64.4275168  42.0192758  58.2351551  65.1153830  43.3247606  58.5720727
  55.1882219  76.8612528  10.3243721  54.8949194  76.5949106   9.4530135
  55.8628082  77.5199223  10.1590788  86.5243053  50.3333616  38.7425828
  87.3272228  50.7358360  38.4115839  86.1740780  50.9726429  39.3629789
   5.3923472  55.8869410  13.3087397   5.6449660  55.3644133  14.0699100
   5.7351645  56.7612410  13.4939599  17.8009803  76.1731880  61.0827217
  18.5108907  75.5954688  61.3629017  18.0210216  77.0241945  61.4616713
  79.7345781  36.9083476  15.1880610  79.0452814  36.3111854  14.8973751
  80.5451202  36.5126467  14.8676240  69.2233515  53.6809826   0.4747158
  69.0584135  53.5006189  -0.4507550  68.9374542  54.5862722   0.5969597
  31.2967181  48.2765627   0.6371556  30.6646252  47.7972698   1.1728502
  30.7591796  48.8226366   0.0634971  18.5666398  18.2068340  53.7018535
  18.7167624  18.7273876  52.9127285  17.6138857  18.1676666  53.7852928
   2.9860266  73.2750320  37.4538589   2.9771765  73.9516449  36.7768407
   3.2155570  72.4717379  36.9866776  68.6655712  28.8268709  16.4571929
  67.8896332  28.4595942  16.0338008  68.6370802  28.4823203  17.3497760
  80.0389862  58.6070633  57.4556446  79.9406338  58.9091682  58.3585835
  80.9746742  58.6952496  57.2741508  89.4175529  68.1116676  13.0374277
  90.0419903  67.3862791  13.0266476  88.9240932  67.9908800  13.8486862
  51.2194729  33.6074352  13.9439559  51.7473936  34.0916705  13.3090949
  50.3362036  33.6133981  13.5751367  49.0407085  81.3218117  42.1305323
  49.2415953  80.5387497  41.6179991  48.4109640  81.8038559  41.5945387
  85.8868122  67.9082632  47.7737474  86.6369152  67.8193855  48.3616877
  86.0017586  68.7670755  47.3669815  82.8664466  14.4763731   8.4320462
  82.8703185  13.5194849   8.4562916  83.4630748  14.7002768   7.7178109
  71.3079977  35.8174014   6.2549770  71.9076967  35.1238060   5.9801704
  71.7083883  36.1812735   7.0446086  71.1218950   4.4819235  38.8467908
  70.8477374   3.8067698  38.2261133  70.3177925   4.7272944  39.3044353
  71.0544157  75.3599167  12.1559584  71.5758038  76.0894775  12.4908137
  71.2644005  75.3239250  11.2227678  35.4868010  26.7131273  67.7954159
  35.2358655  26.6404621  66.8745563  36.3687256  26.3429729  67.8332600
  36.6161040  39.2972890  70.3328520  37.4121121  39.5398943  70.8058727
  36.0075739  40.0161687  70.5035112  71.0692263  51.6238117   0.4335604
  70.3773594  52.1389866   0.8484694  71.8477726  52.1776438   0.4915734
  57.0296267  32.3967306  68.2402537  57.7650145  32.0367281  67.7444330
  57.3127249  33.2784978  68.4822801  51.7129687  41.2543146  72.1457522
  51.0419634  41.9310895  72.0565136  51.3898924  40.6876031  72.8462473
  84.7089958  49.3583393  14.3939161  83.9523888  48.8920355  14.7493613
  84.4584465  50.2815819  14.4268084  38.0443144  53.5365152   3.5375747
  38.6547375  53.7705612   4.2367432  38.5488844  53.6479712   2.7318341
  21.3494996  16.0815326  65.6039641  21.5324238  15.2279941  65.2112243
  20.7336835  15.8923952  66.3119403  74.6105909  79.0201283  33.9810205
  73.7268257  79.3118572  34.2048240  74.5609045  78.7967873  33.0515695
  74.5363140  75.4407597  42.7936697  74.6779203  75.5129719  43.7375784
  74.4148254  76.3436460  42.4999428  79.5537254   3.8237642   2.0734836
  80.1299545   3.1008410   2.3216067  78.8364717   3.4056734   1.5970637
   8.3772259   2.6880526   9.9558061   7.6810389   3.3163904   9.7641122
   8.6739521   2.9203867  10.8356977  85.0026865  56.0831682  51.8648503
  84.6900387  56.3451711  50.9989188  85.6655998  56.7366163  52.0879743
  45.1750612  69.7975683  21.0750556  45.3618193  69.8769951  20.1396179
  45.5627966  70.5814886  21.4641094  57.7098540   6.8625967  70.8429304
  58.0239752   5.9694902  70.9840665  57.9815844   7.3388568  71.6275105
  20.5647143  79.6653223   8.4097159  19.6589907  79.7036409   8.1024098
  20.5205401  79.9524784   9.3217587  70.6508493  31.9032717   9.0092099
  71.4033937  32.3887467   9.3471777  71.0021257  31.3959193   8.2774764
  62.8507280  78.1409645  67.1132183  63.7697124  78.3831739  66.9990349
  62.4326658  78.9362621  67.4433088  17.7961950  24.3588137  43.6646605
  16.8985157  24.6724295  43.5549164  18.3417015  25.1203512  43.4679127
  34.4981265  53.7448168   5.6765848  33.8523483  53.1581974   6.0703886
  34.9387431  53.2082415   5.0176644  11.8299159  26.6137385  38.9280343
  12.0345553  25.8836389  38.3438182  11.3871916  27.2515988  38.3682394
  85.5422497  65.8546352  40.3885794  84.6202087  66.0193729  40.5859137
  85.9124088  65.5446672  41.2151003  77.5016260  82.6724434  38.7259126
  77.3878193  82.4781609  37.7955723  78.2552719  82.1448708  38.9903235
  39.5533398  13.1388513  70.0825122  39.4788817  12.3151914  69.6005696
  40.4939822  13.3130876  70.1151103   2.0992240  14.4902575  14.2156363
   2.3041781  14.4006515  15.1463318   2.7654608  13.9653087  13.7720394
  77.7972889  37.2945714  43.1405067  77.3862839  36.7895508  43.8421202
  77.0750093  37.7762055  42.7373123   8.9702206   2.0994543  25.5543089
   9.2176704   1.7578672  26.4135671   8.2650452   2.7202868  25.7373786
  68.2391548  58.3248949  32.9879165  67.3040628  58.5099316  32.9007435
  68.4110022  57.6466084  32.3347473  69.9166584  66.9169760  37.6153827
  70.1020718  66.0227108  37.9019904  70.7794476  67.3131847  37.4935579
  63.6930799  79.1983366  23.6412358  64.0292454  78.6683130  24.3639374
  63.3322048  78.5612822  23.0246615  59.0812635  24.7306967  28.5283184
  59.2945004  25.6298304  28.2786798  58.9054537  24.7783136  29.4680285
  72.5467443  72.2468948  42.9779530  73.3067179  72.7835035  43.2031727
  72.2993279  71.8247604  43.8006401  71.5194770  10.1479315   9.9704230
  71.9531223   9.8764204   9.1614342  71.7988559   9.5028471  10.6200743
  61.6700247  28.1599514  69.0829406  62.5725440  28.2733718  69.3809626
  61.2736109  27.5813524  69.7343335  76.0447189   5.4464697  34.8147249
  75.2204582   5.5343699  35.2933645  76.3546297   6.3453650  34.7043562
  64.7341585  68.7787962   5.7256633  63.8381958  69.0525484   5.9219825
  64.7642994  67.8567934   5.9810722   2.6395634  28.3860246  58.0846557
   1.7980245  28.8179151  57.9379687   2.9972843  28.8160364  58.8614151
  61.0646915  81.2902927  10.2849829  61.5377140  80.5348206   9.9360508
  60.8704948  81.8270588   9.5166087  24.8455124   9.2957472  51.5251112
  24.4240646  10.1237463  51.2948370  25.3385811   9.4914125  52.3218727
  11.8481692  57.1878290  23.7024903  11.5120658  57.4532890  24.5585251
  11.9922599  56.2450218  23.7836194  69.3520355  69.6881056   9.6476012
  69.1067982  70.3411579   8.9921528  68.8750315  69.9487114  10.4355001
  23.9398747  37.7975153  32.7336836  24.4200306  37.6936125  33.5551977
  24.6037750  38.0725550  32.1013665  68.4573936  59.0139866  25.0697136
  68.6954737  59.6435738  25.7502818  68.9267874  59.3138361  24.2912579
  53.9841270  61.3863993   7.6457083  53.7580824  61.9051456   6.8736738
  54.8965693  61.1333752   7.5054985  74.2151737  52.6664972  14.7240067
  74.6116543  51.8649101  15.0653219  73.3461714  52.3963118  14.4272399
  64.1364670  49.3299532  10.2038491  63.7122822  49.3353748  11.0619116
  64.7027349  48.5584211  10.2214777   8.1205138  47.3949957   9.8132461
   8.4821948  47.0969772   8.9786172   7.1719702  47.3480558   9.6936494
  55.5065775  49.2817354  13.4089029  54.9827242  48.8320017  14.0718889
  54.8697090  49.7839212  12.9005373  78.9304972  52.9506779  30.3289866
  78.0385733  52.6095390  30.3947949  78.8200140  53.8993645  30.2656054
   2.3569544  44.8247290  58.8013172   3.0844363  45.4449320  58.7528181
   2.6444300  44.1674280  59.4349909  59.1017724   2.1433814   5.3734663
  58.8662054   1.4762623   4.7287204  58.7031938   2.9480727   5.0420644
  47.7429656  62.7983228  67.4464336  47.1274308  62.4171201  66.8203029
  47.1894291  63.1408254  68.1482342   0.6802329  20.1145315  15.9462631
   0.9031161  19.9364853  15.0325608   0.0786265  19.4102395  16.1876631
   2.0802934  68.8649361  63.2863936   2.4030406  69.2642658  64.0942309
   2.7557523  68.2306354  63.0462859  62.1029568  76.8428946  32.2861886
  61.4674330  76.8510962  33.0019236  61.5872192  77.0452595  31.5056157
  81.2903384  24.3707124  66.7676333  81.9432047  24.9311010  66.3481567
  81.6984156  24.1024200  67.5908766  20.0750378  45.9888689  70.8503995
  19.5728901  45.7822458  70.0621185  19.4235543  46.3168088  71.4702818
  37.7920699  42.8403330  13.0957782  38.6691856  42.9851151  12.7409041
  37.9417205  42.3970222  13.9308310  81.0102272  67.2280502  15.1553988
  81.7822361  67.6692343  15.5097878  80.2726364  67.7619362  15.4506218
  84.2925167  61.5203142  17.8943551  83.3591175  61.3541460  18.0262256
  84.4562626  61.2606907  16.9877040  57.3421819  77.1434658  70.4947055
  56.6427762  76.7237561  69.9937910  57.8553922  76.4156668  70.8456359
  16.2095984  40.9508181  49.6049118  15.5310115  41.5946579  49.4018841
  15.9563597  40.1717138  49.1098309  40.4351044  77.1228170  12.7804995
  41.0954237  76.8734026  12.1339726  40.0593424  77.9339886  12.4383914
  66.3689089   8.9179957   6.2467736  65.7744694   8.1684136   6.2784481
  67.2429228   8.5335857   6.3142920  71.2590981  19.4538915  25.4540467
  70.5395269  19.3153071  24.8382235  71.8891335  19.9877489  24.9700141
  69.2608213  48.8855124  14.1945148  68.7863159  48.7674141  15.0173938
  69.3948555  47.9966402  13.8656259  66.6630459  61.2219048  28.3779263
  65.7652950  61.4674520  28.1543612  66.8849182  61.7788267  29.1241455
  75.9288025  69.4680071   8.4870857  76.3872242  68.6753321   8.2082492
  76.4842367  69.8368692   9.1738629  13.4251269  80.4866695  35.4463267
  13.7831839  81.1354828  34.8404646  12.5101336  80.7439804  35.5595326
  62.8459215  71.4638472  50.3648233  62.1181965  70.9058523  50.6392193
  63.6210775  71.0509396  50.7454443   9.4244250  83.8791561   0.1489305
  10.1410922  84.3884373   0.5274004   9.8348864  83.3716965  -0.5512328
  54.8075390  66.0251760  25.8977771  54.0338469  66.4451075  25.5218983
  55.5454636  66.5199709  25.5415750  81.7390728  61.1013937  18.3904946
  81.5355682  60.1744604  18.5154772  81.6182899  61.4919424  19.2560089
  52.1162844  40.5898762  17.2949243  51.9105959  39.6627426  17.4146950
  51.7934990  41.0116386  18.0912650   9.7890527  66.0183327  66.4894626
   9.5544774  66.8511860  66.8988052  10.7441385  65.9853165  66.5438775
  70.4688549  58.0004263  15.3062272  70.8960772  58.5967922  15.9210920
  69.7577763  58.5167074  14.9266863  74.0143442  36.0285664  20.7860184
  73.7875605  35.2462339  21.2887692  74.3132353  36.6572094  21.4430594
  70.0764275  64.6489429  38.9867449  70.5317688  64.9974442  39.7531939
  69.8721743  63.7435150  39.2206645  69.6081400  53.6354923  49.1347075
  69.2296028  52.7754450  49.3170691  68.9897251  54.0461159  48.5304022
  82.2949525   0.6381868  44.7414541  81.6443178   0.7137751  45.4394436
  82.1449539  -0.2299429  44.3671846   8.8735541  24.9682617  23.6158037
   8.2908019  25.3661418  22.9690218   8.8433226  24.0315270  23.4212565
   1.1787280  67.3172903  30.2496457   1.9070777  67.4468613  30.8570504
   0.3965338  67.4927473  30.7727242  19.1871481   0.6983732  54.0219355
  19.6061688   1.1838507  54.7325420  19.1336136   1.3265776  53.3017015
  62.0249891  72.4377966  30.7994223  62.5959492  73.0188513  31.3020229
  62.4839735  71.5978384  30.7929373  66.8598557  77.9697037  19.4417751
  66.9213009  77.5231981  20.2862191  66.4672947  77.3220444  18.8563931
  79.8300620   3.0859732  49.5447159  79.1288539   2.6945089  50.0655794
  79.4379827   3.8743471  49.1692400  47.5467920  61.9746971   6.3872111
  47.8681087  62.6270580   7.0096409  47.0664310  62.4832439   5.7338601
  84.2302200   8.5994028  61.9117117  83.6548349   7.8698896  61.6815329
  84.5048782   8.9626860  61.0697985  44.3798923  51.6298532  17.6351619
  44.5647097  51.5781164  18.5729241  45.2094841  51.4035273  17.2147012
  57.9977798  51.1626339  19.8409128  58.3773565  50.4274750  20.3222632
  58.7491846  51.6009569  19.4415450  70.5725336  54.5627642  28.9346480
  69.7255516  54.7339344  28.5228825  70.3860998  54.5593977  29.8735094
  12.7890090  31.4868681  60.8314774  12.8971842  31.9238082  61.6762338
  12.2767237  30.7032911  61.0309825  66.7188597  59.4781542  20.4151011
  66.5861654  58.5473585  20.2355433  66.9225693  59.8601103  19.5613778
   8.3555346  17.2998022  53.2401037   8.0022698  16.9600557  54.0622997
   8.6071901  18.2010340  53.4418011  49.3843460  74.8657227  21.6808605
  50.3359652  74.7627640  21.6884375  49.0717316  74.1612673  21.1131954
  44.7936773  53.3571339   0.0467168  44.5731306  53.9501429   0.7650007
  44.9304867  53.9327812  -0.7057068  43.7129927  61.6515303  18.2835639
  43.8863277  60.8573198  18.7889540  42.9153538  61.4537811  17.7927446
   4.4309481  80.2595043  16.3090527   3.8575801  80.5584145  17.0148396
   5.3085860  80.2745819  16.6908157  26.6901330  31.5459959  69.5193530
  25.7349089  31.5645210  69.4607896  26.8698195  31.3223163  70.4325423
  36.7537144  35.9892026  66.5047905  36.4877537  36.3153450  67.3645172
  37.5753955  36.4440052  66.3197843  58.2185030  66.1701441  27.2798610
  58.3614826  66.8302917  27.9580927  57.3279142  66.3343000  26.9698048
   0.3444060  44.3197584  24.4880009  -0.2419225  44.9917412  24.8357034
  -0.0076810  43.4964037  24.8261619  54.5281363  53.3177519   8.7954926
  54.7391844  53.3697367   9.7276878  53.5763311  53.4127283   8.7597466
  75.2191523  14.0683691  70.7716781  74.3432025  14.3416969  70.4992348
  75.0713709  13.5331623  71.5513853  80.0641441  39.6553159  30.4295707
  80.6764698  38.9246225  30.5154037  80.5017757  40.3869486  30.8647943
  75.8527184  39.3239713  43.2359409  76.4544964  39.9259305  43.6738300
  75.2791452  39.8912740  42.7207613  52.0431471  79.3987799  29.6254611
  51.5574837  78.5789871  29.7165895  51.3819885  80.0415897  29.3687749
  45.2329588  43.4297657   5.0204211  45.0937128  43.9518452   5.8105314
  44.7108841  42.6397610   5.1602572  70.6527110  14.1559671   5.4830706
  69.9038741  14.7212767   5.6725538  71.4166995  14.6873163   5.7071805
  76.7422438  40.3539324  32.7592468  75.8249235  40.1886797  32.9770589
  77.2362804  39.8297787  33.3896637  83.8936615  59.3174601  31.2370276
  83.9153385  60.2292776  31.5274525  84.5316696  58.8730383  31.7952967
  81.8870544  53.4773540  14.4371426  81.4650059  52.6217270  14.5146346
  81.3429451  54.0615225  14.9652767  88.4856960  18.9248346  43.4670448
  88.1903764  18.0202364  43.5705805  87.7348968  19.3797087  43.0854416
  65.0429630  65.9724522  15.5523980  65.5583429  66.7780066  15.5936205
  64.5734978  66.0307932  14.7202742  53.4595851  32.2494356  64.0264664
  53.5526827  33.1672088  63.7710092  54.3115691  31.8590061  63.8317141
  65.8116484  67.2684717  21.7215776  65.5643511  66.3449049  21.6758108
  65.9561205  67.5231838  20.8102679   0.5471762  53.6678123  24.0530610
   0.8571681  52.7682495  24.1575742   1.3414439  54.1779613  23.8945532
  73.0052614  16.7303681  34.2588663  72.8842878  17.6775658  34.3252993
  73.9192915  16.6235399  33.9954829  64.1902447  58.6592436  16.9733047
  63.7129402  58.5455179  16.1514306  64.7353888  57.8756380  17.0440900
  67.9723787  55.4372597  27.9642057  67.4758291  54.6409845  27.7754736
  68.0130482  55.8983898  27.1263885  22.2159149  31.7734797   4.6097496
  21.3487483  31.4063199   4.7813537  22.7537443  31.4693291   5.3408172
  70.8908129  64.9581146  26.7296815  71.0781956  64.2799425  26.0806799
  71.1423779  64.5656347  27.5656891  61.2545538  68.6541414  19.8667705
  60.7712507  68.9772606  20.6271958  60.6583929  68.0312395  19.4510639
  59.1572332  18.8713109  37.6135492  58.7046528  18.1392050  38.0323911
  59.8525620  18.4606230  37.0996618   2.3578890  47.9185057  63.1972551
   1.7541751  48.6529636  63.0861998   2.4180182  47.5242138  62.3271084
  55.5629158  66.3532448  28.6022401  55.6284428  67.2824717  28.3820724
  54.6219540  66.1814594  28.6384511  74.3728161  65.9742498  51.0378027
  75.1929855  66.0028219  51.5304899  73.7647247  66.5033245  51.5540743
  20.7699680  45.9743643   4.3081883  21.5725780  45.4529285   4.2957219
  21.0238647  46.7947340   4.7309980  52.5375986  62.4015331  14.5021594
  53.0064964  62.3861456  13.6678147  52.6111031  63.3077335  14.8015380
  50.0665092  43.0707216  21.6591287  50.4866743  43.3249998  22.4807334
  49.1290474  43.1536436  21.8338394  82.0216465  64.9739647  44.8473883
  81.7295551  64.4002390  44.1390467  82.2741508  65.7864618  44.4088316
  67.8121710  51.0355425  17.0333350  67.8379107  50.6802082  17.9217672
  67.7304125  50.2660656  16.4699006  82.8636265  54.7715616  30.2147746
  83.7416267  54.4367933  30.3972006  82.8940296  55.0349569  29.2950320
  76.0888100  53.0855083   0.2377138  76.5485764  53.1368399   1.0756934
  75.4303503  52.4029446   0.3672104  82.2233868  45.9890699  27.7487254
  82.2896004  46.9267797  27.5683188  82.9599762  45.6016016  27.2759295
   7.2053012  77.3078537  34.6735215   8.0079611  77.5910473  35.1114416
   7.5061377  76.7296124  33.9725471   0.2068289  69.6691084  55.8992195
   0.6959590  69.1155195  56.5079260  -0.0330869  70.4387379  56.4153051
  55.8183002  78.3160162   0.7201313  55.7715416  78.4536552  -0.2259664
  56.6785526  78.6539698   0.9691039  89.8593208   1.8940805  10.6577623
  89.8510190   2.6488184  11.2464309  89.0826627   2.0088743  10.1101744
  90.9639359  63.4759521  26.6641212  91.8376446  63.8432169  26.7982578
  90.3985882  63.9842367  27.2457170  12.4314555  68.6243057   5.3633225
  13.0576094  68.6351156   6.0872316  12.9461630  68.8792562   4.5976147
  85.3713131  41.6305161  27.8231478  85.6882477  42.0640135  27.0307660
  84.7952557  40.9365892  27.5024390  17.2206621   8.7267946  40.1197624
  17.7484255   8.8688635  40.9055853  17.8410749   8.8123392  39.3958807
  46.5810966  57.3289537  32.1358156  46.5075922  57.3956537  31.1837769
  46.6151190  58.2366991  32.4375987  62.0845222  80.9841919  20.3349566
  61.5851212  80.2346611  20.0108838  62.8624916  81.0125256  19.7780061
  26.8814163   1.0362982   2.6471588  26.3832359   1.3373636   1.8872866
  27.7442818   1.4370798   2.5419649  61.6042137  26.7519236  17.5939453
  61.9545460  26.5659618  18.4651041  62.3788548  26.8524003  17.0407093
  80.9285927  42.9118013  15.8064318  80.4483986  42.4982023  16.5237725
  80.6016922  42.4783516  15.0180864   6.6600474  19.3966830  16.8231690
   6.4036902  19.9741375  16.1040998   6.0094222  18.6947227  16.8102360
   4.0852984  60.1990986   9.4379067   3.3178004  60.7095098   9.1797066
   3.7238845  59.3937731   9.8081285  19.2536477  29.9432508  58.9721773
  18.4002474  29.6158926  59.2563925  19.6892480  29.1794960  58.5938117
  71.8408394  56.2346077  24.9205780  72.4871016  55.7701397  24.3887424
  72.3011208  56.4355993  25.7354259   0.8930262  62.0928812   8.1322998
   0.5983599  62.0082903   9.0390778   1.7675265  62.4762678   8.1994140
  73.8501883  33.2923436  13.6564374  73.7056637  32.3776484  13.4142077
  73.9959335  33.2695007  14.6022010  56.5554312  24.0695325  70.6671837
  56.1935023  23.4368078  70.0467781  56.3183383  23.7237493  71.5276790
  67.1086740  33.4513879  20.5886912  67.1529818  34.2172885  21.1611128
  66.6812229  33.7707210  19.7939956  85.3763294  69.3048191  32.1477818
  85.8647919  70.1078320  31.9666719  85.5229568  68.7563181  31.3771439
  33.5968331  20.0943510  58.6263642  33.4213284  19.3145267  58.0997667
  32.9632023  20.7409231  58.3154175  52.4771786  77.9981852  17.8571177
  51.7891884  77.5195122  18.3194733  52.0257282  78.7436628  17.4612844
  45.7625130   9.1224424  64.3853245  45.9009865   9.6324102  65.1834414
  46.4993981   8.5120336  64.3602488  59.4397545  46.2249708  15.3181124
  58.7937450  45.7361603  15.8279812  60.2852058  45.9230995  15.6502616
  51.3695192   6.3695836   9.0796208  51.4359140   7.1858150   9.5751911
  50.9356022   6.6193289   8.2637918  82.2965145  72.3306322  41.3689661
  82.8470421  72.1693802  40.6027126  82.5051212  73.2278347  41.6292381
  90.1680538   4.2082666   2.8095195  90.0326129   4.1406893   3.7546760
  89.8027440   5.0615381   2.5756156  52.7612162  46.3427162  19.0767884
  52.4990654  47.2264862  19.3345940  53.4535742  46.1083889  19.6948183
  71.5047073  71.2696838  29.3656874  72.3268080  70.8538294  29.6253896
  71.2462187  71.7865276  30.1287675  66.2400293  81.8691921  31.2959409
  66.1820412  82.0571518  32.2327113  67.1142292  82.1679020  31.0453844
  44.8649073  28.9892530  22.6903915  45.4829359  28.6579132  22.0388651
  44.4994450  28.2028008  23.0955601  10.3729685  61.1078167  31.6411424
  10.7814845  60.3949928  32.1322846  10.7047232  61.0050011  30.7491803
  76.0685825  81.9956398  32.0515609  76.1570692  81.9088078  31.1024237
  76.9673395  81.9662666  32.3795843  90.4060936  72.6906013  15.3610396
  90.3127289  73.3377600  16.0601127  90.2577019  73.1854200  14.5552051
  39.0196065  30.6959001  60.3786657  38.1835011  30.6231300  60.8389578
  39.1386775  31.6362945  60.2455554  69.5195464  22.1146814  62.2299561
  70.3559283  22.5616256  62.3600933  69.6142272  21.2872020  62.7017042
  66.1385155  75.0547647  27.4358416  66.1352587  74.3751097  26.7618346
  67.0553255  75.1235056  27.7022409  58.8699034  19.6727411  73.7085207
  58.4066561  20.2114622  73.0671034  59.7810057  19.9601881  73.6493557
  79.4428539  63.0682898  33.9798284  78.7975264  63.0382109  34.6861410
  79.6797466  62.1526098  33.8326836  89.5961857  43.2480812  13.4010994
  88.9289188  43.4856081  14.0449762  89.1073608  43.1079865  12.5901401
  86.9332695  40.6268692   9.9854392  86.1031151  40.9018421  10.3746247
  86.7476273  40.5581474   9.0489316   2.1837100  77.9931355  23.4729242
   3.0058535  78.4819555  23.5098839   2.0441588  77.8293562  22.5402212
  57.7266026  26.8876886  22.9601026  58.1679678  27.0414662  23.7954378
  57.9823112  27.6308703  22.4137282  46.6469669  79.2517233  15.6900477
  46.2653446  79.8186398  16.3602734  47.5291634  79.0629816  16.0099459
  60.1416636  58.9382267  62.8805304  60.7042837  59.6320438  63.2244873
  59.2926550  59.3607283  62.7504873   8.3849505  45.7050935  59.2301104
   8.1599454  44.9328653  59.7490260   8.2038668  45.4473440  58.3262250
  67.3706102  79.3534756   8.6387187  67.0406055  79.9252558   7.9456151
  67.9568338  78.7452269   8.1885970   0.7136682   6.1828271  71.5878740
   0.9358576   6.9859401  72.0589106   1.5423325   5.7087604  71.5185544
  29.4149331  16.6280786  46.6240976  29.0887383  17.3978511  47.0902297
  30.0763014  16.2568800  47.2080753  24.6084004   7.8258013  21.3354111
  24.7851925   8.5672258  20.7563925  24.5077782   7.0793127  20.7447624
  22.3387795  18.1393885  29.1830373  21.5934258  17.6629614  29.5486784
  22.1716671  19.0546583  29.4079423  22.6535662  61.0603714  15.7573235
  22.9538497  60.6575680  16.5720689  21.7018279  61.1053753  15.8489573
  71.1665106  83.3890247  11.8162799  71.8448162  82.9040432  12.2863042
  70.9990168  82.8670311  11.0316157  88.3712387  75.8118725  29.1942382
  89.2032146  75.3446484  29.1184473  88.4512329  76.3133907  30.0056028
  63.1682253  59.9909019  12.3310506  62.2356319  59.8686790  12.1533906
  63.2382917  60.8975315  12.6299512  90.1327515  49.2698956  28.9854574
  90.8354473  48.6603498  28.7598515  89.4189358  48.7100601  29.2908788
  32.9269104  21.6766714  49.6401119  32.5702934  22.3754095  50.1885843
  33.8725929  21.8244719  49.6487188   4.3369158  74.0669346   8.3133602
   3.4933623  74.2765379   7.9124665   4.3999251  73.1136417   8.2542449
  39.8578339   4.0163301  24.9358654  39.9938946   4.9276899  24.6767569
  40.2548771   3.9524530  25.8044887   5.5760821  61.3673162  35.8395457
   5.1800212  60.7469177  35.2276015   4.8322924  61.8237448  36.2328458
  20.6251868  84.2867565  27.2411036  20.3552970  85.0939465  26.8031073
  21.3071688  83.9240265  26.6758132   7.4691638  61.0535765  31.3939548
   8.3468588  60.9696198  31.7665648   7.1359118  61.8775177  31.7493343
  19.2667179  16.0054087  15.8984816  18.7213020  15.8729338  15.1231098
  18.8918285  16.7752241  16.3263524  86.3555622  49.5395517  26.4244008
  85.5679131  49.1233015  26.0742831  86.7005444  50.0523424  25.6934667
  40.8856515  16.3684694  71.5856740  40.9613303  15.8344165  70.7949177
  41.6771487  16.1693803  72.0858044  71.5620300   7.3007463  21.9683075
  71.1463186   7.7193045  21.2145042  72.5007364   7.3787760  21.7980909
  11.5951424   5.5382227  50.6020784  12.0717506   4.9785112  49.9890518
  10.7479410   5.1063990  50.7116556  17.0252161  14.8133825  31.0586834
  17.9397898  14.8240351  31.3409448  16.6466742  14.0539717  31.5016699
  82.4926472  61.8470812  21.2419081  83.0428505  62.5610971  20.9198999
  83.0782604  61.3197756  21.7852664  79.0427971  60.0993013  29.9847841
  78.8190413  59.3920660  29.3798208  79.8089266  60.5173349  29.5916843
  85.3667736  55.1612377   1.3670623  86.0138035  54.4620562   1.2736641
  85.8560848  55.8912897   1.7463127  44.0953617   5.7404398  69.4198275
  44.1784744   4.7890924  69.3544912  43.1530170   5.8945059  69.4867754
  81.8530178  65.4783726  62.8376913  82.6306057  65.7630348  62.3575354
  81.1702728  65.4119158  62.1701002  89.2891693  83.6234093  44.4656563
  88.8071823  84.4458866  44.5520163  90.2104473  83.8812065  44.4974947
  79.0843848  21.0541908  58.1323645  78.2396296  21.3074056  57.7602038
  79.0896109  20.0981275  58.0860374  44.9418926  72.2803450  23.2274771
  45.6607246  72.2411871  22.5966144  44.9759960  71.4386272  23.6819863
  15.0618704  61.0088921   7.7273780  15.4363211  60.8443689   8.5927993
  14.1317614  61.1618137   7.8939712  77.9161501  83.0862522  67.7314091
  77.4913788  83.7897682  68.2221842  78.0148506  83.4373379  66.8464088
  80.2854041  60.2000372  68.8020918  80.9676818  60.7073347  68.3623514
  80.6379298  60.0314371  69.6758983  62.7128582  17.8659033  37.4223113
  63.4014206  17.5998186  36.8129563  62.9233818  18.7739443  37.6399446
  89.3111801  39.9120998  20.1935220  89.7549152  40.3197861  19.4498026
  88.4366512  40.3012466  20.1933193  53.0553436  79.1079426  14.8115945
  53.7934875  79.5747900  15.2032948  53.4300184  78.6615467  14.0522659
  74.4012185   0.2468561  56.1843538  74.1728279  -0.6783701  56.0947895
  74.1525575   0.4691767  57.0815563  59.9843740  82.1804810  33.3561873
  59.2157412  82.7493191  33.3130884  60.7287550  82.7776527  33.2819915
  81.0967132   2.4548887   5.3516394  81.7041942   3.1621908   5.1350504
  80.3241226   2.9006647   5.6989509  20.2468375  33.4719411  71.1493224
  19.6051816  32.8746835  71.5337611  20.6874970  33.8667242  71.9017855
  64.3218708  81.4048100  11.7677164  64.6835613  80.8841705  12.4848962
  63.7449360  82.0362663  12.1974170  87.4498177  45.1129961  38.6934209
  88.3918190  45.2828884  38.6900902  87.0501328  45.9808302  38.7512827
  10.7642420  82.9900455  30.5990815  11.1769065  82.1268082  30.5715585
   9.8724803  82.8196621  30.9023237  64.0775061  68.4406090  67.4417639
  63.8647604  67.9373121  68.2276821  63.2462597  68.8348722  67.1775198
  63.8442877  26.1783258  65.9990553  63.7615374  25.9489624  66.9246772
  64.2302874  27.0542375  66.0029278  43.2726145  58.1828737   0.5114629
  43.5434723  58.9178276   1.0616577  42.4032402  58.4282875   0.1949373
  65.5452633  68.9273739  16.4097941  65.6923723  68.9777088  17.3542809
  64.8740673  69.5874262  16.2364233  58.6096362  31.1779443  73.1175016
  59.0972403  31.4540187  72.3414511  59.2743758  30.8099548  73.6996796
  28.6754398  22.4983286  32.4903965  29.6216564  22.3927378  32.5891685
  28.3105450  22.1674894  33.3111477  47.7156496  68.1458092  34.2109919
  46.9634056  67.5863552  34.0176773  47.3640490  68.8326406  34.7774458
  13.2618197  48.7052298  30.7349896  13.6459693  47.8664207  30.4799271
  13.1924399  49.1958094  29.9159980  69.8483924  24.7516481  70.6231606
  69.3023566  25.4279558  70.2223042  69.2784766  23.9844982  70.6771052
  13.0569323  80.1034737  17.1326447  13.0467757  79.7667694  18.0286133
  12.3208865  79.6665382  16.7042148  69.3647146  77.5308180   0.9415912
  68.5599947  77.0236826   0.8344954  69.4823360  77.9737234   0.1012145
  18.4365969   0.4085230  21.8126678  18.9198999  -0.2112986  21.2663484
  19.0524654   1.1255621  21.9636226  63.1435851  31.6837446  68.9036391
  64.0849951  31.6512863  69.0737322  62.7954177  30.9027139  69.3337605
  74.1409847  30.4803251  39.6472311  74.9066135  30.4433702  39.0739298
  74.5041200  30.6051325  40.5240393   5.2907496   1.2894033  22.5379610
   5.9902792   0.7871031  22.1201229   5.6099968   2.1917891  22.5363350
   0.2725657  65.3083229   9.4990623   0.6942996  64.5034742   9.8000401
   0.9684809  65.9652376   9.5188862  81.5927124  43.2921124  26.1955786
  80.7917023  42.8101444  25.9898472  81.7031097  43.8973284  25.4622579
  41.3814763  10.0564233  50.5424712  40.4865292  10.0520317  50.8820031
  41.5960911  10.9841386  50.4449341  46.0761499  70.1698351  18.6442721
  45.5064917  69.6661043  18.0629170  46.9196606  70.1925850  18.1923783
  61.2518454  77.9809093  46.7368031  61.3285398  77.7320147  47.6578903
  61.8606663  77.4002457  46.2802982  39.6839218  18.2446550  50.1832914
  40.1738339  18.6832785  50.8788681  40.3288250  18.0994677  49.4910145
  53.2403183  84.6056271   4.3512869  52.9546309  85.1432896   5.0898886
  52.4992752  84.0254879   4.1765738  10.4938536   2.4237608  35.1692247
  10.2223377   2.3707460  34.2528725  10.7090979   1.5221094  35.4078054
  71.6645050  67.8571510  23.8399911  71.3715744  67.0991850  24.3458700
  72.6125622  67.8799868  23.9699793   4.9276142   2.1518301   8.6210328
   4.4302254   1.5191912   9.1392988   4.2832260   2.5314306   8.0236191
  34.9988728  11.6281961  32.7890325  34.7088795  12.0659803  33.5893345
  35.8724480  11.9833635  32.6248240  69.3776608  72.7670431  34.9577975
  69.5239162  72.8247786  34.0136027  70.2179337  73.0113792  35.3457069
  68.9135885  47.1962261  57.9781866  69.4106054  47.8632259  58.4518147
  68.1307077  47.0574141  58.5111618  62.9108616  24.9572920  27.7656412
  62.2485420  25.1581072  27.1044016  63.3106300  25.8029627  27.9687619
  73.2156706  79.7068787  25.0090933  73.6701822  80.5003071  25.2921391
  72.9869032  79.8750782  24.0949774  25.4545670   2.0943617   5.0961864
  24.5739536   2.2323393   5.4450530  25.3129749   1.6749453   4.2474967
  65.9970999  82.6346874  33.9327526  65.3565264  81.9546795  34.1412735
  65.6900120  83.4068108  34.4078922  86.6610241  76.2482691   9.9352807
  86.6217232  76.8712234   9.2095947  85.7452869  76.0882998  10.1634741
  74.4748000  26.8458215  71.8960500  73.6759451  26.8055908  71.3702646
  74.2510298  26.3892070  72.7070108  82.4447106  52.1970319  41.3027761
  82.0951985  51.4702301  41.8183658  82.9449080  52.7177273  41.9311926
  56.1530018  21.1131454  37.1556997  55.9688711  20.2456331  36.7954898
  56.6696548  20.9409094  37.9428697  40.3099298  14.6068513  27.3059726
  40.3978348  13.6611509  27.4249506  39.3940759  14.7329378  27.0579004
  30.2522734  67.1740080  23.4916902  30.5268077  67.5921083  22.6755691
  30.8992795  66.4836241  23.6365652  77.8515768   6.7802495  23.9947510
  77.1965933   7.3693848  24.3691158  78.2318783   7.2750950  23.2689905
  63.9976238  44.5218487  63.2654879  63.3662675  43.9215093  62.8689859
  64.4936226  43.9779746  63.8773868  88.8736723  61.3831525  72.1029111
  88.7818001  60.4418867  71.9552279  89.5526455  61.6571860  71.4863599
  66.2076139  18.4514022   3.1420115  65.3207159  18.5428178   3.4902710
  66.4530802  17.5489163   3.3457223  15.8376796  65.4488246  69.1706852
  15.9946353  66.0612123  69.8894203  15.9247501  65.9806221  68.3795837
  69.9121761  13.0223310   0.6588956  70.7248402  13.5281026   0.6608506
  69.3047953  13.5469913   0.1373145  22.5955350  24.2975776  69.1965267
  23.0900247  24.3153017  68.3771369  22.9046209  23.5109251  69.6458328
  26.5378550  78.4140093  28.9272261  26.6283206  77.5198258  29.2565966
  25.6384257  78.4599645  28.6029601  11.3470125   2.1540067  11.8568671
  11.3096023   1.2946153  12.2767222  10.5171990   2.5705609  12.0895159
  34.0275407   9.7278416   7.3326695  33.7651944   8.8148427   7.2150332
  34.0677953  10.0818515   6.4442503  38.5429120   3.9208519  20.9278083
  39.3782973   4.3034855  21.1960506  38.0741286   3.7697682  21.7485666
  22.0139340  83.0666591  23.1804800  22.3180750  83.8291732  22.6882362
  21.9354704  82.3738975  22.5246167   8.1830376  13.4018564  19.9478912
   8.6250907  13.9885342  20.5615926   7.5448495  13.9585876  19.5017982
  56.0752630  18.1712937   9.1642177  55.7544899  18.7614882   9.8461318
  55.7008410  18.5160124   8.3535343  16.5155486  84.8541233  24.6230507
  17.2468833  84.5942850  24.0628147  16.9304255  85.2268347  25.4009938
  14.1250038  26.8038201  32.5808644  13.3555806  27.0461273  32.0655894
  14.1494441  27.4452591  33.2909298  48.5705709  23.8887858  27.0406199
  48.5431528  23.9929581  27.9917407  48.4953356  22.9448485  26.9007921
  38.2621646  34.5329118  22.0179129  37.7046919  34.1536117  21.3385129
  38.6911082  35.2738094  21.5897655  79.2856024  77.9954283  66.9632194
  78.9326666  77.6176589  67.7687994  78.5786627  78.5464518  66.6273067
  54.9838209   0.2431297   1.4936204  54.7524738   0.7951004   2.2406405
  54.4163132  -0.5231503   1.5771684  52.8848909  54.7259634  73.5492678
  52.3466562  54.2143946  72.9452524  53.7637995  54.3581812  73.4571315
  33.7876987  52.9524374  35.7629395  33.7553883  53.7970591  35.3137136
  34.6980381  52.8663635  36.0459733  17.1031884  78.1363739  33.0129528
  18.0484465  77.9945476  33.0639434  16.7288521  77.2554333  33.0059004
  13.2218702  78.2159441  49.9452469  13.4393127  79.1480320  49.9325511
  12.2898347  78.1903570  50.1617787  80.0327681  45.9676756  73.6335939
  79.3695782  46.6124009  73.8800443  79.6288680  45.4677692  72.9242349
  33.4590987  76.7064900  15.5331838  33.9655188  76.5037597  16.3197410
  33.5435704  77.6545365  15.4316771  78.8322306   4.5194101  16.1042106
  78.9803696   4.9038899  16.9681907  79.5408869   4.8669654  15.5626869
   2.8804214  57.6497762  44.8337362   3.2951934  58.4819608  45.0610325
   2.7377231  57.7035062  43.8887594  76.2355645  66.8646039  30.3819776
  76.3244564  67.8140260  30.4652023  77.1342606  66.5364076  30.4114032
  51.3082293  14.8253242  59.4714830  51.8174151  14.9627248  58.6726770
  50.8177737  15.6393186  59.5858738  24.7461557  26.4110875   3.0580077
  25.0042486  25.8994627   2.2912866  24.8182678  25.7985640   3.7900245
  74.4436787  75.3031819  57.3490295  74.9745701  75.3927200  56.5575955
  74.9657677  75.7178443  58.0358383  55.1017141  22.1980548  22.9611468
  55.5591583  21.3572550  22.9670620  54.4512177  22.1217251  23.6591816
  29.4121913  83.6608120  19.5417440  30.0348357  83.2475142  18.9436376
  29.9025038  84.3813149  19.9376035  75.7633347  51.0123325  36.3325739
  75.0624807  50.3654004  36.4132857  75.3393705  51.7775465  35.9440732
  83.6385031  84.2286756  27.2336817  83.2018108  84.5222875  28.0332565
  83.0421324  83.5802553  26.8593478  54.7250699  43.8838167  58.8067386
  55.4258703  44.1874872  59.3837104  54.0106247  44.5043956  58.9505443
  49.5767382  82.5550086  17.0931196  49.0492657  82.5341997  16.2946391
  49.8530558  83.4678900  17.1739161  31.2792090  67.6798309   8.7334007
  30.7899455  66.9191600   9.0468234  32.1748236  67.3601724   8.6242086
  14.7542456  82.0119376  49.3974829  13.8173321  81.8163426  49.4103479
  14.7991494  82.9679615  49.3822002  75.0153351  12.3699033  45.5789137
  74.1673088  12.5030768  45.1554108  74.8147726  11.8533969  46.3594437
  90.5489464  80.1258094  28.1015658  91.1341853  79.7992195  27.4181437
  89.7390861  80.3428699  27.6397872  17.1144323  33.4134980   4.5847013
  16.3761311  32.8539272   4.3438318  17.3952131  33.8081362   3.7590768
  66.7226219  42.5906897   7.4325615  67.0755816  43.4496641   7.2005701
  65.8674955  42.5593185   7.0036036  42.0504236   3.3839613  47.9569101
  41.2015724   3.0046609  48.1845331  41.8487310   4.2819542  47.6939249
  14.3587720  24.5181704  21.6452599  13.8713658  25.2945638  21.3697982
  13.7268972  23.8023233  21.5779543  39.6492863  10.9442937   3.0498409
  39.1115355  10.7221925   3.8099247  39.8773670  11.8649626   3.1786057
  34.4091773  32.4833393  17.2680628  34.5668507  31.6648364  17.7386189
  35.2645898  32.7234721  16.9119167  73.7791012  75.1772468  65.7623527
  74.6266650  74.9473159  66.1431388  73.8107394  74.8207347  64.8745862
  58.1769323  15.2168477  22.3281217  57.3030949  15.6044888  22.2794008
  58.3777571  14.9648428  21.4267921  29.7480563  82.9632539  24.8865938
  29.5740155  82.5615827  25.7378292  29.4723204  82.3039503  24.2497873
  71.8182516   8.4312904  16.4860773  72.4649239   7.8579491  16.8975723
  71.8643093   8.2147378  15.5548334  60.1011346  56.3569264  73.5077114
  59.2504357  56.2840657  73.9404144  60.6288074  55.6601493  73.8979613
  69.6330070   8.2364696   6.2659127  70.4452038   8.5247540   5.8494276
  68.9408827   8.6703503   5.7669729  42.0886353  70.8080495  17.5693369
  42.2615222  70.2151729  16.8380094  41.1923913  70.6039477  17.8364110
  43.5143566  11.2351871  29.2015815  43.9612436  12.0349669  29.4788432
  44.1311789  10.5326521  29.4070268  54.2527507  43.8462565  72.6594542
  54.2924093  42.9127014  72.4517680  54.2461060  44.2812358  71.8068228
  13.3849028  69.4973827  14.2253065  13.0527762  68.7832607  13.6812913
  12.6635054  70.1254059  14.2627537  61.6681194  10.5140972   5.2982354
  62.0969152   9.6629918   5.2088749  60.7637691  10.3563058   5.0271600
  43.1574774  11.3825178  19.1306150  43.8642263  10.8566618  18.7561572
  43.4391689  11.5577114  20.0284958  45.0737858  11.7030704  21.1537194
  45.3494453  10.7870913  21.1187315  45.8905602  12.2006547  21.1147642
  38.0948210   7.8325129  11.4164627  37.2917128   7.6721847  10.9209383
  38.7862062   7.4348205  10.8872557  13.9736060  83.7114518  24.0631580
  13.5713605  83.4715457  24.8979497  14.8476199  84.0224060  24.2990351
  35.2701644  60.9512545  22.9146910  36.1434058  61.1671425  22.5874686
  34.8450068  61.7995859  23.0404162  40.6724977  27.2179270  15.4072905
  40.5167818  28.0600429  15.8348715  40.3058100  26.5715528  16.0105920
  19.9875791  26.4251773  74.4436454  19.5682199  26.5757113  73.5964694
  20.7385308  27.0187204  74.4480020  29.9278668  69.6387411  52.6647520
  30.0541428  70.5813302  52.5560617  30.4328183  69.4181193  53.4474277
  16.3077450  29.0966082  19.3006372  16.0755813  29.9936485  19.5407367
  15.4703963  28.6343622  19.2631185  16.4015797   7.4193231  71.1013660
  17.1638898   7.7106992  71.6015864  16.7398242   6.7311565  70.5284349
  69.6757315  73.1251471  69.0155742  68.8257264  72.8144472  69.3273238
  70.0512694  73.5874813  69.7648749  72.5136423  26.1193562  -0.1446179
  72.9696560  25.4701519   0.3909344  71.6241741  25.7764101  -0.2310584
  66.0562252  24.9098032  64.9448953  65.1408552  24.7344284  65.1630119
  66.0198067  25.3527861  64.0971503  90.8065319  49.5826435   7.6627111
  91.2990379  49.6292067   8.4821594  89.9014759  49.4319201   7.9354638
   5.0308183  83.4048892  19.5614660   5.1512865  83.1248696  20.4688287
   4.6384171  84.2753045  19.6295154  73.3942938  33.6233521  23.5104203
  72.5692892  34.0025067  23.8134694  73.2005405  32.6938081  23.3894277
  52.4659204  40.6663322  14.2177045  52.1118641  40.8547354  15.0868320
  51.7042637  40.6903124  13.6384499  60.5994892  10.2582633  26.7752552
  60.7392073  10.4296422  25.8439445  60.4648256  11.1240840  27.1605492
  66.9458485  53.9907265  17.3784375  67.7662182  53.9674139  17.8710651
  66.7163420  53.0701351  17.2516799  13.2457978  41.3055492  72.3399546
  13.5560233  40.6727700  71.6922024  13.9959724  41.4436856  72.9182211
  42.9980659  41.6038227  14.4957030  42.9757214  42.0189238  13.6334825
  43.7155342  42.0415974  14.9537671  57.8463173  17.0147538  13.9553416
  57.9905510  17.7567148  14.5426416  57.9959679  17.3701382  13.0792499
  81.6611099  12.0476782  31.4273095  81.3228226  12.9020143  31.1591697
  82.5229454  11.9910800  31.0146713  68.2242012  41.0434723  27.2633314
  68.1288338  40.1644993  27.6301289  68.4051704  41.6005802  28.0203748
  61.3720322  12.3953009  29.4824100  61.4233160  11.8321216  30.2547002
  61.9607067  11.9861865  28.8481236  36.9604206  20.9118176  29.7010708
  36.8912530  21.6397309  30.3188014  37.7574277  21.0948038  29.2035484
  39.8376775  56.6001940  15.6075191  39.8207760  55.9648752  16.3232791
  39.0441465  57.1210909  15.7308340  65.3202820  35.7189226  11.8420327
  65.6748962  36.5191293  12.2295249  64.5082188  35.9973216  11.4186203
   4.6622637  78.5282553  34.3808913   4.0241245  78.0166955  33.8835788
   5.5001668  78.0988182  34.2084575  45.8376217  40.1045418  22.8146672
  45.2280283  40.4354668  23.4743023  46.0590267  40.8717442  22.2868323
  44.2069626  18.5752881  22.4100566  44.9392891  18.0728579  22.0529866
  43.4748077  18.3800948  21.8251824  65.6108665  33.1701803  39.1012168
  64.7396040  33.4652615  38.8365293  65.5988789  33.2154155  40.0572729
   9.2145280  72.6702345  46.8605042   8.4825543  72.7785660  47.4677181
   9.6433858  73.5258842  46.8472624  47.0751451  74.8885171  61.1442277
  46.6531681  74.1773312  61.6262863  46.8280040  74.7389572  60.2316568
  77.1749401   2.6686564  25.7344604  76.8553782   3.5686305  25.7989526
  76.7395496   2.3148945  24.9588823  56.7566729  13.4272540  52.1219206
  56.3523006  13.8778162  51.3804960  57.5453091  13.9360118  52.3101854
  68.8158178  19.8572147  12.2080135  67.9147196  20.1112509  12.0087075
  68.9156485  18.9939737  11.8066645  59.1063881  33.8396311  26.0436821
  58.6371756  33.2535505  26.6374660  58.5135555  34.5810556  25.9209251
  60.7342958  42.2900391  14.7006631  61.4867449  42.2064638  14.1149473
  59.9740648  42.2589922  14.1198707  47.2959518  22.9428363  17.7657819
  46.7876911  23.2926631  17.0339870  48.1878805  23.2520390  17.6073956
   4.7184903  73.2310097  72.9226625   4.9298913  72.3115413  73.0842756
   4.0771110  73.4516041  73.5980895  34.7109440  78.2522578  24.8283958
  35.3114298  77.5111849  24.9087620  33.8940791  77.8655292  24.5131159
  89.8083878  29.9103355  23.6408663  88.8788128  30.1208496  23.5524821
  90.1976871  30.1928926  22.8133202  79.0216541  21.4188385   1.3368466
  78.5318041  21.1070776   0.5758709  79.9399614  21.2879038   1.1006346
  36.1707330  18.2846069   1.8462062  36.8741202  18.8618290   1.5490656
  36.5131521  17.8806281   2.6435658   3.8065822  69.9870484  65.1247701
   3.8359267  69.4229858  65.8975593   4.6079833  70.5077999  65.1777712
  44.8649025  33.0224681  26.6693592  45.3408957  33.5889864  27.2765803
  44.7810221  32.1899629  27.1342564   8.6359080   9.6758091  12.7900457
   8.8889750   8.8107216  12.4678481   9.3762835  10.2402556  12.5676060
  36.4165330  44.2724705   1.4520943  36.6066146  44.0164375   2.3546177
  36.9879246  43.7182522   0.9205075  72.2834919  83.1210344  69.9568803
  72.1899460  84.0648525  70.0860596  71.4005803  82.8199880  69.7422514
  33.9920020  28.2695818   6.8832350  34.2037344  27.6624131   7.5922805
  34.7772121  28.2818723   6.3359463  10.9430415  60.3089016  63.5309408
  11.7801387  60.7253675  63.3258555  10.3086431  60.7587485  62.9729006
  77.4737544   1.9654790  68.4468303  77.1381457   1.6659586  67.6019130
  77.7023752   1.1610595  68.9125261  55.9321833  45.7811499  10.8598351
  55.1328373  45.9256458  11.3661897  56.0340309  46.5785980  10.3402793
  72.9670763  20.3484416   1.4712875  72.0544672  20.0962162   1.3307388
  73.4749222  19.6499240   1.0584944  18.0560139  23.6266557  52.6271794
  17.4938325  23.6508981  51.8528435  17.4985579  23.2660190  53.3166835
  80.5326176  12.9562390  10.0619018  80.3279209  12.0301127   9.9329680
  81.2805367  13.1185174   9.4870013  43.1503895  63.4245134  22.3886752
  43.0321864  63.2846952  23.3282018  42.7423028  62.6613189  21.9797397
  61.9832230  11.7783439  69.2210770  61.7137623  11.5455508  70.1095724
  62.4950981  11.0270548  68.9214420  44.9316406  47.6373768  12.0964515
  45.5712271  48.3327389  11.9427073  44.5024586  47.8836060  12.9158449
  38.9567661  31.0684013   4.6476161  39.6577525  30.5637598   4.2350820
  38.2517886  31.0727310   4.0001434  64.3042612  30.9642410  46.1410379
  64.1852283  30.0455213  46.3819075  63.8946009  31.4538550  46.8542576
  24.6140841   5.2203552  52.9023573  23.9480809   4.8289148  52.3371599
  24.3816355   4.9286691  53.7839005  61.4698076  28.2488036  13.0716980
  60.7398081  27.6725507  13.2981265  62.1016455  27.6756406  12.6375389
  56.2070084  27.0237017   8.5634339  56.4578104  26.2112498   9.0030360
  56.1030722  26.7766047   7.6445371  13.7451104  79.3966968  40.2638388
  14.6728257  79.2187465  40.1092291  13.7236861  80.3007592  40.5775976
  78.2117701  25.1838517  12.3389852  78.0263233  24.2563939  12.1917903
  77.6469421  25.4275918  13.0723274  75.7568169  42.7342939   9.6796334
  75.1103401  43.0574608  10.3072155  75.2826834  42.0848703   9.1603267
  55.8929777  42.4594927  14.3456697  55.7347441  43.3564281  14.6401095
  55.2708149  41.9302893  14.8447561  47.3272208  12.1354620  70.8383492
  47.7089099  11.4544717  71.3922388  46.4821652  11.7773811  70.5665175
  41.5733201  75.6553500  65.2628443  42.2819860  75.3415935  64.7010783
  41.1637838  76.3599508  64.7607956  44.0338755  63.3396959  15.8989108
  44.0039015  62.9070520  16.7522299  44.9157715  63.7083530  15.8481312
  76.5280962  13.1508505   2.2339314  75.8849716  13.7465739   2.6182917
  76.9689655  13.6739302   1.5644139  43.9522294  22.7433435  25.0714800
  44.7218731  22.2238342  25.3038475  43.9836100  23.4955398  25.6626198
  42.4762344  22.9887795   9.6160185  42.5895834  23.8891506   9.3115211
  42.4243450  22.4693441   8.8136935  44.4800806  31.1934090   8.1401372
  45.1374149  30.4979610   8.1177700  44.9833918  32.0018864   8.0438471
  29.5567131   8.6818320   0.0733966  29.9312472   8.5364175   0.9421948
  28.6915970   8.2742286   0.1142384  64.8290132  78.9223235  74.1486316
  63.9974021  78.4913986  73.9512548  65.4782151  78.4328859  73.6434370
  51.8632530  85.3920572  29.6569416  51.9954990  84.6075885  30.1892540
  51.2812518  85.1079242  28.9521191  84.2070675  37.3248053  11.9574666
  84.8606491  37.6188540  12.5919712  84.7182560  36.9160581  11.2590086
  50.4134105  73.8419144  73.8698922  51.1443637  73.2433097  73.7162395
  50.7738136  74.5175808  74.4441904  75.7363080  81.6902845  67.3703036
  75.4689215  81.3515179  68.2246891  76.5393303  82.1801631  67.5475178
  69.3889523  39.2919278  13.9383829  70.1474285  39.2336726  13.3573902
  69.6500111  38.8085794  14.7222543  49.1718292  17.6944399  21.2387156
  49.5309114  17.8483057  22.1125674  49.8420143  17.1771693  20.7920432
  25.4213691  39.0406966  24.7494030  26.3248777  39.2060065  25.0188065
  25.0339198  38.5694361  25.4869843  66.6595602  26.4634156  53.9621162
  65.8689976  26.9307494  54.2319965  67.3794556  26.9902086  54.3092108
  46.2549041  68.8346307  53.8241908  46.8832980  68.2994192  53.3395216
  45.6328975  69.1334169  53.1608174  62.5236750   4.7342500   2.3767647
  62.6168060   5.6835568   2.2969219  62.7473021   4.5474941   3.2885456
  21.7206383  45.6909895  17.2020006  21.8098903  46.1358881  16.3591897
  20.7758284  45.6385088  17.3462641  70.9409809  21.8426085  35.5106759
  70.0913763  21.5864778  35.8695626  71.4167452  22.2060370  36.2575340
  65.1365422  58.9369683  72.2689121  65.7739757  59.1574876  72.9480893
  64.2968558  59.2271404  72.6252196  74.7688674  46.6214858  68.4591780
  74.8922061  46.6180347  67.5099633  73.8291930  46.4841722  68.5791067
   6.8124015  79.9042957  57.8452561   6.3160951  80.3466957  58.5338769
   6.1770589  79.7670643  57.1425900  88.9033508  11.5483367  25.7762074
  88.7667370  12.4734163  25.9806442  88.3741093  11.0797203  26.4215970
  72.4417543  23.8341737  56.4853716  71.6554832  24.0733814  56.9760704
  72.8392887  24.6716285  56.2469053  12.4521692  58.0801981  63.4527430
  11.8462856  58.8210456  63.4694085  12.2844941  57.6151710  64.2724178
  68.6774969   9.4310361   3.8557661  68.9263344  10.3535628   3.7987220
  68.6388063   9.1366887   2.9457691  84.9856471  42.5970592  50.2626440
  84.6340464  42.4228876  51.1357257  85.2840565  43.5057257  50.3014991
  81.8338966  14.5317984  29.6732569  82.5180435  15.1991987  29.7256827
  81.6878700  14.4116890  28.7349176  70.0623417  10.0039089   0.8834071
  70.1039076   9.5364714   0.0491374  69.2921400  10.5667567   0.8044729
  52.0274496   5.1259685  21.4956880  52.9463100   5.3256506  21.3166428
  51.7416668   5.8227021  22.0865536  77.1451998  33.4457922   7.3416454
  77.3761225  33.0148077   6.5187478  77.8675747  33.2351470   7.9332823
  67.7829027  18.1202686  44.0988731  68.5209703  17.5111055  44.1189766
  68.1062460  18.9031076  44.5447922  66.2040924  71.6798799  53.7129972
  67.0658134  71.3134067  53.9114091  66.3297962  72.6275294  53.7619135
   2.0840481   5.7136051  49.5332668   2.5606850   4.9581234  49.1893313
   1.1957387   5.3892318  49.6813176  21.8126678  26.8737221  19.0962410
  21.5996456  27.1931911  18.2194328  20.9895992  26.9371128  19.5807743
   7.3729423  77.0608760  27.2264671   7.0971588  76.8038077  26.3466430
   6.9931725  77.9305024  27.3519945  70.0332497  73.3076303  51.6380975
  69.6751975  72.5477235  51.1792204  70.8930682  73.4444087  51.2403056
  72.0132828  64.0840101  29.4768882  72.9167032  64.2343712  29.7551799
  71.5245676  63.9837027  30.2937889  69.9851106  59.9048905  62.8260658
  69.4921492  59.8883193  62.0057342  69.8004483  60.7668536  63.1990967
  56.7705584  35.0037408  15.6552577  57.2836113  34.1965389  15.6930971
  56.9621420  35.4482412  16.4810586  90.8917950  75.4674284  58.5072253
  90.5955361  74.9926512  57.7306661  90.1507090  75.4243581  59.1115150
  33.3922986  14.6780578  72.3096377  34.3095950  14.5159618  72.0893573
  33.3723763  14.6791498  73.2666298  22.2933606  82.6355962  30.6000662
  22.3839692  83.5358981  30.9122825  21.3738993  82.5621886  30.3442788
  69.3607092  33.5313916   2.1480297  70.0814915  34.1410255   1.9897379
  69.0837336  33.7158370   3.0455238  39.5523603  48.4419267  69.1104189
  39.1865117  47.5774555  68.9231256  38.7991197  48.9675121  69.3799153
  52.9792213  36.0014009  13.3491623  53.3869219  36.7574835  12.9268408
  52.2711277  36.3736057  13.8748014  71.0564036   2.6706688  51.4631650
  71.2057061   2.3862688  52.3648593  71.9208224   2.6327220  51.0538099
  54.5028543  18.6155510  31.3105702  53.5709810  18.6855066  31.5178180
  54.8895025  18.2020974  32.0824432  41.5764236   3.3690947  27.2114325
  41.1848831   2.8782928  27.9339576  41.7485762   2.7095661  26.5394092
  44.5392466  67.2374392   4.3515331  44.6289062  67.8892851   5.0467247
  45.4125595  66.8545580   4.2681253  53.1999731  54.4169855  15.4033041
  53.9539289  54.9707603  15.2005243  52.8476620  54.7801876  16.2158251
  49.9924231  25.7667255  20.3736711  49.9004889  24.9763966  20.9057975
  49.9886560  26.4839983  21.0074949  34.8939729  24.9302340  14.9126863
  34.6143436  24.4389391  14.1402435  34.3340421  25.7065582  14.9184203
  75.3966665   8.2536542   8.1762421  76.2772751   7.8865606   8.2537514
  75.5164242   9.1938025   8.3104521   8.5809139  14.8502103  52.3837659
   8.1331733  14.5249120  53.1647537   8.6935238  15.7869951  52.5449631
  25.7711744  53.8909626   6.6435540  26.1447215  54.6068192   6.1295033
  25.6137466  53.1948233   6.0057163   8.7205752   3.2874665  12.6826322
   8.6625632   3.0445424  13.6066747   8.5627898   4.2315203  12.6728046
  38.8375023  85.8021101  11.4434350  38.2265738  86.5206581  11.2800860
  38.4319237  85.2986876  12.1493399  60.5439377  33.8065672  28.3009529
  61.3426352  33.3718276  28.0020976  59.9634552  33.7905598  27.5400209
  49.6469831  48.7683630   2.2032198  49.8706150  48.6520529   3.1266341
  48.7153053  48.9878702   2.2082233  57.8091860   1.9766788  13.7476993
  58.2387161   2.1856071  14.5772076  57.1708202   2.6792762  13.6249089
  35.1548982  17.2539437  35.7776761  34.4824457  17.9333436  35.8272243
  35.5804944  17.3993647  34.9327207  31.5560722  16.1505306   3.6534953
  31.2276244  15.2519274   3.6240613  30.7699561  16.6945601   3.6056662
  23.2645444  49.7827093  69.7409934  22.7652529  48.9808408  69.5862651
  22.7880553  50.4583875  69.2586521  41.4186954  19.8853743  27.1515155
  41.0635471  19.0335143  26.8976760  41.7919016  20.2394462  26.3443089
  62.9927158  32.8461909  27.5926828  63.2479191  32.7157164  28.5059619
  63.7534952  32.5585842  27.0879769  40.0861195  82.3500390  47.9263783
  40.8192328  82.9021333  48.1983519  39.4310263  82.9661635  47.5985432
  79.8249863  40.0650893  58.4759137  80.6126927  40.5653985  58.2627473
  79.3043517  40.6576149  59.0182099  69.2863248  66.0971968  59.6730647
  69.2137645  65.3534095  60.2711866  69.1695927  66.8658440  60.2314446
  54.0411568   2.9174036   0.0313863  54.0358210   2.0694742   0.4754798
  54.9236345   2.9920226  -0.3317818  82.5047684  18.1236017  24.8480082
  81.9662762  18.8418949  25.1801324  83.2606506  18.5552287  24.4497943
  38.6167769  66.0810750  71.3160822  39.3623476  66.0985582  71.9161249
  37.9237317  66.5493863  71.7814917  68.0229448  39.8759331  59.9195239
  68.0741952  40.5170347  59.2105851  67.6504658  40.3617879  60.6553469
   7.1243198  52.3888491  61.0492859   8.0237443  52.7163677  61.0499832
   6.5875871  53.1624477  61.2216077  31.0894537   8.6748004   5.5904299
  31.7009139   9.4091463   5.6459767  30.2789307   9.0624660   5.2602774
   0.4203517  63.2058876  56.5929553   0.3793437  64.1587679  56.5118990
   0.4899032  62.8916030  55.6915018  53.4968519   9.6705854  33.0511236
  53.2138062   9.5143181  32.1501803  53.2852650  10.5900383  33.2125854
  47.3889235  81.0989074   1.4374277  46.7738322  81.1481292   2.1691868
  48.1633309  81.5711043   1.7433022  31.1508805  59.1211157  67.8503088
  31.1629350  59.4028323  68.7650344  30.2962167  58.7046688  67.7391980
  11.9444764  28.5783696   6.6886610  12.0018423  28.9828253   5.8230066
  11.8174219  29.3134022   7.2885072   9.3234117  27.8362696  52.4053643
   9.7583968  28.6875360  52.3567149   9.9237497  27.2349994  51.9645665
  54.0709685  85.8369367  49.2367337  54.4390749  85.3024786  48.5331127
  54.0642403  86.7264907  48.8833544  31.4456517  74.1685717  65.6131515
  31.2109525  73.3311098  65.2133951  30.6511171  74.4478529  66.0680578
  34.5715502   6.0873310  57.3002658  34.7767094   6.9626180  56.9716141
  34.3377141   6.2248842  58.2182154  46.0958862  64.1637421  23.2784128
  46.1582947  63.2612562  22.9655957  45.4021502  64.1413355  23.9375496
  32.5912881  11.2483311  17.0363832  31.9654465  11.7009437  17.6017988
  33.0456066  11.9508970  16.5713787  89.5335960  15.6704545  10.8212161
  90.2296638  15.4262984  11.4312196  89.7610760  16.5568674  10.5405867
  74.9696636  36.6102147  23.6611676  74.9982023  36.3027716  24.5672011
  74.0616608  36.8829131  23.5292625  50.7590178  15.0041143  52.3359105
  49.8175315  14.9215309  52.1842310  50.8765486  14.7560922  53.2529185
  46.3918379   6.7412654  74.0271042  45.9157971   5.9284441  74.1972177
  45.8760050   7.4173729  74.4664615  62.3301935  21.1775541  16.4003229
  63.1991911  21.0094357  16.7647588  62.2119522  20.4959583  15.7387507
  45.1743078  20.3779149  12.6892853  45.2039480  21.2579823  12.3140073
  45.5108976  20.4854155  13.5788822  11.2970793  50.0882578  32.3130560
  11.6585767  50.5439472  33.0732512  12.0473254  49.6386003  31.9242501
  15.0526837  65.9120513  26.9082212  15.2347115  65.4020096  26.1189461
  15.1112918  65.2773691  27.6223469  81.3475747  12.8697959  57.9465220
  82.2730560  13.0552856  57.7874253  81.1879582  13.1913034  58.8338706
  54.3742943  62.2319460   5.1614195  55.0230837  61.8382692   4.5780504
  53.5571766  61.7802143   4.9505025  45.7525805  81.9752161  20.1133108
  46.4899472  82.4953298  20.4326868  44.9813584  82.3913110  20.4984260
  44.6407223  17.4478757  10.9009647  45.4683876  17.8363597  10.6176329
  44.7614765  17.2824073  11.8359888  79.2793417  15.6079578   4.3398407
  79.9487972  15.8042622   4.9952227  78.4618330  15.9122479   4.7339490
  80.9306812  19.3205309  40.6972122  81.0060215  19.5385170  41.6262102
  80.4489613  20.0551748  40.3171158  88.1710529  21.9743419  14.2037332
  88.9986515  22.1697736  13.7642896  87.5220966  21.9673324  13.5001445
  71.7509890  30.6463480   6.5880609  71.0553789  30.2184796   6.0887760
  72.1890688  31.2119913   5.9521645  20.3771332  85.5557317  18.2869053
  20.2283505  84.7358263  18.7579155  21.2068490  85.8838891  18.6334860
  14.1253960  44.7372437  22.6192856  13.9767992  45.4931259  22.0511413
  13.7328243  44.0024567  22.1478963  59.5050144  10.8415043   9.9941349
  58.8389492  10.2181411   9.7043037  59.3102646  11.6431177   9.5086241
  76.0539341  23.2110810  13.2256556  75.8589602  22.5600863  13.8997638
  75.3785181  23.8802409  13.3364260  50.9020948  10.9737134  27.5865507
  51.8179369  11.1377442  27.3616982  50.7359171  11.5384841  28.3413029
  40.5279854  70.9516610  32.6995397  39.8384265  71.5668179  32.9491782
  40.1320103  70.4131461  32.0143867  38.2028461  39.5839381   9.6920115
  38.0158734  38.6910510   9.9818826  38.8710141  39.8984838  10.3009820
  29.5319707  69.9495714  68.9076749  30.1925046  70.3439252  68.3381066
  30.0165899  69.6865552  69.6901054  31.2776927  60.7235194  19.3379629
  30.9049872  61.2955047  18.6670256  31.7492941  61.3163496  19.9230921
  36.4622760  23.2332587   8.9595407  35.9870410  23.5825205   9.7134638
  36.8666601  22.4283242   9.2832458  36.5320086  15.9952569  -0.1599879
  36.6135001  16.7075837   0.4741907  37.3392820  15.4909730  -0.0588054
  49.2240286  40.3908110   7.8601205  49.8672438  40.9739780   8.2631427
  48.7241459  40.9560490   7.2711766   5.4102189  59.2151611  48.2395003
   4.5410354  59.6039801  48.1416819   5.9448392  59.9149888  48.6145446
  27.3899800  73.1611936  52.8388688  27.4102361  72.2050469  52.7987597
  27.6460893  73.4432333  51.9607518  54.1132879  59.1356611   0.7282284
  53.7786627  58.7679625   1.5461889  53.8860846  58.4860182   0.0629652
  37.3995733  49.4577599   4.0412387  38.2274914  49.7982216   4.3801579
  37.6312494  48.6199188   3.6405045  31.0807017  79.6226473  26.5463853
  31.1321429  79.2510695  27.4270201  30.2056674  79.3873412  26.2378764
  79.0222359  39.4312072  22.4975443  79.5025396  39.7830248  21.7480350
  78.7302065  38.5661125  22.2102118   4.8181399  52.3448229   5.1810485
   4.4000300  53.0715513   4.7192281   4.2806777  51.5828037   4.9649343
  80.3185558   6.4329159  10.5602908  81.0899162   6.8285269  10.1544297
  80.2139378   6.9049257  11.3864219  56.0146284  32.9428673   6.4915097
  55.1226187  33.0591774   6.1643624  56.4420223  33.7831497   6.3257027
  61.3134936  12.1691696  71.7256359  61.2012271  13.1119100  71.8475527
  61.8671492  11.8972580  72.4575878   9.1882903  71.5172117  59.9854896
   8.5632283  72.0258706  60.5020103   8.6466224  71.0361998  59.3598268
  28.1244523  61.9056599  73.5105276  27.9989869  60.9941821  73.7745358
  28.2447393  61.8658178  72.5617515  61.1621761  25.5079365   4.0609121
  60.2463007  25.3202128   3.8555640  61.6472912  25.1997137   3.2954746
  39.3622616   8.0233995  59.5881555  40.1293591   7.4522821  59.5478794
  39.7245673   8.9060442  59.6649501  89.1906261  36.6813874  28.5636616
  89.8294258  35.9905195  28.3879662  88.3551407  36.3141322  28.2749987
  28.6221150  17.0292799  60.5216441  29.1738299  17.4898187  61.1539004
  28.1382493  17.7240936  60.0751660  63.2190943  43.1242323   0.1579486
  62.7621365  43.9579773   0.0470973  64.1263151  43.3704662   0.3383693
  73.1293011  38.5819793   3.8970560  73.7058067  38.6859226   3.1400436
  73.7152386  38.3334756   4.6120077  87.5098419  57.2054625   1.8864132
  87.7690506  58.0960798   2.1227123  88.2179737  56.8910837   1.3243154
  68.1343699   0.4500291  48.6434174  67.6676798   0.9579601  47.9797602
  68.2360506   1.0536243  49.3793297  74.7666454  27.9039598  10.4145908
  74.0327549  27.3833299  10.7410586  74.5336437  28.1043029   9.5080566
  54.9052429  16.6493368  51.6770792  55.6874180  16.2957442  51.2535095
  55.0777149  16.5568268  52.6140594  46.8242005  15.8714525  69.0512547
  47.1877078  15.8241502  68.1670288  46.4309577  16.7426530  69.1022626
  38.5081918  59.0375154  70.0280679  38.7438543  59.3611746  69.1586206
  39.3293531  58.7051003  70.3905860  59.8953581  67.2932529  13.2593966
  59.3333483  66.6372538  12.8470361  59.8298883  68.0581856  12.6877117
  58.6784983  16.9636858  11.4594102  59.5161247  16.6304231  11.1376202
  58.4794569  17.7043557  10.8866775  78.7624741  31.9926333   4.3342531
  78.7143993  32.5605989   3.5652691  79.5586109  31.4778423   4.2023948
  83.2516861  28.8319921  18.0563998  82.6231384  28.6073351  18.7424731
  82.8618240  28.4883761  17.2525525  61.8731022   8.4434891  19.6129680
  62.8089571   8.4116483  19.8114443  61.4686871   8.7692964  20.4170370
  73.1461525  48.5392618  43.3485651  72.7231169  49.3536901  43.0765724
  73.6969042  48.2953930  42.6046371  81.7159031  81.4595549  65.4895375
  82.6179455  81.4940231  65.1711515  81.6913508  82.0910971  66.2084142
  60.0933504  24.5954895  17.7357316  60.7299089  25.3088260  17.6890910
  59.2419624  25.0323319  17.7125359  58.3943748  31.2985945   6.7471135
  57.5314093  31.3779879   7.1535885  58.5409260  30.3551722   6.6784900
  77.6116657  38.8022065   0.4350811  78.2815981  38.1837916   0.7266061
  77.3615408  38.4917402  -0.4351378  42.8799200  25.3693652  12.1040618
  42.4924040  26.0293460  11.5291834  42.9626942  25.8081055  12.9507530
  62.7786704   1.4901041  15.3298211  62.8844210   0.5819582  15.6132483
  61.9250676   1.5080904  14.8970771  46.9149331  25.9549944  73.8276306
  46.7806319  26.1513654  74.7547948  47.2748831  25.0680820  73.8203459
  82.5580406  38.0674863   5.3096110  82.4101067  38.6697698   6.0387236
  82.1338177  38.4880590   4.5616895  59.3713760  54.9921465  27.8730702
  59.7779799  55.7360840  28.3174372  58.7433863  54.6478605  28.5081530
   0.8597830   8.6810819  53.5890100  -0.0641867   8.5219614  53.3961556
   1.2960962   7.8588668  53.3657954  59.2649746   5.7859206  21.7517376
  58.6940861   6.5413654  21.8918276  58.6733961   5.0334835  21.7620254
   8.3144099  71.8045371  49.5328972   9.0445811  71.4200323  49.0478775
   7.9815681  71.0876529  50.0728271  65.0577211  14.2652261  29.3343544
  64.5462370  14.9622750  28.9235735  65.5128431  13.8414562  28.6066771
  73.1914711  43.3559942  27.3431253  72.2468042  43.2178402  27.2742319
  73.5195160  43.2152271  26.4549804  75.5639362  25.5672193  25.2269292
  74.6142530  25.4547167  25.2678585  75.8040428  25.8936930  26.0941052
  72.3712397  69.2651606  14.8860252  71.5584946  68.7595797  14.8939741
  73.0452585  68.6392736  15.1509762  67.3292542  26.1556649  12.9351962
  67.4402952  25.2359724  13.1761670  66.9192791  26.5562987  13.7017751
   6.0689361  56.2038176  57.8308854   5.5242259  55.4178946  57.7879188
   5.5619724  56.8178575  58.3620844  50.1116828  17.6535646  59.6242568
  49.9724368  18.3820192  60.2293978  50.0430087  18.0479852  58.7548039
  74.5997620  40.4643965   8.3642912  73.6595726  40.6021452   8.4795928
  74.7167253  40.3912354   7.4170852  47.8146982  71.8430614   4.1012418
  46.8912029  71.5942287   4.1395837  48.2876348  71.0461044   4.3408671
  84.4220352  83.0696392  10.1694298  85.1532555  83.3286285   9.6086466
  83.8964367  83.8644791  10.2600026  41.6729982  74.8829525  67.7071098
  41.8576963  75.1688807  66.8124804  40.7208783  74.7889845  67.7367714
   4.1738755  76.2512772  51.1461589   5.0130613  76.4639537  51.5545294
   3.6035258  76.0175936  51.8784997  72.6172522   1.0262243  74.1837512
  72.8163794   1.0173027  73.2475348  71.6610602   1.0412399  74.2251151
  22.4911173  48.0890656   2.2512844  23.2162532  48.3440590   1.6808636
  22.4290332  48.7981510   2.8912660  75.0975274  72.4355214  74.2673826
  75.8520697  71.9047039  74.0121707  74.3915700  72.1404450  73.6922443
  67.8465557  43.4252787  13.5278761  67.8011274  42.6855898  12.9220474
  68.5351849  43.1851530  14.1478443   3.4111936  54.2388527  73.9448461
   2.9943473  53.7756627  74.6714309   3.2614619  55.1651685  74.1339272
  54.9810886  77.8296709  18.6807990  54.9266434  76.9423246  19.0355968
  54.3126965  77.8552723  17.9960883  72.3060226  76.8414402  14.4243586
  72.3836422  76.3462925  15.2398574  73.0401516  76.5390110  13.8897300
  80.7660103  35.4609084  30.6087470  81.3226318  36.1964202  30.8645344
  80.6785488  34.9381924  31.4058352  59.5693016   4.1210252   2.9260778
  60.4132557   4.1887107   2.4795493  59.5527554   4.8700902   3.5217786
  60.1384544  55.0941372   8.4069133  60.7840443  55.6632566   8.8259071
  59.4663477  54.9615431   9.0754330  64.9230909  45.8683872   6.8931073
  64.6099424  46.3957548   7.6279896  64.7749805  44.9633884   7.1674746
  85.0475025   0.7496563  13.7116241  84.7436714   1.5860167  13.3588910
  84.6211815   0.0899482  13.1645679   8.5508498   7.1809065  17.6371574
   9.3571910   7.0193285  18.1269872   8.4426173   8.1316704  17.6609123
  43.1420020  18.1542579  62.2503075  42.5018004  18.4908573  62.8772626
  42.6583556  17.5054113  61.7391178  14.9950724   7.5151323  15.1670671
  14.5927792   8.2219194  14.6622372  15.1831369   7.9069685  16.0199058
  59.8340109   8.0233327  59.2982445  59.6617392   8.0457679  58.3569417
  60.6138686   8.5665695  59.4120250  10.0139006  21.4633441   2.9814968
  10.2312239  21.8954515   3.8075027   9.0619811  21.5386081   2.9150233
   6.1136016  61.2025452  17.8353465   5.5060633  60.7951784  18.4527421
   6.0175189  62.1423435  17.9895520  85.6838845  86.0063379  51.6509507
  86.0240601  85.1600235  51.3606665  85.7899807  86.5801351  50.8921811
  60.0801706  11.4070344  23.7869358  60.3775454  12.3166764  23.8056660
  60.4935312  11.0359168  23.0074239  62.3931456  62.1677542  22.4979997
  62.6386642  62.7767420  23.1944799  63.2218075  61.9381142  22.0775056
  45.1986170  71.5991259  16.0117793  44.8205042  72.1678495  15.3410983
  45.1024771  72.0926332  16.8262970  77.3730564   0.5814690   8.0851638
  77.8363323   0.0756790   7.4174947  76.5371466   0.1275983   8.1923521
  73.9973974  55.7665110  37.3953247  74.4130421  56.6285753  37.3774815
  73.2524967  55.8473921  36.7996645  51.9858551  47.6665640  13.0098820
  52.8622341  47.2839451  12.9674995  51.4613819  47.1303320  12.4152279
  59.7435188  19.2782152  30.3465724  60.3560781  19.8704755  29.9104166
  59.4437265  19.7660613  31.1136198  71.6689873  73.2168961  24.3589997
  71.6745996  72.2611523  24.4115257  72.4420881  73.4326506  23.8374686
  78.7319899  18.4531665  21.4247370  79.5412970  18.1099558  21.8035007
  78.0446672  17.8858519  21.7739868  34.1759184  20.4582159  62.7451250
  33.3088425  20.8317272  62.5873396  34.7712353  21.0138694  62.2420523
  16.3897112  22.7564470  54.5266197  15.4442814  22.7188388  54.6714470
  16.7333964  23.1996671  55.3022919  73.1718206  59.5652199   2.3459975
  72.4768305  59.1512823   1.8342622  73.9556026  59.4727325   1.8043619
  11.6184481  47.6839828  38.4350705  12.1538695  48.2158852  39.0238309
  11.6138514  48.1702232  37.6105809  43.3733327  58.0102580  73.4568173
  44.2139489  57.7670031  73.0689694  42.7383573  57.8819828  72.7521353
  51.2946224  23.1839728  27.3493290  51.6951895  23.8001847  26.7360902
  50.3548002  23.3502460  27.2763705  17.2714480  32.1840715   7.6131338
  17.2561225  31.3066196   7.2309333  16.4949855  32.6146865   7.2555000
  68.9645863  60.9675694  26.7684865  68.1988955  60.8477974  27.3302746
  69.3713665  61.7735100  27.0866346  36.8722085  18.5462228  69.9671469
  37.5694636  18.2379381  70.5459619  36.0861710  18.5375349  70.5133155
  69.6060181  34.6678591  26.9120789  69.6329737  35.5507803  26.5433645
  69.8092127  34.7893119  27.8395462  13.4844596  70.3524201  66.0621116
  13.9583118  71.1580508  66.2686363  12.6090200  70.4900115  66.4239201
  81.3626240  67.4829142  64.9718216  82.2985457  67.6836054  64.9750242
  81.2249802  66.9954126  64.1596470  81.7501831  36.0551333  23.9017653
  81.7500114  36.9982409  24.0654039  82.5827789  35.7497001  24.2619443
  60.0977612   3.4236404  11.9216406  59.7975969   3.7249213  12.7791750
  60.7773399   4.0498674  11.6721499  79.2869949  34.5607209  22.7014875
  79.1818714  33.7351561  23.1743741  79.6989393  35.1486397  23.3346391
  60.3514051  48.7751484   6.6500944  59.4190311  48.8070297   6.8643272
  60.4428101  49.3521786   5.8918661  36.4949250  73.7040854  10.5797493
  36.6610718  74.6370029  10.7149947  37.3537493  73.3353376  10.3731525
   0.7703883  85.5551593  71.0707260   0.0133807  85.0398986  70.7920182
   1.2027271  85.0095575  71.7277101  60.6001711  21.6995955  34.4366264
  60.3080511  21.9158220  33.5511088  59.7969389  21.4722133  34.9049783
  28.3311728   5.4442350  73.7092024  27.5959710   5.2479068  74.2898635
  29.0061120   4.8115770  73.9550372  81.5313244  25.8394814  19.0549278
  81.6021252  26.6117430  19.6160281  82.4375439  25.6040287  18.8560367
  51.8396997  32.0497322  15.9001315  51.5669727  32.7515459  15.3091049
  51.0428572  31.5417504  16.0525322  37.2675467  15.9458184   6.8347543
  37.5630283  15.7440376   7.7225643  36.3144231  15.8678114   6.8760133
  43.5826043  24.5990173  64.8255560  44.0328053  24.1253559  65.5249808
  44.2827538  24.8753015  64.2342088  62.8372478  21.2063313  13.3493173
  62.4334621  21.1958504  12.4815142  62.2288990  20.7162809  13.9024830
  78.4935045  68.3173800   7.5904012  79.3454552  67.9308462   7.3879147
  77.9142523  67.9956627   6.8996054  74.7110605  15.5355275  26.3405395
  75.5541134  15.9595263  26.1801505  74.0667152  16.2350583  26.2323403
  25.2961997  15.5416290  48.6033246  25.1157549  14.7099344  49.0414498
  25.9627226  15.3286068  47.9501817   7.4385411  77.2773426  65.3457204
   6.5667207  76.9633858  65.1057443   8.0314071  76.5854566  65.0523988
  17.4749286  72.8925197  68.9438257  16.8759782  72.2805612  68.5160432
  16.9884641  73.2120674  69.7037420  59.5650434  13.1770253  45.3388834
  59.3319559  12.8002965  44.4903660  60.3303480  13.7223303  45.1567364
  10.4313953  78.1134455  69.5448557   9.8233325  78.5342615  70.1526425
  10.0694663  78.2975905  68.6780617  76.6879065  71.3029138  63.2913813
  77.0147521  70.5361406  63.7619886  76.7153687  72.0095483  63.9364776
  80.9941243  84.5364587  69.9965474  80.6949090  85.1065462  70.7048580
  81.6192912  85.0708692  69.5068464  63.8632849  28.7062780  73.4527702
  64.2107657  27.8852026  73.1044567  64.3909434  28.8779298  74.2327347
  43.6533955  12.2404186  71.8723631  43.1475094  12.0516864  71.0819880
  43.4249571  11.5345613  72.4771908  70.5767822  85.6486416  12.9688466
  70.9207964  84.8877525  12.5009394  70.6554127  85.4164886  13.8941336
  78.2244015  71.0727882  25.5638480  77.8285980  70.2795029  25.9247684
  79.0748405  70.7860518  25.2310324  40.5561781  40.2653980   2.4187312
  40.4224300  39.3175888   2.4194632  40.9612131  40.4507828   3.2659680
  56.0901165  28.8253975  28.7584972  56.3330412  29.4682312  29.4248199
  56.4815569  29.1580319  27.9508090  57.0047140  34.0215659   3.1037131
  56.1567640  34.0432072   2.6601526  56.8774509  34.5527339   3.8897783
  45.9770135  85.3051520  27.2570252  45.3649548  86.0364316  27.1743131
  46.6784791  85.6418131  27.8145528  76.1787128  52.4010944  29.8125005
  75.7861662  51.5479755  29.6272111  75.9711027  52.9323101  29.0437746
  37.8147657  71.2325399  66.5439710  38.0826146  71.8916552  67.1843240
  36.8616731  71.1943119  66.6239641  54.2877007  46.2655020  12.9035330
  54.3824482  45.4079151  13.3180237  54.5981407  46.8858910  13.5630560
  72.7584600  11.9119620  12.2012115  72.3701096  11.6029537  11.3827193
  72.0300770  11.9246542  12.8221190  44.8698119  17.0798198  50.1698634
  45.1822070  17.8274957  49.6603415  45.5253199  16.3982431  50.0215695
  47.7104187   4.9882904  31.0339141  48.1013918   4.4969901  31.7564058
  48.3967924   5.0212115  30.3675508  67.9206657  13.2463861  32.1500254
  67.2960472  13.0396855  32.8452659  67.5558853  12.8304636  31.3688874
  84.1993046  44.8994350  21.7255759  83.7849998  44.7867250  20.8700728
  85.0657082  44.5049047  21.6259646  56.5530920  58.3240223  12.7167785
  55.6431484  58.2207441  12.4382651  57.0683765  58.0428314  11.9607067
  71.5678452  85.6187933  71.0593892  71.4748000  86.5231912  70.7599932
  70.6948088  85.3781145  71.3694099  67.7549648  -0.1053677  23.8420725
  66.9410944  -0.2677481  24.3190217  67.6837587   0.8031397  23.5491967
  78.3043098  51.5716076  26.2445927  77.8654337  51.8612766  25.4447746
  78.2050657  52.3052216  26.8513823  42.2840309  44.1593885  24.0495133
  42.5989628  44.9338388  23.5833788  41.4033175  44.0135956  23.7040877
  84.3917656  17.4247777  48.7382603  83.8954830  16.6342783  48.9505196
  85.3009319  17.1958280  48.9311981  64.6335316  26.9052887  38.2036042
  63.7568951  26.7716503  37.8432178  65.1938677  27.0163846  37.4355459
  68.5299921  46.6281080   0.0776830  67.9209948  46.9414949  -0.5910038
  68.5224342  47.3116207   0.7477507  59.2437744  77.6263332   3.6101484
  58.3580875  77.8016233   3.9280561  59.2737818  78.0371141   2.7460933
  80.0298902   0.7438253  64.6977568  80.9573432   0.9300970  64.5515871
  80.0189563  -0.1350237  65.0768900  36.3585067   7.3100770   6.0960573
  36.5843868   6.4193654   5.8280188  35.4616451   7.2415155   6.4234233
   2.6907234  18.5374903  40.9712458   2.3821383  18.7610029  41.8493414
   2.0459919  17.9106783  40.6431293  68.3074665  40.1646185  19.1606557
  68.8252878  39.5262480  18.6701715  68.4496307  40.9921646  18.7011015
  51.6192532  48.5613871  19.8541701  51.7459249  49.2133045  20.5435133
  50.6868315  48.6130714  19.6440566  68.4441137  39.3217540   7.0675325
  67.7605486  38.7866592   6.6642445  69.2591095  38.9986444   6.6833216
   4.4140918  66.7250507  59.7607109   4.4796378  67.3555367  59.0434763
   3.8058765  67.1288888  60.3797624  62.3995209  39.4155097  15.0255597
  61.5490913  39.8547578  15.0174499  62.1947527  38.4941769  14.8660254
  77.2445488  39.4410992  26.5715814  76.6213226  38.9766574  27.1302557
  76.7097950  39.8012614  25.8640862  65.2161884  23.9526820  29.2398715
  64.4690752  23.4651113  28.8929963  65.0306225  24.0422153  30.1746345
  79.9908257  53.2122135  16.9157243  80.4231930  52.5476027  16.3794518
  79.8496532  52.7840137  17.7600861  85.2944087  64.8496478  70.4297281
  86.0990761  64.7240512  70.9326798  84.6776341  64.2202704  70.8035031
  57.6407698  19.0987245  65.3378132  57.2798232  18.6931888  66.1261592
  57.5296668  18.4366170  64.6555356  12.0148952  79.8854630  59.5463023
  11.5786082  79.4662135  60.2879999  12.1348674  79.1809361  58.9095292
  43.2484627  32.4401784  24.4012690  44.1806555  32.3035240  24.2322278
  43.1842995  32.5011754  25.3543663  57.5522518  18.6064768   4.7530642
  57.8521824  18.3526635   3.8802233  56.6971016  19.0100670   4.6045125
  73.0850363  37.7513480  12.5503814  72.5211143  38.4808993  12.2935200
  73.8704443  37.8550506  12.0131528  82.3995399  68.1225157   1.9844851
  82.0375061  67.9911709   1.1081815  81.9565678  68.9053822   2.3117812
  78.3598279  63.6737888  67.3454735  78.0762290  63.0656354  66.6628668
  78.7236117  64.4185369  66.8666783  17.0557364  24.4451571   5.7302493
  16.1703547  24.0819883   5.7510883  17.6244029  23.6835670   5.6169707
  62.3270321  11.5312898  12.9885042  62.3494720  10.5801249  13.0934513
  62.8424692  11.8654752  13.7225878  54.5302057  27.5159168  20.4829526
  53.8326263  26.8608880  20.5063629  54.8515177  27.5559258  21.3837266
  41.7832041  57.6372051  13.8248813  41.9901943  58.5712719  13.7947893
  41.0851669  57.5674295  14.4761157  40.0214958  68.9678240  10.6832194
  40.6202793  69.3860149  11.3019311  40.5940437  68.5062408  10.0705528
  42.3796272  39.9809408  11.1476541  41.9341612  39.1461754  11.0028958
  43.0912781  39.7709465  11.7523742  63.0041313  -0.1228875  30.0056100
  62.0649672  -0.1809391  29.8300385  63.2124996   0.8042133  29.8902822
  76.3156557   3.6277500   6.2498820  76.1229610   4.5368469   6.4793235
  75.4913473   3.2889947   5.9006077  75.9388208  43.6879301   4.9997836
  76.6504908  43.3877277   4.4344178  76.3508129  44.3210363   5.5877268
  61.8472885  67.3985283  61.0372624  62.6931737  67.6945846  61.3735030
  61.6154908  66.6547673  61.5934334  39.7602487  50.2468204   5.0784189
  40.2368212  50.8739090   4.5344797  40.3859854  49.5389509   5.2320683
  15.1184615  44.2002010  16.1962986  14.9094828  43.3832693  15.7433283
  15.2208098  43.9461088  17.1134663  22.8082303  38.4593813  58.3153412
  22.5286130  39.3215028  58.6232266  22.2511605  38.2835809  57.5570545
  16.5049609  57.0625162  12.6596296  16.5944537  57.1852446  13.6047018
  15.5744799  57.2056484  12.4865639  37.3407200  30.9134332  47.6892302
  38.1403283  31.4394609  47.7018568  37.5584439  30.1343624  48.2009671
  46.7220402  36.8767905  21.3197970  47.2614241  37.4419427  21.8728733
  46.4257765  36.1803627  21.9058418  74.4185305  67.5117350  23.9703059
  74.2527151  66.9761038  23.1945229  75.1079750  68.1181288  23.6997867
  62.6072931  53.5507917   6.9503659  61.6784668  53.7100697   7.1181208
  63.0514193  54.3155193   7.3166662  34.1222048  38.6154127   9.5729440
  34.8065019  38.0030727   9.3027395  34.4899893  39.0651298  10.3336811
  27.9883003  10.2740729  38.8124275  27.3125291  10.8889139  39.0979743
  27.5317860   9.6726787  38.2240844  10.0803145  44.5292425  19.8172796
   9.7460421  43.8939905  19.1840744  10.9953078  44.6578217  19.5673180
  30.6385830  10.6275550  50.6652376  31.0942200  10.1552621  51.3620660
  31.2876919  10.7080690  49.9663732  77.0539665  44.6143055  11.1717474
  76.9492340  43.9566278  10.4842007  77.2219563  44.1063643  11.9654787
  67.3248339  47.4738884   6.9546801  66.7061615  46.9313002   6.4657217
  66.8338633  48.2688284   7.1626431  75.5233192  64.4510841  21.0778522
  75.7426119  64.4299841  20.1463509  74.8884630  63.7436295  21.1905408
  17.5648458  61.3521986  73.8534785  16.9847305  61.9812982  73.4246037
  17.0155484  60.9326904  74.5156845  62.1606779  23.1175852  19.2846847
  62.8066635  23.0936241  18.5787392  61.4704943  23.6949444  18.9582825
  69.7485495  73.5224152  58.9628410  69.8007011  74.3596125  59.4239378
  70.4365492  73.5712576  58.2991362  66.4423084  56.3762140  31.5794539
  65.9729528  56.7000055  32.3482823  66.7999554  55.5321980  31.8550539
   4.9547537  61.6878223  14.5324874   5.7106360  62.2329807  14.7508264
   5.3322848  60.8460760  14.2771983  75.2382803  47.7383757   0.0486528
  74.7919130  47.0269918  -0.4106063  75.4953718  47.3573017   0.8882481
  75.6246424  45.9454632  26.5279603  75.7115793  45.1913309  27.1110201
  75.3607082  46.6636801  27.1030569  61.9401244  41.6555826  68.3778462
  61.3145331  42.3787443  68.4214387  61.4039687  40.8687917  68.4765181
   7.3960932  81.5110970  40.4295254   6.5255126  81.7786121  40.7240725
   7.2466143  80.6970501  39.9486899  72.6631212  66.1314487   4.1831812
  73.0907202  66.9831705   4.2724028  71.7931461  66.3350153   3.8397628
  52.6342201  29.6177411  25.5983615  52.4276018  28.9373755  24.9575472
  53.0297518  29.1448951  26.3306212   6.6322022   1.1329245   6.4947963
   7.4558764   1.2466692   6.9689810   5.9785967   1.5679907   7.0422912
  11.4407137  32.4115554  58.5615299  11.6170434  32.1138469  59.4540033
  10.8801058  31.7312709  58.1884811  70.4802036  46.0730410  23.0731320
  70.6988192  45.8026886  22.1813083  69.7752762  45.4815722  23.3367062
  50.6060009   2.7043699  15.3056097  51.3596993   2.4829077  15.8525300
  50.5120068   1.9579863  14.7137368   7.8553923  43.0906296  16.6692054
   8.6041602  42.6872683  17.1083844   8.1053122  44.0086460  16.5642262
   9.9010142  51.2225533   4.9824429  10.2471694  51.1727524   4.0914133
   9.0039214  50.8967876   4.9094430  38.9483384  33.4423200  72.3664669
  39.3384245  34.2344419  72.7360669  38.2329730  33.7617771  71.8165312
  17.8437956  50.8713770  23.1430840  17.5938281  50.0987053  22.6364040
  18.7686309  51.0049915  22.9355502  60.6567172   7.7429954  69.4649300
  60.5919722   8.0544702  68.5621438  59.9944190   8.2452241  69.9396530
  84.2725277  54.6841288  18.0738640  83.3566666  54.5728397  18.3288753
  84.6201992  55.3187609  18.7004411  35.0983674  55.8129220  61.6943750
  35.5691964  56.1281364  60.9228906  35.2133805  56.5057104  62.3447964
  53.2529974  73.7802887  13.5985804  52.7905083  74.4135571  14.1474926
  53.9827156  74.2747021  13.2253551  12.7750453  66.7198801  40.3682375
  13.1029853  65.8354568  40.5309820  13.3722075  67.0798540  39.7124553
   8.2039317  40.6097603   9.6089327   9.1323146  40.3918028   9.5263141
   7.7485617  39.7837186   9.4460768  80.9344387  75.2647018   0.6984568
  81.6533661  74.7188473   0.3799804  81.0811996  75.3273344   1.6422632
  83.3440781  66.3708162  10.6730604  83.5331345  66.6973305  11.5527654
  84.0349007  66.7439079  10.1255131  80.0372219  66.4510298   2.1915829
  80.7884407  66.9838667   1.9308566  80.0940132  66.4077711   3.1461170
  69.9481916  49.5067930  54.6714449  69.6160936  48.6231041  54.8296738
  69.2838573  49.9167061  54.1174936  29.0703256  76.4978163  64.9687151
  28.5544927  75.6959074  65.0529024  29.4572026  76.4431112  64.0948913
  69.8831940  37.2313643  25.7082796  70.2547693  37.5149155  24.8729587
  70.1608944  37.9008341  26.3335204  69.7810629   5.8050291  62.6775513
  69.8969344   4.8567859  62.7378986  70.6524161   6.1397974  62.4656436
  21.4051303  57.2371769  10.5931616  20.5943831  57.0775890  11.0763276
  22.0678099  56.7314386  11.0636020  14.9687223  11.4120935  39.3573856
  14.7600870  11.2947344  38.4306002  15.8563118  11.7704367  39.3595695
   6.3316134  29.8384754  50.9782789   5.5469659  29.3195383  50.8014581
   6.3299898  29.9591676  51.9278405   1.5639906   6.4531302   5.7065862
   1.9562893   5.7881521   5.1407892   2.0981436   6.4373278   6.5007263
  85.4583073   2.0649220  20.6888342  86.1051846   2.3465466  21.3357329
  85.9225082   1.4254287  20.1486540  84.1017246  60.3815842  22.6721668
  83.9143562  59.6865082  23.3030391  85.0484276  60.5099678  22.7313733
   6.3847026  49.3527889  42.9208851   5.8254489  49.3005323  43.6959600
   5.7739600  49.3449354  42.1838856  50.6312827  14.8801223  68.7882469
  49.9008826  14.6786729  69.3731991  50.7821158  14.0678016  68.3049033
   1.6982516  74.6688271   6.9954002   1.0491332  73.9657640   6.9713789
   1.9331893  74.8093462   6.0781807  71.9367647  34.7643566  16.9769156
  71.4665461  35.2771807  16.3195443  72.7790213  34.5653677  16.5679657
  74.6234894  49.7085428  11.7236984  74.6552992  48.9231491  12.2699392
  75.4373837  49.6834564  11.2205303  85.7094860  35.7704425  29.2357731
  84.9521828  35.2005720  29.1017222  86.0863972  35.4767656  30.0651836
  78.0959415  49.0410948   2.0251429  77.9488754  49.3928862   1.1471646
  77.8362131  49.7498369   2.6137525  62.9422665  85.3928185  31.3688254
  62.2756243  86.0791874  31.3418436  63.4365129  85.5069351  30.5570793
  31.5557746  42.9692785  69.6112985  32.2030476  43.4314958  70.1438579
  31.7136839  42.0428411  69.7929669  33.8336904  78.7037199  41.6872380
  34.5550306  78.1298654  41.9452832  33.5284574  78.3448641  40.8539984
  71.3651371  72.9093933  17.3816466  70.4097033  72.9332733  17.3286319
  71.5496922  72.7463770  18.3066320  80.3342056  52.9976320   8.9752835
  79.5627022  53.3374453   8.5219288  81.0297298  53.0254793   8.3182359
   2.6176222  37.3567080  15.7817805   1.7007025  37.6249194  15.7220840
   2.5887641  36.4000535  15.7672417  13.4812382   8.5841219  49.0177033
  13.7854079   7.9374639  48.3808801  12.8453711   9.1135255  48.5364196
  51.9592265  15.8925907  63.9093873  52.2490004  15.4166929  64.6877096
  51.3214377  15.3104726  63.4963522  36.7387990  21.9382040  67.5317523
  36.2479523  21.2116329  67.1478281  37.4802903  22.0655195  66.9399658
  54.5395517  28.4430385   1.5267999  54.8926353  29.1505122   0.9873122
  53.5916281  28.5738087   1.5028527  82.4002171  43.1228447  11.8270171
  81.5121460  43.1699324  11.4729941  82.9004192  43.7485600  11.3030779
  37.9163340   8.0942194  67.4616227  37.3412493   7.4275247  67.0860902
  38.7983826   7.7389280  67.3521272  13.9591845  28.5136604   2.8010932
  14.6687850  28.1661773   3.3414209  13.9786967  27.9790378   2.0073488
   5.9565314  41.9255686  22.9326630   5.4769667  42.1605301  22.1382809
   5.8294924  40.9807253  23.0184937  10.9517249  33.3161354  23.9919305
  11.0203704  33.8265467  23.1850863  10.0468215  33.4408641  24.2779851
  10.8103427  64.7884989  37.6320624  10.0729140  64.2284584  37.8745461
  11.5800055  64.3308783  37.9703355  76.3341713  36.1544347  33.0630064
  75.9209156  35.3550982  33.3893752  75.6916380  36.8431044  33.2336330
  53.8123035  58.4185219   6.1621594  52.9854107  58.2762480   5.7014596
  53.5786200  58.9697647   6.9089878  54.0282202  71.3753510   6.0965598
  54.1206980  72.1655989   6.6287154  54.7149420  70.7899094   6.4157844
  59.0626717  85.0682163  45.4668140  59.0088797  85.9742928  45.1629210
  58.6385393  84.5584869  44.7765064  75.5655241  71.9093084  15.2339077
  76.3198137  71.3674879  15.0021529  74.8757267  71.6295481  14.6321213
  88.1028985  57.4438159  66.3206843  87.4744605  56.8153970  65.9651790
  88.8902710  57.3212616  65.7903430  12.6648863  50.0758648  28.0991244
  12.1607932  50.6576347  27.5302196  13.4918460  49.9447155  27.6352453
  75.4739046  27.9896474   1.8829413  76.1030912  27.2723436   1.8065590
  75.4063272  28.1497502   2.8242338  43.1971720   3.5545770  71.8864191
  44.1474131   3.4545414  71.8292523  42.9306010   2.9291336  72.5602058
   1.9444331  35.3063655  29.7739124   2.6945265  35.8491445  30.0167847
   1.3823851  35.3140235  30.5486846  87.6605848  23.6191654  48.9316034
  87.3463980  23.3366227  49.7904873  88.5511155  23.9308500  49.0929699
  16.9316459  50.5938435  54.7081280  16.2035060  50.2258730  54.2074871
  16.5951431  50.6677151  55.6011772  17.6859772  52.2961473  62.5013638
  18.2349443  51.5124750  62.5283241  17.1156526  52.2154760  63.2658577
  24.4326711  75.7854080  58.1687737  25.3822398  75.8283806  58.0560637
  24.0861535  75.7675552  57.2766781  17.9627129  12.0919298  46.2072325
  18.0724129  11.2418627  45.7810879  18.4031352  12.7105688  45.6245327
  77.0991020   0.0752146  13.9881637  77.7197831  -0.0697105  14.7022941
  76.8348043   0.9903462  14.0825489  14.4864627  11.4542173  58.6248398
  14.7312745  12.3762297  58.7034750  14.9089071  11.1622976  57.8170300
  83.6269901  83.8572502  43.6530304  83.4546051  84.1075325  44.5607090
  83.3042744  84.5951271  43.1357050  24.2163110  63.4588242  57.1684885
  24.3597889  62.7253437  57.7665281  25.0926876  63.6948729  56.8643904
  17.1306074  72.6259089  40.1557493  17.9770267  72.8074360  40.5642271
  16.4932871  72.7533579  40.8584642  74.4899086  67.2110510  48.7207460
  74.1421656  68.0484724  49.0273905  74.5302848  66.6662359  49.5067358
  72.7984052  11.9872982  19.0738895  73.7389903  12.1628602  19.1005447
  72.4309819  12.5459368  19.7588375  47.6456118  72.2339296  56.7086411
  47.7012348  72.7688599  57.5004625  47.6499653  72.8672647  55.9909391
   7.9351556  68.1195307  58.7336540   7.8119099  67.2572613  59.1305542
   7.2590184  68.6662626  59.1338444  64.0513214  29.8618586   9.5045116
  63.9535000  29.5277960  10.3961685  64.7640430  29.3432457   9.1312816
  68.8292710  75.1480198  62.5470543  68.8225356  75.9828854  63.0152273
  68.6424652  75.3817701  61.6378307  24.0559545   2.9035639  66.1845970
  23.1952884   2.8048586  66.5917110  23.8665434   3.0671190  65.2606869
   6.0018231  49.2612679  13.3571842   6.5966202  48.5576661  13.0975845
   6.4976169  50.0646241  13.1989219  75.0231842  70.3918409  66.1925936
  74.8159388  69.5253229  66.5424871  74.3965725  70.5186224  65.4801941
   0.6012564  68.3766031  66.0876322   0.2972993  68.5582972  65.1983452
   0.0405405  67.6626968  66.3912249  41.5829584  18.7185930  66.5653515
  42.5071927  18.7749647  66.8079329  41.2157461  19.5642160  66.8228531
   1.9269438  57.7820587  36.8224382   2.4645013  58.5190344  37.1124959
   1.3871849  58.1417370  36.1185026  18.2554349  38.3373808  73.4641886
  18.1853482  39.2680239  73.2515621  17.5910005  38.1950258  74.1383505
  81.7387519  74.2999458  55.8309889  82.4245510  74.5849752  56.4348698
  81.3722668  75.1131582  55.4837084   1.2740807  56.6245699  67.2484303
   0.8588032  57.2520065  67.8401232   2.1207815  56.4373541  67.6537418
   1.6672629  81.9763184  44.3782663   2.2118297  82.1409607  45.1480532
   1.5782270  82.8328037  43.9602518  80.4688231  47.9139137  54.2446470
  80.0925199  47.2576237  53.6582088  80.1596121  48.7506723  53.8975763
  13.7731516  65.8336735  60.7819319  13.7411320  65.1423025  60.1207066
  13.4773397  66.6191244  60.3217220  26.5019727  43.5912657  34.3223786
  26.2129545  43.6318970  35.2339983  25.7342052  43.8558912  33.8156843
  36.3085914  72.1211433  59.7098494  36.7789173  71.5773058  60.3417253
  35.6094790  72.5304604  60.2196836   6.7366362  64.6168613  46.0310888
   7.5950438  64.6784115  45.6120682   6.3590807  63.8078213  45.6859255
   1.1302539  80.8657964  10.5790451   2.0689341  80.6787189  10.5898788
   0.7341381  80.0817283  10.1988342  26.7411470  33.9932323  63.2544470
  27.6311898  34.3264437  63.1403208  26.8478990  33.0447412  63.3265400
  32.9748750  61.0448122  54.2403460  33.1978226  61.8826008  53.8346004
  32.1122313  60.8291149  53.8860083   0.9979679  34.8129113   2.7414539
   0.8648039  34.2735751   1.9619587   0.1800658  35.3007586   2.8377512
  86.4756311  78.5506439  70.6285000  86.4047495  78.0442858  71.4377022
  87.4101356  78.5417652  70.4214859  75.6705026  79.8325205  51.7304707
  76.3241664  80.3396416  52.2119093  76.0722307  78.9712715  51.6160250
  89.7899633  50.4089451  16.6125393  90.3683700  51.1668396  16.5272307
  88.9127845  50.7581520  16.4549124  21.4851522  53.5975599  73.7597275
  21.0168433  52.7666092  73.6794996  20.8267140  54.2636251  73.5621262
  72.0179955  78.7514973  43.5800886  71.5373663  78.0031681  43.2262039
  71.3934878  79.4760132  43.5440445  89.9040655  30.7246280   4.6567312
  89.4440196  30.9421253   3.8460004  90.5583440  31.4165235   4.7538629
  41.9718981  85.7158279  71.2073803  42.4146843  84.8688602  71.1542845
  42.2926426  86.2018204  70.4476643  44.2676107  77.5103807  59.6156931
  43.3161250  77.4445295  59.5346308  44.4089118  77.8742743  60.4896784
   2.5486380  78.0416441  64.7099829   2.6833993  77.2362375  64.2105961
   3.2078651  78.0068254  65.4031229  29.2945257  11.9218325  53.2534981
  29.7628085  11.8423819  52.4224520  29.5906923  12.7565645  53.6164570
   2.8162575  61.0253429  54.1194439   2.3117393  61.8290281  53.9938164
   3.5797247  61.2988329  54.6279240   4.3355596  70.5220938  41.0002184
   4.9566817  69.8413467  41.2591124   4.6769428  71.3222265  41.3995600
  66.4604073  48.6431916  12.5382068  66.8856674  47.7952225  12.4103859
  67.0004653  49.2590554  12.0429542  83.5842512  49.4206905  52.3468399
  83.9976511  49.7437859  53.1474304  83.3216486  48.5246897  52.5576782
   8.9549220  46.1522102  27.6692724   9.7442418  46.6756964  27.8077197
   8.7744451  46.2340546  26.7328095  51.1596250  11.7966731  17.5558689
  50.3707629  12.1687920  17.9501465  51.7689424  11.6972334  18.2873562
  36.2664628  71.1150360  42.6409483  36.9104600  71.6946411  43.0478382
  35.4236388  71.4202690  42.9766750  40.6716442  46.2149858  71.6621590
  40.5549526  46.2526321  70.7128429  41.2827396  45.4912233  71.7998409
  44.8622577  17.9285128   4.3079689  44.1019314  17.4277956   4.6036365
  45.5789798  17.6280005   4.8667505   8.0977985  13.6334490  31.4358258
   7.1888849  13.3335375  31.4232898   8.5150238  13.1049990  32.1161890
  18.7949979  78.2500792  64.9124765  18.9665818  78.4154224  63.9854097
  19.1560268  77.3778677  65.0710344  53.4649651   9.8738129  15.8447101
  52.8363334  10.4557497  16.2717846  54.1778385   9.7856123  16.4773681
  65.3754895   9.9994833  36.5337684  65.9421270  10.7180006  36.2529018
  64.9148806  10.3429205  37.2993496  84.0407572  77.1149397  55.9907627
  84.3577603  77.4223757  56.8400097  84.3810872  77.7523804  55.3630066
   8.8258922  48.8247919  52.3969221   9.4549620  48.5299826  53.0553961
   8.1262338  49.2385483  52.9024076  26.2831092  40.6112432  56.1201715
  26.4605355  39.9204636  56.7585897  27.1211338  41.0618353  56.0157108
  12.4551582  67.7361298  50.3301573  12.7241397  68.1048822  49.4887877
  12.6688647  66.8055058  50.2630949  83.2786421  46.7358255  53.1958008
  82.8528301  45.9607124  53.5620213  83.5739658  46.4594746  52.3282528
  17.0623422  47.1075916  54.5267200  17.3456335  46.1934805  54.5461559
  17.7527559  47.5822020  54.9896479  23.3008432  72.5552368  61.6562843
  23.8336754  71.8230724  61.3460207  23.1180692  73.0687761  60.8694553
  13.5216856  66.9539976  36.8769193  14.2154050  66.3836908  37.2081780
  13.0813658  66.4311790  36.2068367  64.0420834  17.2760856  65.2543736
  64.9010269  17.6584494  65.0748110  64.2191378  16.5713823  65.8774900
  12.8627467  53.4544420  33.5991621  12.8975701  53.0244589  34.4536424
  13.5729718  53.0519295  33.0993652  70.6893688  23.6418326   6.0550716
  70.0927632  23.5015662   6.7903450  71.5247565  23.8676293   6.4641884
  22.7162695  50.4184246  63.4931135  22.7579427  49.4631243  63.4495306
  22.0457077  50.5991077  64.1518497  83.7486213  16.1397202   0.1033142
  84.4504826  15.6072648   0.4776313  83.1647389  16.3187916   0.8403661
  82.7363763  78.2480907  15.3374290  82.0350919  78.8376951  15.6145537
  83.5390208  78.6695337  15.6446397  76.9704526  28.9709027  19.3917205
  77.4860709  29.3177350  20.1197841  76.1928659  28.5965998  19.8058250
  86.1096499  48.7853384  50.2255917  86.8168686  48.1403828  50.2153063
  85.3885672  48.3574772  49.7638512  79.6287791  14.2547739  31.0789108
  79.0297774  14.0545201  30.3596568  80.4044036  14.6172130  30.6508017
  81.8076662  70.1127291  37.1985126  81.4984593  69.8042107  38.0502391
  82.6961759  70.4270649  37.3657632  22.0729041  64.3142223  53.4371281
  21.5613008  63.5467148  53.1813431  21.8864751  64.9632835  52.7587509
  51.9279431  28.3697779  14.4353321  51.7171889  28.5012228  15.3597381
  52.7915244  27.9569800  14.4429043  73.7556308  30.8464987  22.7456501
  74.7095101  30.9204085  22.7753952  73.5288887  31.0372050  21.8354633
  24.7224760  74.6595716  50.3899050  25.6004429  75.0192642  50.5165100
  24.7204685  73.8482857  50.8978844  75.3429870  84.9825382  37.5876784
  75.5214933  84.1388321  37.1723247  75.2470116  84.7762489  38.5174441
  46.0944038  40.0857289   9.9013736  46.9556313  40.0734360   9.4838073
  45.9987812  40.9807999  10.2268436  21.9185662  53.5001230  51.0057545
  22.0637345  54.4462347  51.0000706  21.2179637  53.3614731  50.3684473
  17.2171351  23.7053751  27.7630162  17.6484045  23.0939745  27.1660018
  17.3445853  23.3226370  28.6310601   4.2060620  38.0961609  60.1027250
   4.0557274  38.7177563  59.3905067   3.3671826  37.6479459  60.2105093
  78.5437611  79.7362614  70.9521484  78.2928411  80.6374073  71.1551332
  78.9404861  79.7881889  70.0825834  44.7954099  18.1776745   1.6514852
  45.7063799  18.2930453   1.3811996  44.8173015  18.2526524   2.6054933
  16.4014876  78.9137173  58.2700825  16.0522723  78.0309010  58.1479359
  16.4184189  79.2885494  57.3894882  19.0645453   6.1096357  71.2534285
  19.3885561   5.5048155  71.9208431  18.9461264   6.9380449  71.7181301
  28.8721452   2.9102205  62.9787111  27.9586455   2.8358625  63.2547903
  28.8909812   2.5190710  62.1052790  79.8180143  74.3281412  46.8678808
  78.8681785  74.2318296  46.7988348  80.1481429  74.0696478  46.0073996
  66.3405219  83.7403202  62.3533726  67.1149603  83.1907845  62.4737310
  66.6402022  84.6253395  62.5611353  25.3152966  74.6540737  45.4402637
  25.5676746  73.7608433  45.2064371  25.0258994  74.5907068  46.3504648
   1.1217121  73.0419731  42.2828579   1.0725154  73.8030577  41.7044449
   2.0490775  72.9731369  42.5097656  22.9329491  64.3685484  41.5632010
  22.7260447  64.5637083  40.6492376  22.4076200  64.9910879  42.0659018
  87.9724059  84.9804688  67.6519680  88.4251920  85.2158165  66.8421364
  87.9830889  85.7826233  68.1741476  28.1569736  47.8477223   8.0643203
  27.6001017  48.5661633   7.7643516  27.5479048  47.2164853   8.4474685
  83.4334997  83.6627579  60.9273243  83.3022109  84.1821098  61.7205954
  83.2786820  84.2775631  60.2101898  11.8251216  75.8736467  34.9009299
  10.8998311  75.6373215  34.9658728  12.2931683  75.0915575  35.1933360
  19.4262624  55.1131153  55.1982260  20.2707577  54.6626520  55.2103424
  18.7946439  54.4451094  55.4647970  68.3380692  52.8591664   3.3418777
  68.7008171  53.6137612   2.8779533  67.6735061  53.2312520   3.9216497
  84.9737994  63.5272455  52.5767374  85.3417746  63.3361959  51.7139959
  84.7094689  64.4458437  52.5263119   7.4853528  56.9887781  68.9441919
   7.4958163  57.0951176  67.9929781   6.8292147  56.3099766  69.1021109
  66.3538842  28.9549286  41.7298629  65.6439068  29.2115195  41.1413696
  66.8302642  29.7677309  41.8991115  82.9115758  69.9787331  68.8551474
  82.1778981  69.8335695  68.2577562  82.7529923  70.8483505  69.2223692
  20.2825522  73.4930706  73.0408430  20.9813857  72.8398800  73.0755997
  20.7247853  74.3259382  73.2051277  49.3631622  19.3034243  73.7209415
  48.5334405  19.7776102  73.6666965  49.2969641  18.6269926  73.0469275
  45.8290597  14.1186976  47.5912666  46.5844139  13.5955404  47.3229742
  45.5470404  13.7260508  48.4174204  11.8750179  53.4295893  45.4301929
  11.7747545  53.9023256  46.2564468  12.4584627  52.7005243  45.6406546
   6.8084814  16.3386662  20.5775764   6.7280199  16.4561303  21.5241268
   5.9481694  16.0226757  20.3014496  81.0636255  24.2507814  71.5258074
  81.1679479  25.1609873  71.8030453  81.7561838  24.1165899  70.8788252
  18.4940585  16.5785097  73.9550257  19.1371509  17.1919893  73.5996294
  18.4125432  16.8241190  74.8765802  83.5994879  47.3713589  68.5883331
  83.3023576  47.6212215  69.4632673  83.4842936  48.1620979  68.0613613
  82.0343146  69.0650988  54.3592834  81.9849042  70.0180197  54.2835712
  81.8336896  68.7442493  53.4800577  38.2845657  26.4912350   3.4175375
  39.2254203  26.6135867   3.5442522  38.2162993  25.9725459   2.6159599
  20.2609038  68.8509655  70.1131392  20.5827761  69.0599966  70.9900284
  19.7677779  68.0384207  70.2263880  61.1010873  17.2198660  28.9272716
  60.4626927  17.8288825  29.2984703  60.5840866  16.6461594  28.3617714
  85.6284914  74.2776442  28.7055159  86.5040047  73.8911295  28.6877084
  85.7804993  75.2189779  28.6217618  38.8788359  42.9201539  20.3366878
  37.9832046  42.7609570  20.6345680  38.8834064  43.8401539  20.0724628
  71.4269224  46.2863684  49.0566540  71.5504292  45.5616283  48.4436846
  71.0828368  45.8739519  49.8489618  37.5908127  83.9943846  13.9130428
  38.1005999  83.3084687  13.4819153  36.8734350  83.5266789  14.3406513
  91.0683389  66.8990183  58.9415693  91.2331106  65.9969807  59.2161798
  91.0206913  67.3935509  59.7597361   5.4160839  79.2688751  62.2122717
   5.1852876  78.3581877  62.0289278   5.8742106  79.2354488  63.0520535
  29.5860815  65.4759836  53.5621595  29.0769339  66.2810278  53.6565161
  29.7240043  65.3889847  52.6189518  67.7153818  64.0763092  70.6945705
  68.4357373  64.5350885  71.1268234  67.4944917  64.6294260  69.9452400
  15.0767089  40.7760556  53.9102581  14.5796014  40.1547463  53.3781936
  14.4682600  41.4983494  54.0661743  27.9949648  32.3670267  51.6351891
  28.7315088  32.6791262  52.1608591  28.2488653  31.4837145  51.3677359
  48.7710019  12.6801371  53.8785219  49.1818460  11.8189978  53.8018322
  48.1337282  12.5793528  54.5855999  80.1415988  29.8945021  62.3652220
  79.9180433  30.2352499  63.2313299  80.6315633  29.0916227  62.5428629
  19.1264781  27.0009016  43.4504604  18.6110541  27.5852655  44.0064192
  19.9439927  27.4748301  43.2978535  87.9324699  67.9480696  59.9527311
  87.0135490  67.9542494  60.2206469  88.2017533  67.0338488  60.0417185
  56.0926577  14.5743306  31.7291858  55.1449340  14.4875605  31.8317630
  56.2014439  15.2957184  31.1095073  22.3589554  12.8051065  60.8904839
  22.6210388  13.3883261  60.1781702  23.0588337  12.8885054  61.5381336
  11.8425418  25.2169545   1.3835981  12.0519592  24.3467839   1.0442045
  10.8904983  25.2808888   1.3077333  34.3889332  62.4488592  67.6197386
  33.9023542  62.9488516  68.2750845  35.2025223  62.9387712  67.5002003
  50.5497646  68.9023542  50.3086805  51.0174274  68.0825424  50.1492023
  50.6596661  69.4020653  49.4997025  45.8994433  17.5281118  62.8287888
  46.4768323  18.1438517  62.3774338  45.0301286  17.9235052  62.7640629
  80.9659652  69.0534401  26.7078471  80.9672121  68.8014507  27.6312804
  80.8841542  70.0070620  26.7199159  14.2368507  81.6500950  41.7566633
  15.1192784  81.7443466  42.1153688  13.6748314  82.1120262  42.3787451
  70.5793063  55.2977514  57.2316980  70.6827275  55.5319166  58.1540298
  69.8143832  55.7952881  56.9425869  21.2641647   1.5151762  63.6904526
  20.9699299   1.1021685  64.5022869  20.4826644   1.5418505  63.1383848
   3.0995646  62.5481033  51.2026739   3.8633722  61.9725800  51.2426949
   3.4127623  63.3305597  50.7489109  82.6385253   0.8561928  15.4027870
  83.1181114   1.0473235  14.5967510  83.0668657   1.3931925  16.0694149
  45.1525232   1.7068838  27.5692916  44.8510012   0.8855318  27.9575014
  45.2453300   2.3031305  28.3123279  14.4575024  81.0464954  20.4282236
  13.5738969  80.7219219  20.2546573  14.3626058  81.9987011  20.4515767
   6.0982341  46.6776133  49.6806335   6.6625130  45.9879065  50.0301027
   6.5895724  47.4860001  49.8266697  79.7797605  37.9050230  69.4598389
  79.3132850  37.5542234  68.7011766  79.8910686  37.1529078  70.0413609
  29.3098211  78.4858179  31.9841075  29.2920709  78.8135576  32.8832746
  29.4303322  77.5406933  32.0760083  11.5700996  85.5395889  70.8947802
  11.8676424  85.3725243  71.7890882  12.3516953  85.8474064  70.4358864
  70.2524113  24.6443017   3.4380653  70.3486895  25.5708773   3.6580970
  70.2868514  24.1930039   4.2814949  21.4554477  56.3440084  51.2817001
  20.7037640  56.2279797  50.7005453  21.0778356  56.6654491  52.1004295
  69.5104543  55.7377291  62.9842472  69.1094462  56.6062021  63.0186415
  69.3885795  55.4533434  62.0784330  54.0374934   4.7000439  10.2857044
  54.8615997   4.5086653  10.7334259  53.4333806   4.9402125  10.9882667
  67.2213011   5.1729329   1.0874536  66.4737909   4.8235877   0.6022527
  67.2959869   4.6046431   1.8540695  29.2705457  78.1116899   2.2479751
  28.7599192  77.8997501   3.0293634  29.4352255  79.0520700   2.3172548
  31.0986900  32.0995164  42.0316601  31.7702937  31.8014646  42.6451302
  31.4773130  31.9417429  41.1667967   4.8828787  44.0587282  38.0728650
   4.5783362  44.4573784  38.8880754   4.4624397  43.1989956  38.0549908
  22.7148509  25.0878167   5.9390903  22.7564764  24.8059535   6.8529016
  23.1424737  24.3837667   5.4515630  21.0126019  20.1921749  47.4942207
  20.5409503  20.6148076  46.7764759  20.3701138  19.6022475  47.8884649
   7.5314301  52.4926758  48.4309530   6.8970281  52.0801735  47.8447723
   8.2655519  51.8790865  48.4593391   0.5798259  32.3007417  25.9873652
  -0.2780867  32.0387053  26.3213634   0.5927682  31.9826674  25.0846529
  89.2401118  51.9048691  40.8172131  89.4721193  51.0350657  40.4918814
  88.8900325  52.3612404  40.0520945   0.9804138  41.2243462  56.7650700
   0.9346320  42.1626711  56.9485855   0.4015894  41.0988426  56.0131121
  16.2421417   5.8358049   9.8274332  15.9541655   6.5293342  10.4209971
  16.9902492   6.2124479   9.3640685   6.9941235  22.4770474  59.9666548
   7.5593203  23.2449269  59.8821402   7.5697547  21.7346001  59.7832060
  87.2922877  39.2202902  23.1946921  88.1322438  38.7637401  23.2423210
  87.4982620  40.1256657  23.4272885  15.5091536  21.9804978  30.6218219
  15.1593566  21.0941100  30.7123280  15.1941955  22.4427509  31.3985825
  71.6166166  46.2843466  44.3361425  71.9025103  47.0418119  43.8255119
  71.8061153  46.5220308  45.2437925  14.5683694  46.0747433  53.6628008
  15.3632987  46.6064692  53.7026358  14.7506094  45.4217529  52.9870605
  12.0510781  68.7346601  20.7326484  12.5369072  68.6113834  19.9171698
  11.1442614  68.5300970  20.5044651  33.2214880  46.6775942  39.8117232
  33.4451604  47.2724199  40.5275393  33.9232826  46.7980766  39.1720366
  20.3335333   9.8297417  16.8235123  20.3750968   9.6136850  15.8919418
  19.9783111   9.0425760  17.2363305  76.0419229  54.4586229  72.4841785
  75.9686223  54.6985340  73.4079218  75.3411297  53.8214493  72.3458672
  13.4226143  24.2373013  25.2950025  13.2525718  23.6759496  24.5385623
  14.2579770  24.6603227  25.0963736  71.2829176  27.3185658  19.9058414
  71.1855892  27.9253411  19.1719580  70.7109228  26.5831971  19.6860921
  66.8612708   8.1401769  74.2891932  66.5211810   8.8448755  73.7378540
  67.8117449   8.2490293  74.2578541  88.3586607  73.8840294  31.6564035
  88.4753890  74.2081070  30.7633305  88.9736818  74.3977547  32.1799183
  23.6456522  61.6206797   5.7415703  23.1278511  61.2490638   5.0274208
  24.3992361  61.0357829   5.8205631  64.3529812  35.3585410  67.8754091
  64.0137903  36.2492704  67.7871943  64.6438853  35.1246381  66.9939947
   8.8151389  40.4452562  46.5138769   8.3251613  41.2606049  46.4073133
   8.2516766  39.7749448  46.1273241   7.0468056  27.4382615  55.8891296
   6.0951078  27.3685837  55.9642744   7.3607945  26.5386724  55.9806728
   7.2761369   0.4277985  65.2321196   7.0991641  -0.3679864  65.7337570
   7.1967095   0.1569908  64.3174696  74.3471520  17.0648081  20.8275821
  74.6652608  17.9242547  21.1039665  73.5414629  16.9353611  21.3279178
   7.3921216  65.6964588  37.3693585   6.4830935  65.4183197  37.2573829
   7.3984408  66.6122150  37.0908237  21.6848612  79.1465616  53.2230902
  21.3870597  78.6275482  52.4759817  22.6386881  79.0685844  53.2039213
   5.8990914  61.8592834  53.7824678   5.5814886  62.7597141  53.7147379
   5.7926673  61.5008545  52.9013109  44.6422657  70.9995540   0.9184435
  45.2430281  71.7330988   0.7871940  43.8798078  71.2153824   0.3815010
  20.7070351  37.0587325  72.4576092  19.9040246  37.5703144  72.5560379
  21.2423062  37.5678921  71.8489456   5.4749787  41.8921804  54.4731474
   5.7646745  41.5265703  55.3089952   5.4049975  42.8330564  54.6346712
  16.3895392  74.3500853  29.3309593  16.7801178  75.0835180  28.8558221
  16.1930978  73.7031555  28.6533737  79.3382934  59.2325878  54.5100594
  79.3096498  59.2545414  55.4665756  80.0460771  58.6214685  54.3055964
   3.2037628  63.0950117  26.3382816   2.7743968  63.1309843  27.1930242
   4.1062009  63.3626223  26.5121245  66.7029559  15.8751090  17.1867016
  65.8268624  16.1311896  17.4749973  66.6977172  16.0260422  16.2414863
  21.0627913  34.5905662  67.2574091  20.3810954  35.2550316  67.1573734
  21.0960722  34.1517115  66.4073896  71.9132999  47.9096174  62.4948263
  71.8164495  48.5966778  63.1542206  71.0382072  47.8131294  62.1191454
  80.2230028  74.7554493  42.9030037  79.8711494  75.6265402  43.0864048
  80.2128939  74.6892166  41.9481516   7.6241469  54.5503330  43.5491943
   8.1290215  53.7955236  43.2465458   8.2529533  55.2719879  43.5558558
  81.3928834  40.3688622  20.9872055  81.1483077  39.7548532  20.2948141
  82.3060933  40.1585436  21.1822557  48.8893795  69.4820118   8.9521992
  49.7827721  69.1696405   8.8090122  48.5632563  68.9503813   9.6783161
  13.2628548  19.6348763  18.4301233  14.1353858  19.2679894  18.2875860
  12.7767146  18.9345324  18.8653457   5.3492624  31.1724973  53.9779520
   4.9420890  31.3326406  54.8293018   6.1029178  30.6158376  54.1738224
  25.2738333  66.0007191  20.7726049  24.5763230  66.5534687  20.4202151
  25.3130960  66.2277842  21.7016530  27.6498723  39.1783524  28.1472826
  27.6120877  39.1443968  27.1914315  26.9041967  39.7239947  28.3972263
   4.3927982  60.8663940  43.9737511   4.4693795  60.9583616  43.0240631
   3.9268839  61.6542292  44.2538786   8.5647296  81.3202827  68.5224662
   7.7330421  81.3116138  68.9962307   8.9966081  82.1241586  68.8114241
  30.1084018  65.8807373  61.0514688  29.3041158  65.3834486  60.9029436
  30.3621888  66.1909199  60.1822138  13.8360119  61.0184860  27.5998044
  14.5444918  60.4832792  27.2422576  13.2163095  61.1100245  26.8760490
  85.5190650  16.0351956  12.6084530  85.4749534  16.9243801  12.2568321
  85.0651745  15.4980528  11.9590747  11.3535237  60.6807184  39.9610877
  11.5520155  61.5347242  40.3451538  11.0634208  60.8800077  39.0709424
  82.8506062  44.5847034  36.8342257  83.0021349  45.1563835  36.0815930
  83.6746827  44.1103888  36.9444752  90.0825076  26.3484240  26.9437265
  90.8543377  26.0582995  26.4575791  90.3976546  27.0740223  27.4826336
  80.7928796  85.7326965  32.0027757  80.7435305  86.5849084  32.4358249
  79.8810096  85.4546846  31.9165611  14.8928928  52.8378344  48.4610033
  14.4870794  53.3181524  49.1826963  15.3327477  53.5114479  47.9423475
   3.6610025  50.7969809  60.8313513   3.3597013  49.8983526  60.6974936
   3.5515967  50.9489584  61.7700577  52.8305149  56.3356256  67.1995258
  52.8848648  55.6572008  66.5264606  51.9630814  56.2194490  67.5872087
  89.3394717  43.0964851  57.8047037  88.9532543  43.9675617  57.8958082
  89.2437414  42.8880453  56.8753910  82.9898814  56.3298368  32.5182199
  82.8302620  56.1335802  31.5950537  83.9435915  56.3495970  32.5974607
   2.1945770  32.9396272  13.1628048   1.8113112  32.3463750  13.8088632
   1.5944326  32.9027200  12.4180257  18.9122934  83.5723993  32.2386527
  19.1518707  84.4491188  32.5389791  18.6946459  83.0959357  33.0398035
   5.6933898  47.9426527  23.5536480   5.3715891  47.6409101  22.7041626
   4.9107540  47.9917812  24.1025543   5.7921201  51.1448908  27.7440953
   5.2956426  51.7494678  27.1925211   5.5064553  50.2753735  27.4638033
   8.1249642  42.0969296  32.6334143   8.0758983  42.9732466  32.2514629
   8.8812280  41.6924000  32.2083783  26.6583848  35.5956650  13.7008023
  25.9383988  35.5473852  14.3297064  26.2283087  35.6253004  12.8461754
  68.4206406  60.3358936  14.9126446  69.1111413  60.9923506  15.0048625
  68.6168877  59.8964643  14.0852261  26.4380550  60.7798719  34.9893045
  25.7128596  60.1862192  34.7946143  26.2122059  61.1641455  35.8363914
   8.1590033  59.8050356  58.1447554   7.5797069  60.0049829  57.4094582
   7.6896334  60.1276636  58.9140654  87.5604419  38.3744812  68.0132151
  87.5108225  38.2425070  68.9599752  87.1485368  39.2262673  67.8682089
  32.9499340  72.2575283  45.8166027  33.2543135  72.6572561  45.0018644
  32.0901990  72.6496935  45.9692144  20.8999014  66.6134644  67.4732113
  20.9656858  66.4535379  68.4146595  21.1796308  65.7913876  67.0704985
   6.1053956  64.2517376   6.3372850   6.2297136  63.4533548   5.8241010
   5.2047855  64.5177889   6.1519480  74.8878948  49.7420263  61.0211229
  75.3986291  50.4697180  60.6663799  74.0165774  49.8530722  60.6407213
  21.4786363  65.6315804  51.2233925  22.1912217  65.9087133  50.6475019
  20.8871460  66.3836288  51.2515116  36.4417171  39.7178245  20.8867192
  36.2201333  40.6488085  20.8667064  36.0959554  39.3715906  20.0640392
  74.7805233  33.0942098  58.0467758  74.2729969  33.9047138  58.0884096
  75.4713304  33.2104103  58.6990902  77.4737159  38.8071871  30.3016353
  77.0296577  39.2561793  31.0209751  78.3351961  39.2219019  30.2558756
  20.0866815  15.1257490  19.9971080  20.7003310  15.5912947  19.4288337
  20.5903074  14.3871950  20.3393340  39.1790399   7.1426176  56.6817522
  39.3501618   7.3318552  57.6043224  39.4345840   7.9422449  56.2218332
  63.7360565  76.4639759   8.9725989  64.1614715  76.7542171   8.1657434
  64.4596998  76.2655973   9.5669198  73.0736116  71.8187618  34.4028544
  72.7992514  72.6584387  34.7715020  73.9779726  71.7117882  34.6976757
  13.6138415  78.1434965  37.0282841  13.1082034  78.7698936  36.5104198
  14.2524564  78.6806488  37.4971843  16.6151679  19.0384579  21.2460947
  16.4477205  19.3996572  20.3756189  17.3569906  18.4465754  21.1211705
  80.5849246  70.7941914  24.1979003  81.0779814  71.4704847  24.6623945
  81.2204478  70.4040146  23.5978127   1.1428347  69.1132784  14.1617632
   0.8621841  68.2326174  13.9129627   0.6315878  69.6953583  13.5995841
  10.2536389  65.1432284  19.6147945   9.6738669  65.8920034  19.7541931
  10.8818146  65.4455479  18.9588764  22.7946758  82.7806854  16.8312752
  22.4885345  82.4797535  15.9757364  23.4650230  83.4335613  16.6297257
  28.9074564  67.5451374  73.8148785  29.7947407  67.1881104  73.7762547
  28.9536858  68.3568192  73.3096361  31.8858218  11.8865573  70.3698683
  31.6935611  11.6055226  69.4752836  31.2032366  11.4770555  70.9014893
   0.7613476  46.5448761  33.8649225   0.3930304  47.4048281  34.0675473
   1.6972223  46.7070580  33.7463188  70.1007016   2.9851619  66.8386630
  70.8803744   3.4259359  66.5009329  69.8735918   2.3478977  66.1615017
  60.8382121  68.8991213  63.3912039  61.4028446  69.6187162  63.6733532
  61.2792007  68.5355663  62.6233578  26.6598392  38.9429784  40.4777956
  26.9323897  39.5551920  39.7943163  25.8742857  39.3391681  40.8548498
  17.7702093  75.2689171  36.8824244  17.7562976  74.3170404  36.9823098
  18.5325706  75.4406214  36.3296556  35.0899839  70.8095646  38.6394119
  35.4381227  71.0293388  37.7752733  35.0357580  71.6489172  39.0963387
  15.6753969  69.9767113  41.6687346  15.3563607  70.4395151  42.4434996
  16.1437058  70.6439829  41.1670732  82.0368943  68.1810188  41.0889721
  81.6579805  68.1644344  40.2101231  81.2943385  68.3574390  41.6666603
   4.2494894  33.4727843   9.0682342   4.5880033  32.9821570   9.8171737
   3.5697509  32.9085333   8.6997154  24.1501236  58.6320686  34.7427273
  23.4482336  59.2279387  34.4809484  23.9075685  58.3489180  35.6243300
  11.1372149  66.3132095  31.9977689  10.4380929  65.7777214  31.6226482
  10.9595728  67.1975899  31.6775513  80.1693169  65.6060219  60.6641626
  79.4702033  65.0070906  60.9263706  80.7093695  65.0946331  60.0616264
  82.4213753  49.3658781  55.8043814  81.8234340  48.8366604  55.2765322
  81.8615750  49.7708082  56.4668703  27.8637227  28.9305471  62.3694324
  27.2240811  28.4158777  61.8772888  28.5727495  29.0904116  61.7465687
   5.9332919  66.6702175  65.5078745   5.3935134  65.9858894  65.1121855
   6.2149668  67.2100878  64.7693443  52.6616652  49.3871824  73.5864508
  52.8788472  48.7288801  72.9263813  53.3729209  49.3303339  74.2245063
  74.4389049  43.0136108  35.2064085  75.2188245  43.3917999  34.8002911
  73.8679115  43.7636185  35.3728008  86.7404474  36.1896229  61.2434053
  86.1684439  35.5055809  61.5914440  87.5527845  36.0989308  61.7415190
  23.4383917  68.4829235  33.1968737  22.7209592  68.0111694  32.7738214
  23.4120560  69.3573427  32.8083777   5.1530683  55.0808954  39.9390507
   5.0046092  54.7578430  39.0503287   4.8009998  55.9709692  39.9322891
  14.6739519  56.5558910  48.9048243  14.1506875  55.8451796  49.2753839
  15.5805588  56.2974310  49.0706444  83.3071170  66.3119125  34.6700597
  83.0989734  66.9362593  33.9750051  84.1414020  66.6184139  35.0253868
  20.5025458  50.2388811  52.9428339  20.8520794  51.1083221  53.1381035
  20.9642267  49.6545267  53.5441780  21.7413855  40.7158852  60.0476599
  22.1208596  41.4603519  60.5145693  20.8160281  40.9405947  59.9504232
  80.3115574  45.8626795  38.2291698  80.0830034  46.1125755  37.3338771
  80.9512798  45.1582670  38.1253147  74.8795811  61.5454865   4.0401107
  74.5930592  62.4190044   4.3067613  74.2098895  61.2519312   3.4223968
  74.6956686  42.0621014  38.7756038  74.3170194  42.0679617  37.8965020
  74.0729574  42.5571966  39.3079090   1.1119486  22.4664433   7.2893837
   1.0217501  22.9216511   8.1265667   1.5175129  23.1105740   6.7089966
   5.7976438  52.8611882  12.6525238   6.2297417  53.6467011  12.3171165
   6.5147568  52.3041184  12.9552772  45.4561540   2.1773695  38.6004281
  46.1202487   1.7685102  38.0454040  45.8569714   2.9972719  38.8891053
   8.5627908  50.0064659  27.4772620   8.0636454  50.6307554  28.0039001
   8.6494797  49.2355442  28.0379701   1.0736828  50.6051064  32.1107101
   0.9926976  49.8918200  31.4775491   0.8682995  51.3944912  31.6097903
  55.3741709  47.5568771  74.0041399  54.6020953  47.1775770  73.5842943
  56.0128156  47.6445436  73.2965517  25.8004785  72.7015400  14.9511838
  25.4374743  73.4016514  15.4936814  26.7448282  72.7480745  15.1004231
  55.7066294  20.1094317  70.8347416  56.0317918  19.2646956  71.1460686
  54.9471685  19.8896383  70.2951670   4.0608677  46.9129419  45.9985876
   3.3531690  46.6630983  45.4044724   3.8758078  46.4339018  46.8063641
   4.7748750  63.9908934  64.6178102   3.9035338  63.7530518  64.9347162
   4.8080811  63.6448479  63.7259674  12.6640320  68.0985594  62.6610231
  12.1549273  68.9086485  62.6893282  13.1338012  68.0816460  63.4948492
  12.5263464  59.4277000  32.7979302  12.9042387  60.1496267  32.2956872
  12.7349401  58.6455488  32.2870851   6.4633977  37.3378158  39.4973898
   7.3666525  37.1143818  39.2728019   6.5415126  38.0905700  40.0834703
   0.9059714  60.3212404  64.4140339   0.0523166  60.5801678  64.7611094
   0.8954259  59.3644905  64.4413042  64.2762629  35.5207705  74.3909359
  64.1378275  36.0452652  75.1795912  63.8563362  36.0229301  73.6925650
   7.6507676  57.9254484  41.3272047   7.0065367  57.3151970  40.9683323
   7.3631871  58.0750847  42.2278404   8.8092035  65.1226664  11.1307836
   9.5036465  64.5385218  10.8262205   8.2891130  64.5853186  11.7282760
  52.1618334  62.9907513  18.8501728  52.7158204  63.3749866  19.5296550
  51.6407505  62.3324394  19.3098748  27.9324193   5.2913355   2.0521319
  27.6317805   5.4325460   2.9498556  27.3362186   5.8131384   1.5150112
  14.5646763  82.3583794  16.5472400  14.0964425  81.5242958  16.5833783
  13.9216101  83.0066872  16.8342817   3.0312970  81.0459614  47.7340937
   3.9096025  81.2260818  47.3988771   3.1702623  80.4229164  48.4473467
  39.1232252  46.1610126  25.3715110  38.9448166  45.2353716  25.5376220
  39.2397094  46.5423965  26.2416887  82.0395390  71.0884857  47.6120186
  82.1756945  70.7399702  46.7309809  81.6287533  70.3700304  48.0929565
  62.3696346  38.4463437  -0.0435278  62.4262864  38.4258206   0.9117725
  61.4675630  38.7105401  -0.2243492  18.8483381  80.8038235  52.8594494
  18.6141932  80.0751400  52.2846127  19.3958485  80.4077339  53.5373640
  46.8623158   1.1169695  43.2142305  47.7396616   1.0323881  43.5875177
  46.3585624   0.4141974  43.6248112  14.5116663  44.1738272  71.9686890
  13.9987826  43.3725452  71.8632174  14.9630964  44.0608931  72.8051615
  12.5238872  86.0024166  46.1219215  12.7067542  86.3932705  46.9763374
  12.3904181  85.0728893  46.3073826  89.4124699  47.7536440  73.3373260
  89.5609099  48.6283922  72.9781389  89.5121031  47.1668339  72.5876856
  49.7935295  49.7490931  17.6281130  50.2735662  50.5730343  17.5449681
  49.0397072  49.9654150  18.1769276  60.2297422   5.7928442  43.6165810
  60.0747892   5.0101446  43.0878067  60.0946423   5.5030035  44.5187807
  69.1926280  21.7962050  59.4453335  69.1917745  21.7457485  60.4012012
  68.2666603  21.7764235  59.2036152  19.5615709  63.3245420  38.5385156
  19.4721162  62.8175497  39.3454766  20.4402781  63.7008858  38.5882664
  85.2780244  74.6318531  21.8553853  84.6426765  75.2034903  22.2864270
  85.7193408  74.1792917  22.5741768   9.8086053  81.5104103  46.3283920
  10.6505299  81.1470795  46.6029549   9.8895186  81.6122818  45.3800774
  51.2469598   6.1469339  38.6602426  51.8482038   6.6025805  38.0710697
  51.1654636   6.7286085  39.4160461  22.3699522  69.3852615  27.8740048
  21.6597342  70.0060844  27.7115059  21.9533610  68.5251856  27.8196907
  83.2429001  44.6788359  19.1963494  83.2706831  43.7494659  18.9688981
  84.0890566  45.0213051  18.9083147   4.9017736  64.8199224  41.2761831
   5.1493025  65.6744623  41.6293383   5.6624794  64.2629528  41.4415407
  11.9585729  55.7388020  32.9629874  12.7614927  55.9676600  32.4948239
  12.0603812  54.8106194  33.1735635  10.3843737  80.5400658  63.6717558
  11.2610102  80.9073448  63.5584021  10.2754426  80.4685307  64.6200466
  76.2143627  33.2339978  24.2015576  75.3673736  33.6417150  24.0209770
  76.7926792  33.9668083  24.4131517  68.1982509  63.2470274  30.2782536
  67.5582472  63.8955021  29.9848056  68.9986435  63.7505913  30.4266691
  24.7307372  52.0691013  29.8321509  24.3468928  51.4404106  29.2208862
  25.2748013  52.6345587  29.2839861  14.4458532  76.9951487  47.6182079
  13.5342193  77.2009134  47.4112844  14.4714761  76.9559002  48.5742569
  26.3325429  42.7007055  41.9614267  25.9534574  42.2931337  42.7401543
  26.2528849  43.6412287  42.1204996  88.0913637  68.2707930  56.5979099
  88.2821742  68.2654572  57.5358820  88.3288691  69.1522884  56.3101864
  86.1981670  63.0072021  49.9369144  86.5769146  63.8019466  50.3126287
  86.3147271  63.1097078  48.9923859  85.4334728  53.5035372  62.2572613
  85.6811074  54.0758133  61.5310287  84.4840506  53.4119368  62.1770239
  81.9024143  27.5817823  39.6634626  81.8116686  27.5333524  40.6151199
  81.0030822  27.5667834  39.3360353  88.0900485  78.0873203  40.9845924
  87.8105865  78.7541962  40.3573656  87.2842673  77.8239346  41.4290857
  12.5341070  33.8863873  65.2802420  12.1304417  34.5610380  65.8262539
  12.8426838  33.2276583  65.9024048  23.3043933  57.3883104  59.5011234
  23.9199901  56.7644072  59.8858547  23.8545251  57.9873228  58.9963722
  14.7225964  55.7658195  46.0759068  15.5196381  55.3404093  46.3921118
  14.4270861  56.2994003  46.8136024   4.9549341  75.4844189  32.9910111
   5.0923020  75.8781099  32.1294022   5.2485150  74.5789480  32.8901672
   7.1201223  53.2623148  66.3908482   7.8296763  53.8607121  66.1569977
   7.5236398  52.3944712  66.3748646  15.5270195  67.0981884  32.7523637
  15.7186997  67.1186304  31.8147755  16.0576928  67.8045130  33.1207752
  64.2265645  56.4281368  58.5096979  65.1434532  56.6413641  58.3362627
  64.0645329  56.7660952  59.3904686  18.4277630  46.2277222  50.0514174
  17.5006819  46.3989925  49.8858309  18.8064551  47.0923948  50.2100754
  36.0767007  65.1248121  24.3247342  35.4424930  64.5324039  23.9209175
  36.9018292  64.9319172  23.8795543   5.0962007  79.8878860  55.7249165
   5.6769222  79.3727875  55.1648617   4.2163080  79.5854664  55.5000591
  20.2912664  71.3652849  30.2485871  19.3860877  71.6030359  30.0476980
  20.4119945  70.5107641  29.8345208  16.6952443  29.0906811  47.7110815
  15.7811999  28.8131285  47.6501083  17.0045865  28.7167144  48.5361195
  17.1338511  65.2914810  24.7352552  17.2451055  65.8953285  25.4695725
  18.0264151  65.0633717  24.4753957  84.0956596  66.1425352  52.0580339
  83.9185534  66.2064457  51.1195374  83.2510678  66.3164425  52.4735498
   6.8347311  62.6848745  20.4702020   6.5712923  62.9183388  19.5800757
   6.0678977  62.2472715  20.8399343  79.0091328  59.1483307  21.3759637
  78.4844807  58.6981010  22.0379806  78.6154703  60.0182867  21.3093257
  21.3388491  60.5634260  36.4931011  21.7703342  60.5202579  35.6397629
  22.0415306  60.7794142  37.1061444  11.4144742  70.2423668   0.8620387
  11.8816566  70.9193707   1.3515699  12.0474553  69.5295906   0.7753714
  74.1110102  85.2324772  29.7908211  73.5736374  85.6316853  29.1066456
  74.7670153  85.8977699  29.9988556  25.7914686  67.4032021  54.4525623
  26.6736603  67.4746418  54.0880537  25.3648043  68.2249880  54.2099619
  23.3122253  60.6139040  62.3283768  24.0886450  60.0787878  62.1638966
  23.6358047  61.5147018  62.3190355  27.9471946  45.9911585  12.3672128
  27.9897857  45.3654814  13.0903590  28.7585831  45.8492613  11.8796194
  48.8854543  72.4591923  61.4946985  49.6497766  72.8297234  61.9359970
  48.7269584  73.0470610  60.7561016  69.9053255  53.8308001  66.5772820
  70.8485714  53.8244820  66.7400074  69.5524517  53.1844330  67.1887732
   4.2819980  17.9246795  64.8842525   3.6290765  17.2990441  65.1981068
   4.7179258  18.2344401  65.6781340  38.5437712   5.7803415  28.2387447
  39.5004758   5.8034586  28.2183766  38.3150067   4.9545454  27.8121829
  14.6676385  74.9074268  45.9748268  14.5562673  75.6785631  46.5308666
  15.1345336  74.2797852  46.5264702   0.2169446  53.1568861  53.2535648
   0.9719616  53.1487656  52.6652527  -0.0095866  54.0828943  53.3397532
  18.4309554  74.8578548  46.2414789  17.6315594  74.3817186  46.4661789
  18.2749403  75.7489347  46.5543222  83.0915318  62.8122520  46.7266369
  84.0422670  62.7074099  46.6899920  82.9077969  63.5403013  46.1329889
  27.3910427  34.6912408  46.6148329  27.3486328  33.7426066  46.4943027
  27.8708053  35.0086737  45.8497906  24.0179348  57.2535610  51.5789795
  23.1327176  56.8970203  51.6531563  24.5789218  56.5858459  51.9735384
  67.0761819   3.0612604  54.6727798  67.3295004   2.3569433  55.2694354
  66.2103743   3.3332197  54.9771592  85.8209226  46.1220646  25.1186419
  86.3972796  46.6172791  25.7007146  85.2276716  46.7786026  24.7536254
  12.1221185  73.9558935  60.6420755  12.9091799  74.4877863  60.7597780
  12.4130464  73.2106733  60.1164865  79.5672579  16.4988462  74.4836597
  79.4278521  15.7038013  74.9981502  79.3551738  16.2434236  73.5858787
  61.6856948  28.4049606  64.7102404  62.0677320  27.6692057  65.1887274
  61.4787952  28.0475450  63.8467169  23.4006143  60.9665346  20.9875870
  22.9386020  61.0034609  21.8250918  23.9420199  60.1794147  21.0472155
   4.3298241  53.3045053  51.6634417   4.2395794  52.7828455  52.4609137
   3.4301731  53.4602928  51.3760567  11.4579535  62.3332691  60.3975201
  12.2640240  62.8413486  60.3062057  11.4753485  61.7220783  59.6610594
  78.7344602  37.7253175  25.2018094  78.3795873  38.5196161  25.6010389
  78.3277599  37.6901412  24.3360209  33.2913017  58.9757013  30.7112026
  32.9640341  59.7332335  30.2261519  33.3198953  59.2686176  31.6220331
  40.2786775  74.9471475  22.6409912  39.6415348  74.3442727  23.0241609
  40.9429140  75.0578023  23.3212686  26.1399198  60.4465771  61.7684555
  26.3797688  61.0475731  62.4737978  26.9532537  59.9880695  61.5575266
  28.9630437  45.5659580  28.3432364  28.7534046  46.4424276  28.6658525
  29.2793274  45.7084179  27.4511027  28.7145972  64.5359278  50.6564856
  27.9834437  64.5390224  50.0387192  29.1017318  65.4074287  50.5737734
  21.2502527  24.3526530  46.5965843  21.3367796  24.6548247  47.5007057
  21.4827132  25.1147223  46.0660696  12.9848361  66.4322662  52.9710484
  12.3107660  66.0790205  52.3904610  12.6165366  67.2550535  53.2929230
  18.8190126  72.2899294  53.7298441  19.2462134  71.6377211  54.2851400
  19.4604969  72.4784231  53.0448580   0.4643559  47.8886223  43.3131409
   0.8398296  48.7559700  43.4646749  -0.4577089  48.0573225  43.1193113
  82.8589246  76.1597681  22.7843237  82.3064319  76.3210201  22.0194817
  83.1288169  77.0316076  23.0729198   2.0078899  63.2157660  65.7727623
   1.2071530  63.2625103  65.2503967   2.1088588  62.2853374  65.9736109
  17.6577699  62.0272112  55.7403469  17.4645948  61.1613178  56.0997105
  17.1098852  62.6252031  56.2487411  18.4485912  78.5467148  62.1848631
  18.8144493  79.4277143  62.1060085  17.5342488  78.6423302  61.9182730
  58.3304736   7.8889154  51.7294359  58.9841482   8.5875486  51.7586374
  57.5246116   8.3262514  51.4545679  62.1520559  62.7385044  68.7989140
  62.6777998  62.1993399  69.3897820  62.4983517  62.5463915  67.9274750
  65.2339624  33.5090096   4.1727617  65.3491091  34.1212113   3.4460046
  66.0446911  33.5801918   4.6766308  38.5558095  17.2447657  65.1834249
  38.1324055  17.8331732  65.8085155  37.8347298  16.8851446  64.6667528
  17.0820665  62.7470922  35.4108238  16.7183101  63.5153866  34.9707866
  17.9801238  62.6872778  35.0850201   4.0062046  67.3929596  33.7858081
   3.4951809  67.0871925  34.5352054   3.6306733  68.2471418  33.5723257
  77.0519928  59.3914032  52.9915428  77.6966122  59.2168951  53.6772871
  77.5627164  59.4114542  52.1822262  15.0351441  32.9625440  34.1614532
  15.9839392  32.9516625  34.0353560  14.8859334  32.3811030  34.9070382
  49.1205715  78.5913723  72.2886904  48.3749388  78.0854290  71.9657605
  49.3856810  78.1416981  73.0910248  23.6101389  29.0905833  24.5608592
  22.9126549  29.5843840  24.9920297  23.9725542  28.5353827  25.2512527
  55.4328028  50.4292107   7.7585095  55.0446526  50.9014750   8.4950793
  54.8934785  50.6735229   7.0063990  33.0345178  31.4645386  43.8109016
  32.7514195  31.0639834  44.6328783  33.9783406  31.5847874  43.9156485
  22.3801231  44.2095947  50.5294418  21.8105555  43.6510181  51.0584211
  22.7046633  43.6335945  49.8372507   8.0587190  61.9822311  16.0328484
   7.3851299  61.8693209  16.7034888   8.8836998  61.9739246  16.5182042
  33.8881516  57.7190161  26.2596464  33.7657762  57.9497576  25.3387690
  33.1245518  58.0888844  26.7027569   0.2985550  78.8127279  72.6288414
   0.7145683  78.1606627  72.0649481   0.2544595  79.6024227  72.0897007
  28.5281086  33.4627891  36.5636921  28.2284164  32.6420498  36.1727905
  27.7995729  33.7446785  37.1168709  18.6531568  74.1238832  23.7476540
  19.2943096  73.4677839  23.4743643  18.6325502  74.7534037  23.0268836
  20.7241869  24.2409873  42.3010445  20.4084373  24.3389773  43.1993389
  20.6025577  25.1055980  41.9087601  21.5112805  67.4318743  26.1384249
  21.2623286  68.2313395  25.6746197  21.5543151  66.7623997  25.4556489
   7.7140206  60.5598068  37.1715975   7.4844015  60.7152748  38.0877519
   6.9490910  60.8574438  36.6791296  35.6241083  42.4739552  25.6975317
  36.2552428  41.8595409  25.3228378  35.6203103  42.2725248  26.6332912
  13.3986357  31.9632522  63.5247192  13.3154515  32.7157394  64.1104469
  13.1215886  31.2156526  64.0544054   0.9860589  70.9434557  29.4586325
   1.3344046  71.7234945  29.0268660   1.0214209  70.2621269  28.7872362
  36.5269535   0.2153285  17.9048660  37.1415870   0.6683094  18.4821537
  35.6949609   0.2354605  18.3777549  35.7676935  65.1776791  31.7642951
  35.0211716  65.4184055  31.2156725  35.5112004  65.4428482  32.6475453
   3.7732428  43.1259584  32.8860283   4.3216094  43.0599928  33.6678052
   2.8792667  43.0182981  33.2107544  42.3648962   1.4778112  55.5730200
  42.7405831   2.1287798  56.1657524  42.2732111   0.6902575  56.1092806
   0.7123182  64.1774607  71.6270161  -0.0807768  63.9225006  71.1556053
   1.2487572  64.6218348  70.9705162  21.7349982  28.5410500  43.1573772
  21.7313099  28.6634517  42.2080421  21.8576908  29.4216561  43.5119390
  78.4729771  41.1789846  49.7326994  78.5839037  41.9814491  50.2425766
  79.3590466  40.9479713  49.4538736  63.8175865  49.1195328  13.0790451
  63.7130155  48.9720757  14.0190246  64.6976500  48.7983544  12.8826740
  41.2527370  79.2933083  28.9267063  40.8964205  79.0998077  28.0596256
  41.1052322  78.4928083  29.4303679  81.3428125  37.0994210  66.8863726
  82.2471467  37.0688438  66.5741587  81.3714293  37.6802301  67.6466846
  12.8881705  42.6831293  13.2018769  12.6507962  42.2089672  12.4049723
  12.7956152  43.6066055  12.9676652  22.5859356  45.6387663  30.9388137
  22.4326110  45.6234026  29.9940991  23.3771515  46.1670113  31.0444903
  17.7143168  59.7507954   8.3633965  17.1806991  60.2649212   7.7574605
  18.3228076  60.3844213   8.7435097  22.0302367  42.4342918  12.9554963
  22.3429894  41.7854691  13.5859323  21.1222839  42.5978804  13.2106328
   0.7596307  55.6202841  25.8676028   0.4609193  55.0701761  25.1434588
   1.2741174  56.3098907  25.4481006  89.8983795  78.7759924  15.2992415
  90.6168754  79.4079971  15.3229761  90.3214333  77.9273796  15.4300654
   7.9725373  74.7698259  53.3500242   8.3531553  74.3004608  54.0923595
   7.1148288  74.3639135  53.2243109   6.5084708  83.4370422  70.1205444
   6.8427944  83.5495758  69.2307138   5.6117225  83.7697411  70.0833416
  73.0408946  84.1102886  45.6469345  72.1397117  84.1466236  45.3263378
  73.0604724  84.7288990  46.3771200  75.2814797  26.0716796  41.3563299
  75.8367936  26.3635349  42.0792961  75.4451958  26.7052150  40.6577158
  12.6315280  75.2547582   0.9607103  13.0346056  74.6005782   0.3899124
  13.3224293  75.4908093   1.5797165  67.5449961  13.2042248   6.9272354
  67.2830676  14.0448792   7.3026302  67.6631491  12.6303227   7.6841476
   9.2556602  32.5969052  62.0712948   9.4060278  31.8318224  62.6265144
   8.4834856  32.3690653  61.5535402  27.9332566  41.3847589  31.5896273
  27.1215844  41.2855291  32.0871949  27.6983714  41.9581413  30.8600450
  83.2311741  51.7784643  50.7276249  83.9650956  51.5206099  50.1698589
  83.0626098  51.0096073  51.2723017   8.3651787  79.3861055  29.7947717
   8.3063471  78.4384108  29.9157643   8.0352521  79.7532082  30.6149030
  64.0435382  -0.1477457  48.7038040  64.1986462   0.3025984  49.5340872
  63.1232330   0.0254892  48.5056496  55.6199690   4.4319796  30.2298498
  54.9595949   4.9968885  30.6311083  56.1121484   4.0760206  30.9696388
  67.6818191  25.9514935   4.7493675  68.5270428  25.6015999   4.4675853
  67.5005334  26.6631920   4.1354826  83.6337588  37.4254203  49.7273540
  83.3399037  38.1733441  50.2474403  84.3243156  37.7797508  49.1671610
  27.8871918  84.7739410   2.8131104  28.7929273  84.5250416   2.6289320
  27.8201699  85.6781578   2.5063121  84.3916074  69.5709276  18.3240235
  84.8092333  69.2178535  17.5384283  84.5111684  70.5180264  18.2537532
  34.1321278  54.3793058  30.7728171  34.2725420  55.2787876  30.4771018
  34.4686651  53.8372898  30.0592375  38.1081152  77.5527525  17.8676558
  38.9987898  77.8667402  18.0236757  37.9033947  77.0211029  18.6368597
   1.5248564  59.1239977  42.3125648   0.6013111  58.8896608  42.4041128
   1.7356554  58.9159536  41.4023352  26.3257813  45.7606459  29.7519445
  26.8626165  45.3090572  30.4031801  25.6953454  46.2630987  30.2680111
  24.5637393  47.1224403  31.9902921  24.0173459  47.6267290  32.5931001
  25.3971052  47.5929594  31.9717240  32.2899040  27.8968691  58.3967352
  33.1586271  27.5094103  58.5036421  32.3823879  28.4902834  57.6513863
   4.0540636  49.7832727  33.1644416   3.6312187  50.2653980  32.4538159
   4.9879348  49.9603891  33.0515409  82.6851461  43.3169985   0.3325659
  83.0801741  44.0977907  -0.0554390  83.1509886  42.5859547  -0.0733867
  45.7632705   3.3732485  29.6636176  44.9544188   3.5145163  30.1555896
  46.4327809   3.8390993  30.1645875  49.4556618  73.6069012  30.5491090
  48.9337397  73.0440187  31.1209464  49.6553898  73.0583572  29.7905302
  63.4772491  57.8609784   0.4293277  64.2202040  58.4376748   0.6072786
  63.4351712  57.2826416   1.1908987  60.2935239  18.9754747  46.4886332
  59.9991318  19.0845655  45.5843878  60.9998461  18.3317255  46.4345551
  48.4397766   6.7850088  20.6093264  47.8889605   6.5008139  19.8798966
  49.2578300   7.0632338  20.1974893   0.6667884  46.5594721  68.1710196
   1.1603025  45.8595800  67.7434349  -0.2209768  46.2110376  68.2528734
   8.1204702  29.4705327  10.4330185   8.8296868  28.8625557  10.6418541
   8.4407689  29.9612839   9.6761730  78.6436728  41.9493628  59.9207544
  78.9224604  42.2694492  60.7786894  78.2924060  42.7225780  59.4791889
   4.7701594  38.8984966  32.7136493   4.8999304  39.7587085  32.3143649
   5.5546457  38.7599587  33.2443285  68.8761778  30.2934305  69.8319751
  68.0355425  29.8856489  70.0400079  68.8733293  30.3749744  68.8782588
  18.0862677  78.5908985  42.8107882  18.0530345  77.6343107  42.8022718
  18.8668382  78.7988710  43.3242941  57.4103829   7.4639010  54.3742990
  57.3227593   6.5503572  54.1022873  57.8694459   7.8868937  53.6486483
  83.8724790  65.8089542  23.5119200  83.4553406  66.2439346  24.2555737
  84.7867165  66.0896206  23.5522890   2.7308394  28.3805830   6.1517074
   3.0236746  27.8150494   5.4371145   3.5296656  28.8062794   6.4629963
  16.3733459  65.6867599  44.9162817  16.3658655  66.1194658  44.0625000
  15.5225742  65.8993292  45.2999926   7.0953366  21.1745810   3.3749256
   6.9766184  20.2645277   3.6468410   6.3574001  21.6403173   3.7683412
  53.1234976  24.4234442  58.5741377  53.6203596  24.0310167  57.8562450
  52.3002001  24.7006201  58.1721592  18.5976505  38.5628200  43.6610174
  17.7610016  38.4344268  43.2140684  18.5511625  39.4549823  44.0046978
  16.4633703  78.5535955  40.3628826  16.8423593  78.7294960  41.2240791
  16.8792725  77.7392149  40.0799799  43.6160994  85.4813099  40.9882259
  42.7796412  85.0950718  41.2478304  43.8781881  84.9857807  40.2123404
  21.6250420  84.6455956  58.1265783  20.7216454  84.9189568  58.2858849
  21.6120338  83.6956787  58.2436943   7.4902992  14.3928312  49.2374659
   8.0397158  13.6135458  49.1533136   8.0486326  15.0330233  49.6786594
  24.4085145  46.0409355  35.5521846  24.2550015  45.0962639  35.5359268
  25.2764297  46.1492729  35.1633143  42.3537111  29.1684461  20.5376506
  42.1809959  29.6908331  21.3209200  43.2664776  28.8949251  20.6286430
  12.9757321  58.9915419  35.4415894  13.0653524  59.0907288  34.4937706
  12.2810113  58.3420181  35.5498147  52.7699184  85.4139137  53.7917280
  53.3396196  85.6730366  53.0674887  51.9279814  85.8234119  53.5925102
  35.4753470  79.6208811  52.9598904  36.2317491  79.8686600  53.4915829
  35.3975391  78.6744928  53.0804300   6.1501211  73.7326622  38.2493281
   5.5619872  74.3709850  37.8457499   5.6906158  73.4500456  39.0400338
  49.4895499  45.2866585   0.5229881  49.3071251  45.9568245  -0.1356671
  50.3978627  45.4447110   0.7803133  45.7765755  21.6411184  67.3458099
  44.8769590  21.8850969  67.5635147  45.7512173  21.4433264  66.4096117
   0.0387125  77.4753141  25.0159764  -0.6246612  76.8473005  24.7300339
   0.5959856  77.6013899  24.2480040  12.5950420  66.5058994  57.0373583
  13.2276261  67.1822643  57.2794247  11.9774532  66.4829493  57.7683115
   5.1128328  29.6733737   7.0759690   5.3131646  29.9746776   7.9621494
   5.9376085  29.3090105   6.7546964  41.5737391  76.9258070  53.6548519
  41.0593796  77.4764681  54.2451382  42.3771715  77.4233055  53.5024500
  15.5596161  85.4792690  30.5069160  15.6730151  86.4216995  30.6302142
  15.1881790  85.3955936  29.6286988  23.6005449  85.3644562  31.3483381
  23.3083081  85.6443882  30.4808855  23.3433175  86.0797310  31.9301057
  13.5204502   4.7917818  54.6219873  13.9378866   4.9367594  53.7728930
  12.7345952   4.2843699  54.4190073  69.1492165  55.6119768  72.4060189
  68.6326398  55.5134431  71.6062245  68.5316105  55.9612028  73.0485455
   7.4622595  48.3779764  55.2338314   6.8124044  48.8740349  54.7359848
   7.7026814  48.9568233  55.9572744  28.9860010  62.3277664  25.9129882
  29.2150784  63.1465244  26.3527536  28.6718774  61.7583799  26.6153812
  31.4380050  68.6712265  54.8172092  31.2530541  68.6865568  55.7562447
  32.3165202  68.2967663  54.7522068  24.7949076  59.0521240  58.0260086
  24.2282009  59.6161556  57.4997568  25.6365943  59.5076370  58.0434799
  28.8319332  47.0564627  70.7069969  27.9570806  47.1970247  70.3449059
  28.9606814  46.1090635  70.6613064   9.7095662  85.4097176  53.2367277
   8.8641274  85.4578781  52.7904701   9.5698947  84.7840500  53.9475536
  10.2080914   4.6402239  42.5569487  10.9893176   4.8014998  42.0278835
   9.5999380   4.2048811  41.9595718  38.7589693  39.6815443  22.1310830
  38.4982657  39.6989775  23.0519319  37.9352188  39.5999384  21.6504502
  82.5507358  48.9107847  70.7019234  82.6075051  48.3383226  71.4669704
  81.7057208  49.3508482  70.7942438  83.6437181  53.6896038  69.0301752
  83.1187055  54.4169998  68.6962700  83.0555216  53.2221127  69.6232224
   4.6539882  53.1811182  64.9848637   5.5292085  53.0487386  65.3491399
   4.0608886  52.9939405  65.7124827  58.1256744   6.6593241  28.2212019
  58.4101459   6.8119883  29.1223145  58.0617544   7.5344442  27.8386974
  69.4870990  63.8878090   3.9550617  68.7599640  63.2673485   3.9046743
  69.0923183  64.6927292   4.2904451  16.5060747  75.4650784  20.2430391
  16.7454803  75.2895403  19.3330371  16.1112750  76.3368368  20.2229428
   6.7365146  65.2425623  60.0003529   5.9404379  65.5399466  59.5598316
   6.5375072  65.3209782  60.9333467  74.1190378  65.1156378  38.6520743
  74.2053644  65.8178329  39.2968202  73.2694188  65.2720737  38.2398748
  24.8425269  85.0873280  36.8621111  24.1219664  85.7174206  36.8601775
  25.5903435  85.5776119  36.5206075   1.7558907  77.9703331   7.4033147
   2.0787770  77.1495008   7.7750885   2.5440264  78.4251118   7.1062493
  17.1673441  61.3138008  52.9610729  17.8908658  60.7160616  52.7727699
  17.4682295  61.8248606  53.7124157  19.3686438  84.8581696  46.9810486
  19.1007674  84.8243046  46.0627174  18.7093973  85.4094124  47.4026680
  81.5997927   6.8498213   5.4366424  80.9019249   6.9317992   4.7866466
  81.1479585   6.8900044   6.2795284  33.5889655  23.2130789  59.4870281
  33.0320617  23.5567259  58.7884617  33.3377262  22.2925447  59.5626640
  49.5466753  14.3344091  73.2712555  49.0998312  14.4417357  72.4315882
  49.5373258  13.3902716  73.4285879  19.7338390  79.4274092  55.0810099
  19.9700856  80.2971077  55.4035568  20.4550529  79.1829681  54.5010662
  10.4745623  32.7781652  37.6319933   9.7805282  32.3014902  37.1766520
  10.5766758  33.5880159  37.1320534   6.5726036  78.7205458  18.4349728
   6.5306908  79.6689177  18.3122253   7.2693449  78.5929251  19.0787864
  44.1829964  13.6777948  28.8012123  43.3686444  14.0974878  29.0785480
  44.0063068  13.3779310  27.9095316  11.3169742  56.8708420  50.1378775
  12.1429944  57.3321486  49.9925423  11.0332203  57.1556330  51.0065603
  20.6002641  48.1229401  26.2404275  21.0009980  48.5834217  25.5031347
  20.0951004  48.7956953  26.6969848  61.0176955   3.9828856   6.5384891
  60.7714707   3.9909584   7.4634388  60.2674451   3.5877879   6.0943535
  55.1360261  11.9840176   3.2809904  54.5650684  11.5648968   3.9248684
  55.2768832  12.8664000   3.6242035  10.2465081  58.3906126  25.7315111
   9.7026956  58.8533354  25.0940275  10.8449113  59.0587997  26.0656834
  74.2084304  66.8844461  21.2047839  74.5555667  66.0022116  21.3366604
  74.8795406  67.3312521  20.6888318  49.6637758  18.7345671  35.9252691
  49.6506163  17.7904009  35.7683706  50.2238473  19.0847086  35.2324820
  15.6252694  67.6482201  30.0057459  16.2312877  67.5287437  29.2745137
  14.8656511  68.0833673  29.6186304   9.1925567  81.7370415  50.5558729
   8.2666022  81.5373135  50.6935310   9.2379427  82.6927948  50.5824184
  16.9836640  83.1046867  15.1318681  17.3237085  83.8289833  15.6572294
  16.1880648  82.8307152  15.5881488  57.9643771   0.9891104  38.1434321
  57.3684164   1.6102575  37.7248144  58.7449213   1.5050386  38.3454156
  48.9654160  77.4588442  53.5464048  48.1295776  77.4215651  53.0814171
  49.5999193  77.0967197  52.9279423  20.5383587  57.2770882  53.7113285
  19.9074841  56.9478178  54.3514919  21.3647032  57.3247576  54.1920757
  41.7683983  83.7453938  50.6796026  41.2136602  82.9697132  50.5971003
  41.8021154  84.1108704  49.7955656  20.3279051   6.3422751  33.9865541
  21.2520864   6.2318872  34.2100191  19.9623116   5.4590487  34.0363121
  23.5876348   0.2990030  56.9355631  23.8522979   0.5459475  56.0494423
  24.2889317  -0.2749277  57.2438097  18.2234943  67.1477032  53.4675884
  17.3998046  66.9429827  53.0250311  18.8981152  66.7631769  52.9078913
  16.0160279  67.4204159  42.8964567  16.1473501  68.3685541  42.9014635
  16.3069558  67.1429062  42.0277929  13.7742221  83.9134121  32.1262312
  14.3415856  84.4967556  31.6222048  13.0808830  84.4828892  32.4597144
  53.2013747  13.4841799  41.9364119  52.7299663  12.8184485  41.4355946
  53.0186101  13.2697748  42.8512096  18.0682969  72.6789379  58.6533213
  18.8763285  72.2228909  58.8885641  18.3012366  73.1969452  57.8828430
  35.7007861  80.9667873  12.2781909  36.0838938  81.1948967  13.1252003
  36.4469862  80.9305286  11.6797745  43.7582048  21.1149763  27.7192068
  42.9913482  20.5492662  27.8094125  44.0947231  21.2062048  28.6106467
  11.6611557   8.2222914  58.1638432  11.8117981   7.7223753  57.3615837
  11.0102873   8.8796114  57.9177952  45.6253621   8.3370756  26.9112778
  46.0619899   8.9348387  27.5181246  44.8050186   8.1088614  27.3485255
  47.0075274  84.2292118  61.4961290  47.1199560  84.3534184  62.4385548
  47.1097612  83.2865715  61.3649082  26.8496251  64.1875982  48.7618685
  26.7628407  64.6633959  47.9358482  27.3622131  63.4107971  48.5381126
   4.7072009  23.8886825  74.0119259   4.9924735  24.6489040  73.5050591
   3.8937572  23.6113540  73.5904645  16.6305816  64.3909121  59.5803261
  16.3372052  64.2002916  58.6893606  17.5727761  64.2229462  59.5633364
  38.5317000  20.7202219  57.5057650  37.8098651  21.3482641  57.5330257
  38.3491560  20.1142096  58.2238579  52.2972962   8.7484812  62.6498795
  52.4394270   8.1506609  63.3837986  51.6988727   8.2776331  62.0698547
  30.2762914  82.2947693  50.0912380  31.1695600  82.1520233  50.4041672
  30.0201726  83.1344604  50.4727650  35.5651292  10.2298998  52.0678663
  35.7470718  10.3686403  52.9973173  35.6985202  11.0887693  51.6668892
  57.4271509  10.7328009  51.9981623  57.1477910  11.6387152  51.8658113
  58.3287140  10.8035826  52.3118639  24.1634488  63.1241131  49.5123053
  25.0171494  63.5426807  49.6228933  23.9154267  63.3209038  48.6089849
  84.3851397  68.9354229  49.8726130  84.6878699  68.4220982  49.1235590
  85.1884381  69.2428160  50.2926779  27.4374247  78.8311625  74.3590593
  26.8776703  79.6015406  74.2620039  28.3133769  79.1884184  74.5050240
  82.2094861  69.9988937  58.2954073  81.3113592  69.6678782  58.2898140
  82.1155975  70.9442663  58.4124041  81.7488044  24.5806010   2.1989372
  82.3470371  25.2997954   2.4016884  82.2470444  24.0132315   1.6106489
  48.3336886  10.4192232  60.1809740  47.7437612  10.8220266  60.8181286
  48.3477994   9.4924807  60.4200935  55.9749152  63.8390954   1.8046405
  55.5370008  64.4592698   1.2216690  56.5043341  63.2951100   1.2215212
  19.0694547  49.7021151  27.7295685  18.2193220  49.9850941  27.3927760
  18.8722134  48.9293528  28.2588768  14.8345745  54.8072481  53.4641504
  14.4860923  55.4974461  54.0284395  14.5528758  53.9925861  53.8803339
  28.6745847  -0.0928904  65.5630064  28.9739544  -0.2808691  64.6734667
  28.0945245   0.6623148  65.4659271  76.5345231  56.0715866  59.1464710
  75.6606439  55.7710981  59.3960190  76.8151299  55.4560614  58.4692526
  60.2113077  28.9664625  66.9974995  60.8088633  28.6010145  67.6498795
  60.7218739  28.9835905  66.1880159  78.9332982   2.0820211  53.7772131
  78.7057420   3.0104326  53.8272333  78.3213970   1.6528868  54.3752527
   7.4355435  54.1015053  40.7100296   6.7178285  54.5227766  40.2371120
   7.2717011  54.3105221  41.6296482   2.2934499  62.7974176  21.9060302
   2.7821860  63.5224390  22.2955298   1.9401997  62.3170567  22.6548290
   8.2279891  63.5016727  53.7592983   8.0369961  62.7517176  53.1959820
   9.1512096  63.3988142  53.9901972  21.5800544  25.0242781  49.4584799
  22.5352677  25.0659155  49.5039320  21.2937590  25.9257673  49.6054029
  16.9684124  56.0226297  50.0836515  17.1139097  55.0765896  50.0751162
  17.0340514  56.2667370  51.0068703  23.8717511  13.4943174  36.5499592
  23.3509776  13.4151053  37.3491788  24.2435851  14.3753122  36.5927172
  20.3607011  43.6918497   9.8410892  19.4570816  43.6248350   9.5325214
  20.5818295  42.8061199  10.1288676  81.8126968  77.2844315  58.1563187
  82.1916125  76.4974022  57.7648640  81.2582991  76.9566154  58.8644218
  88.8180797  55.7049942  74.2088509  89.3058357  56.4929056  73.9690256
  89.1443383  55.0306749  73.6129618  19.4704473  34.8142600  53.7557030
  19.3586659  34.5677757  52.8375626  18.6115277  34.6636224  54.1504145
  63.6248606  24.5064957  -0.3216574  63.2613534  23.6987431   0.0411489
  63.3715617  25.1852829   0.3038957  41.6092539  80.0321674  63.1162024
  42.2248220  80.4858875  62.5404882  41.7629528  80.4145622  63.9801311
   7.1495658  56.6386795  22.1714401   8.0200350  57.0110607  22.0305634
   7.0890993  56.5231037  23.1197119  16.8571353  83.5210228  27.6061010
  16.8770850  84.4732189  27.7017021  17.0327699  83.1882095  28.4862280
  28.2020904  60.9625466   5.6199291  28.3083202  60.3304131   4.9090412
  28.2483245  61.8165047   5.1899841   4.5826913  57.5653870   6.4592483
   4.7227432  58.4826119   6.2240341   5.4642655  57.2002728   6.5350845
  76.2796501  54.7461748  38.6860514  75.6775192  55.4429150  38.4248614
  75.7256166  54.1054487  39.1318655  10.5298686  60.8636570  37.3457050
   9.6417212  60.5066872  37.3451281  10.6500280  61.2083673  36.4608502
  49.8298224  12.8019594  50.7457924  49.9918136  11.9609140  50.3184271
  50.6551739  13.0113386  51.1830473  43.8944530  71.2732744  57.9335213
  44.1736507  70.4756546  57.4839830  43.8927650  71.9446421  57.2512484
  53.5647079  19.4894766  69.0761709  52.6186892  19.4096254  69.1982651
  53.7621185  18.9039873  68.3451033  47.7040144  20.0675558  21.0993457
  47.2852131  20.2205442  20.2523327  48.3027693  19.3374895  20.9420991
   4.3255684  27.1653080  56.3521004   3.9466679  26.3797212  55.9577417
   3.5958707  27.5764775  56.8154764  82.1284648   6.2463926  45.9020424
  82.3516485   6.7025160  45.0906372  81.5225431   6.8368029  46.3498163
  44.3139267  64.1404390  61.7273855  44.9794579  64.6408749  61.2553024
  43.6042166  64.7655153  61.8751144  39.1038680  82.1953583  71.0454226
  38.6307669  81.4131832  71.3293362  39.9548268  81.8679810  70.7539988
  56.7400857  31.1851763  60.4719305  57.6385495  30.8990740  60.6366730
  56.3609191  31.2977098  61.3435984  48.2967806  72.4971056  47.7537298
  47.5958109  71.8753052  47.9492760  48.8152599  72.5340891  48.5574961
  46.6126522  18.9421915  29.2162347  46.1710581  18.1669306  28.8695288
  46.2263080  19.0705465  30.0825453   7.0405179  64.9201536  30.0643587
   7.8611517  64.6338892  30.4654145   6.3620019  64.4378424  30.5368233
  40.6802702  80.5343151  53.4981012  39.8968196  80.0000095  53.3678770
  41.0218716  80.6776237  52.6154900  54.4324943   6.7709707  39.6540952
  53.7882372   7.4782442  39.6236801  55.2779004   7.2184538  39.6899533
   2.7619482  29.2854865   1.0632065   1.9084622  28.8602669   0.9796455
   2.5893237  30.0683434   1.5862444  56.0773516  73.6888504  55.3006792
  55.6404400  73.1597662  54.6332884  56.2480307  74.5258951  54.8688698
  55.0690648   0.9966063  43.4166861  55.9786865   1.2946390  43.4160280
  55.1173397   0.0794100  43.1471348  32.7632856  75.3542137  49.3275785
  32.1457696  75.9340286  49.7733593  32.2241426  74.8583460  48.7114048
  49.1381454  84.6757412  59.4723845  48.2763386  84.4070435  59.7906971
  48.9927626  84.9091148  58.5555267  22.6539397  70.9522152  40.9907103
  21.9584060  71.2608433  40.4100084  22.4845076  71.3935614  41.8230152
  26.5553784  66.0939932  46.9582844  27.0253634  66.2005520  46.1312485
  26.0423589  66.8971682  47.0474434  11.7067170  46.5893126  52.9834127
  11.5941715  47.2858572  52.3365831  12.5395179  46.7909241  53.4100580
  52.3908774  69.9876261  36.0797644  51.5872303  70.3080511  35.6702399
  53.0750457  70.1620388  35.4334450  16.3009131  48.5807085  52.1371555
  15.4980969  48.9503384  52.5047016  16.7381215  48.1689262  52.8824854
   3.9179847  58.7716436  31.7032003   3.6911711  59.2163706  30.8864951
   3.1086612  58.7817860  32.2142029  91.0370994  52.8703308  69.1663027
  90.7947720  53.1452656  68.2820415  91.3009740  53.6792469  69.6047688
  67.4733000  21.2170250   3.5364607  66.8133633  21.4383395   2.8793934
  67.0973479  20.4774458   4.0138652  29.2078567  52.4978542  20.5130076
  29.5045304  52.4318695  21.4206767  29.8818278  52.0438814  20.0071359
  62.6892682   4.3645262  63.3054972  61.7424556   4.5003103  63.2689142
  63.0201813   4.7671961  62.5026417  32.4156896   8.5992884  48.0374670
  31.9234818   8.9762949  47.3081970  33.0083984   7.9699873  47.6264715
   5.8776641  68.6054611  53.0332851   5.8490980  68.0768776  53.8307905
   6.4408505  68.1107140  52.4380732  49.3354281  11.6454386  73.9257050
  49.2920157  10.7516264  73.5859203  49.6281370  11.5434431  74.8313284
  50.4469447  14.7110350  30.9037140  49.5215612  14.9401219  30.8175876
  50.5947547  14.6623976  31.8481758  76.6909128  66.9408638   6.0673073
  76.9630127  66.0250313   6.1261203  76.0283428  66.9499714   5.3765466
   6.0562700  49.7051477  72.2019625   6.3567275  50.2984476  71.5135193
   6.8474472  49.2469740  72.4854136  78.3328191  22.0996237  31.3659906
  78.5032717  22.1893787  32.3036051  77.7593914  21.3361478  31.2988067
  33.3415699  68.1806993  41.8362379  32.5183868  68.6494446  41.6988325
  33.2006836  67.6796722  42.6395750  88.5354081  83.7579727  28.5364842
  88.6423496  84.3923187  29.2452884  89.2569587  83.9456844  27.9361844
  84.8899410  78.0976534  36.3593102  85.7733462  77.7683830  36.1937499
  84.9564663  79.0423536  36.2202168  18.5248685  74.8584461  71.7321110
  19.0246928  75.6688881  71.6342020  19.1186094  74.2649412  72.1919537
  47.0599827  25.9326338   6.2562108  47.0781073  25.1553511   6.8145430
  47.2829672  25.6065153   5.3843427  78.7890688  43.8427496  24.9234581
  77.9525796  43.5047150  25.2432203  79.1147164  44.3906593  25.6375885
  56.1659887  48.2763798   9.7282150  57.0622437  48.5035164   9.9759414
  55.6920170  49.1075451   9.7554710  67.5074450  61.9812202  69.0620327
  67.6302210  62.5982475  69.7834444  66.7984430  62.3590994  68.5416937
  20.4186940  69.3800879  24.3816638  21.2931538  69.7424364  24.2393303
  20.0121641  69.3880749  23.5151172  73.0717961  59.4547272  22.2731805
  72.5064317  60.0324678  22.7858329  72.5014845  58.7317991  22.0117354
  15.7196164  67.8692389  39.9047828  16.5148187  68.1211281  39.4352746
  15.4388213  68.6702490  40.3472376  76.3292095  43.0598425  27.1724343
  75.7471916  42.9968142  26.4151287  75.8219215  42.6913809  27.8957057
  54.3984887   6.6560530  19.0156317  55.2685090   7.0089029  19.2021573
  54.5486590   5.7262205  18.8450432  61.9071576   0.4514765  57.1835947
  61.4594075  -0.1402117  56.5788937  61.3881418   0.4107927  57.9868412
  59.4833490   1.2105726  46.3570547  60.1460596   0.6145357  46.7060280
  59.2947480   0.8728766  45.4814863   0.8416559  31.5400727  15.1538112
   0.4849030  30.6788666  14.9363544   0.0863387  32.1271975  15.1220348
  41.6280174  64.4626904  25.8987164  41.2947607  65.3534317  26.0071421
  41.0405540  63.9213324  26.4260197  46.3063192  81.3065815  63.8376665
  45.7344913  81.7014313  63.1793880  47.1597290  81.7137241  63.6888266
  72.6107475  15.2511477  63.1243229  72.3225757  14.4372152  62.7111626
  73.5032913  15.3797697  62.8032970  38.4348585  42.0915062   1.2009552
  38.8425256  41.5486462   1.8757465  39.0891363  42.7623112   1.0055759
  39.0248299  51.1916161  32.1222043  39.7212863  51.6066408  32.6310587
  39.3386650  51.2207222  31.2183833   3.5331801  74.2139570  61.1621890
   3.9114026  73.6905424  61.8687389   2.6798013  73.8129179  60.9974382
  32.9274702  65.5476999  57.6068783  32.5392795  64.9546719  56.9635630
  33.3327699  64.9687052  58.2524204  49.9518725  10.4097342  52.6526022
  49.9964961  10.2800344  51.7052794  50.8377096  10.2208590  52.9621983
  53.0031153   3.1746172  73.9984512  52.6400014   2.9037355  73.1552410
  53.6160776   3.8768457  73.7807941  28.0362129  81.7294979  13.0016351
  28.2852364  82.4457932  12.4175608  27.8279042  82.1585655  13.8315392
  36.0505113   9.4483732  62.1826267  36.9346240   9.2218565  62.4711895
  36.0810592   9.3655275  61.2295055  21.9666219  56.1788988  41.6746092
  22.3484230  56.9889212  42.0127249  21.9896793  56.2821054  40.7232714
  38.5994258  29.7501253  30.9142852  39.3175646  29.1221499  30.8358073
  38.2489308  29.6045660  31.7930341  51.2021967  10.2326368   6.0949355
  51.1069318   9.3837999   5.6629276  50.5042192  10.7709765   5.7217717
  33.4320399   1.7149042  65.9145689  32.5021565   1.8802237  65.7589388
  33.6542353   2.2768187  66.6569376  42.7889395  67.0170784  45.1809120
  42.3875141  66.1500311  45.2384615  42.1453238  67.6056576  45.5753279
   9.1393894  81.4890480  23.1198192   8.2197195  81.3335514  23.3348966
   9.5005292  81.9080162  23.9010239  16.3005066  80.1097488  50.2082491
  15.6098926  80.6859589  49.8807430  16.9597828  80.1076031  49.5142889
   1.0255079  19.3359541  46.4735413   0.4825525  18.6975550  46.0110760
   0.4038601  19.9846911  46.8035746  62.6084348  21.5688681  55.8189201
  62.8114482  22.5006746  55.7367897  63.4417173  21.1269163  55.6559515
  27.7196407  79.6184349  55.8607960  27.2011137  79.4739914  56.6523123
  27.1087980  80.0229931  55.2448082  27.0294404  60.4910135  57.7811956
  27.4080968  60.4401255  56.9035530  27.1006989  61.4153147  58.0195713
  74.7136108  84.6524429  64.2478848  74.3942872  85.3296185  63.6514807
  73.9226643  84.3008423  64.6565580  63.2720658  13.2464956  63.3254099
  63.4756538  14.1412043  63.0528784  62.9463383  13.3371424  64.2209053
  51.5870878   0.2460836  63.0415392  51.6005417  -0.6288744  62.6536036
  51.8580099   0.8273481  62.3309278  24.6791697  63.7353992  72.8952742
  24.9289250  64.0393782  73.7678862  24.7784829  62.7842140  72.9354763
  59.3951222  26.0380022  60.3928397  59.6645320  25.1250497  60.2920077
  58.4932239  25.9879963  60.7095585  63.8708993  23.4002565  48.4040022
  63.4735485  22.6601099  47.9451752  64.6481630  23.0321955  48.8242722
  27.2243404  54.2124653  54.9834204  27.0087647  54.9741316  55.5215836
  28.1508303  54.3241835  54.7704268  22.5624228  77.5193548  58.9820433
  21.8579340  76.8748808  58.9143372  23.3030128  77.1128035  58.5320759
  22.0117780   8.0936121  31.4956975  22.3673138   7.2136950  31.6204882
  21.6209825   8.0723738  30.6221652  50.8078858   0.2952169  36.6890168
  51.3607212  -0.4768873  36.8092585  50.2715560   0.3314661  37.4810171
  50.6064769   8.3388685  66.2266684  51.4720103   8.3531641  65.8181620
  49.9947306   8.4148001  65.4943848  41.0813650  24.6036123  63.7614775
  41.9084724  24.7519468  64.2198658  41.2816223  23.9211916  63.1208277
  85.5517272  67.2694635  26.6190624  85.8732418  67.0617104  25.7417369
  84.6025131  67.1623039  26.5578961  56.5155145  11.2096190  36.5639949
  56.8514081  12.0367502  36.9093323  55.6246206  11.4131426  36.2791800
  19.7705114  50.4447079  37.2999692  19.5711315  49.5089388  37.3285174
  19.4466186  50.7841682  38.1342888  17.7173977   5.8754133  48.5245466
  17.1799879   6.2853121  49.2023468  17.1011286   5.3472971  48.0170584
   1.0550954  69.6774387  46.6673183   0.3165995  69.2691374  46.2154961
   1.0777681  70.5725050  46.3288212  34.0128469  62.6091909  31.5147018
  33.1725574  62.2105503  31.7410469  34.5213461  62.5724220  32.3248315
  54.6112915  19.8234057  54.9620676  53.7465974  19.7066187  55.3556395
  54.5289799  19.4453787  54.0865421  27.4453616  75.7565975   1.7666450
  28.3046317  75.9138775   2.1579906  27.5844288  75.0198698   1.1715619
  34.6094048  30.7237886  65.5540371  34.5993521  29.8457693  65.9351110
  35.1324465  31.2437319  66.1642122  79.5662137  27.1534704  31.5900683
  79.3208333  27.4638533  30.7184696  80.4830762  26.8929361  31.5022063
  11.4434302  44.1573286  65.2366161  10.7810712  44.4449759  64.6083117
  11.4679849  44.8526859  65.8939648  86.4731973  43.4378750   2.2198036
  85.6270855  43.7452633   2.5451353  86.4418214  43.6030037   1.2774780
  83.9397900  46.8232853   2.3091295  83.2814424  47.4822266   2.5296095
  83.6560910  46.4746888   1.4640119  61.9201418   3.6362337  42.1451092
  62.4094650   3.2053827  41.4442778  61.0194918   3.6698603  41.8227243
  36.8217850  66.4867926  60.1990891  36.2884068  66.9211721  60.8647108
  36.4829826  66.8176603  59.3672419  65.2560302  24.6938395  42.5338078
  66.2090298  24.6528219  42.6134491  65.1041409  25.0757956  41.6693592
  25.8795738  63.3579445  52.7378511  25.6905961  64.0235949  52.0764685
  25.0183940  63.0552149  53.0258703  70.3811121  70.9809256  56.3208866
  70.0715542  71.6523218  55.7129145  71.2159634  70.6912422  55.9530067
   6.4913727  83.4893353  14.0336540   5.6220724  83.6174710  14.4132927
   7.0948459  83.8136704  14.7021320  31.3488368  53.0161707  71.4089400
  31.3644436  53.7901727  70.8459920  30.8342723  52.3743669  70.9195066
  81.0635633  19.7360555  70.1965937  81.8606276  20.2385179  70.0279084
  81.2401242  19.2750064  71.0166493   3.9387852  63.9352751  55.1062012
   3.2812396  64.4861031  54.6814013   4.6790850  64.5220280  55.2608204
   5.7913257  68.7977345  10.5881717   5.3537609  68.2465870   9.9393203
   5.9646703  68.2101853  11.3236740  18.4995413  65.6426525  34.2342639
  18.7115800  65.3417349  35.1178479  17.5504291  65.5382729  34.1670132
  27.8347684  37.7230580   3.9787843  27.5852872  37.6829846   4.9020317
  28.7308742  38.0594475   3.9872148  28.0660462  85.0368786  24.1937280
  27.4353147  84.7183800  23.5479975  28.6300325  84.2836952  24.3693852
  18.8053298  82.1645641  71.0261536  19.4400287  82.4493980  70.3686857
  19.2256796  82.3574448  71.8642092  31.3769131  27.7813314  19.0874922
  30.4413586  27.6175283  19.2063558  31.4166718  28.4796595  18.4340441
  75.9107372   9.2114233  11.2763286  75.1087400   9.3255877  11.7862296
  76.1235114  10.0910162  10.9644437  28.2431865  23.3165336  24.1740227
  27.4189043  23.2741332  23.6892605  27.9912519  23.6097121  25.0496960
  40.2936316  63.6001301  28.0651855  39.6109557  63.6983347  28.7289214
  40.9820366  63.0986309  28.5020208  71.2868711   9.2408728  48.3787346
  71.2017318   8.9640497  47.4664021  72.1064779   8.8442015  48.6739016
  42.5210381  72.5425053  50.1777124  41.7137051  73.0443668  50.0655413
  42.3278570  71.6884851  49.7909880   8.9145735  76.1091081  72.8223174
   9.1869620  75.4246656  73.4335213   7.9738072  75.9711782  72.7120148
  59.5106217   5.5423140  60.5941343  59.4412323   6.3956141  60.1660109
  59.2891284   4.9118017  59.9088430  54.9160715   4.2859911  40.7916451
  54.2849919   3.8920950  41.3939857  54.4201204   4.9664473  40.3363943
  38.2004786  58.7258101  16.2161362  38.0333972  58.2828569  17.0480657
  38.6208749  59.5494080  16.4635074  62.6640772  46.7631085   2.5781324
  62.5876415  46.9208462   3.5191419  62.7738913  47.6344140   2.1973636
  68.1517855  23.3561039  48.2669735  67.2596542  23.0094051  48.2784700
  68.5569564  23.0010152  49.0581608  13.4928644  47.2119284  20.1160884
  12.6706696  47.5448465  20.4757953  13.7397933  47.8531456  19.4496822
  45.9991726  58.6509367   1.7998340  46.2674412  57.7708324   2.0638015
  45.7276341  59.0731128   2.6148584  82.9954056  35.5568647  15.0795698
  83.3597020  36.2484503  14.5270944  83.7139992  34.9340105  15.1886845
  87.0834816  13.4100103  37.6761007  86.7721758  12.9580140  36.8918705
  87.9701991  13.6933184  37.4531651  72.9590348  25.9246230  39.7696424
  72.7344385  26.8489885  39.8761344  73.7247673  25.7981133  40.3298950
  78.2878881   8.8069899   1.3332822  78.0366783   9.5142252   1.9273737
  77.4685674   8.5439808   0.9140327  63.1500379  41.8399143  13.4778154
  63.0575482  41.0377359  13.9918041  63.8840286  41.6639137  12.8891635
  18.5919034  34.6847916  32.7788424  19.0543747  34.8117018  33.6072421
  17.8968799  35.3428674  32.7892852   4.1968009  13.2071435  42.3421574
   3.6708188  13.8646758  42.7973795   3.6919236  12.3980367  42.4238682
  82.3533801  39.8567581  39.2329931  82.8406266  40.6015825  39.5852089
  81.5028749  40.2212095  38.9879465  28.4356117  37.8289318  42.2012949
  28.0251884  38.5281253  41.6924572  28.4536362  37.0789623  41.6067743
  23.3462763   1.9879517  17.6338887  23.9642024   1.5802276  18.2406497
  23.6631751   2.8859317  17.5367308  59.2011134  15.8023572  42.5317001
  58.3235208  16.1071920  42.3011827  59.0920130  14.8673475  42.7051497
  11.2166548   5.2779722  31.8473959  12.1051049   5.6329429  31.8770909
  11.1916399   4.6354064  32.5564194   0.4741356   3.8761696  46.3667488
   0.9106341   4.7013685  46.5782881   1.0153767   3.4883264  45.6790972
   8.7705100  35.6621122  38.9541960   8.1830722  34.9064136  38.9624619
   9.4269234  35.4479766  38.2912493   5.7260317  30.9382296  24.0187860
   5.5564266  30.0222516  23.7986755   4.8565346  31.3309956  24.0958691
  59.3058446  12.0396606  74.2865310  59.5085562  12.7905265  74.8445086
  60.1581937  11.6523925  74.0871384  14.5117366   8.9582443  51.3881445
  14.1970241   8.7761068  50.5027008  14.8604560   9.8483622  51.3400269
  82.3870847  44.8720551   3.6688933  82.7303676  45.7111883   3.3619046
  81.5185711  45.0801420   4.0132990  82.2348104  31.1676955   6.9853663
  82.2927300  30.8296633   6.0917157  82.9569725  31.7923689   7.0524269
  76.9204489  23.9247322  43.9966822  77.2380844  23.0486059  43.7781811
  76.5482930  23.8327432  44.8737621   1.6665991  41.8313217  17.2776091
   2.3079637  42.2551680  16.7073143   2.1451725  41.1057806  17.6786005
  16.9013441  28.8210130  33.9565730  17.5111830  29.2861509  34.5292640
  16.0345900  29.0918207  34.2592788   4.6577474  61.2825489  21.4033127
   3.7205034  61.4721680  21.4463401   4.7073692  60.4044867  21.0254645
  85.3716800  22.4672341  23.6083078  85.2557722  23.0855298  24.3297696
  86.0902164  21.9014549  23.8908482  16.4091659  21.7478752  60.2800465
  17.3595881  21.6719341  60.1954079  16.2729681  22.0686126  61.1715698
   8.8016444  49.7471476  41.8779039   7.9008353  49.5405197  42.1270609
   8.7192130  50.4794788  41.2670612   1.8894080  19.2570011  72.3417055
   1.8480781  19.2730466  73.2978782   2.6771144  19.7569076  72.1275929
  84.5587320   2.6063768  71.2747282  85.2333660   2.6416341  70.5966017
  84.9954624   2.2058908  72.0264666  88.2631917  68.1820155  49.7961855
  88.7666840  68.5860146  50.5029440  88.5289187  68.6588789  49.0099144
  12.4950421  28.5087991  67.4553251  12.5735402  28.9672828  68.2919025
  13.1601393  27.8215861  67.4954987  14.2833220  70.2498572  55.9205589
  14.7490023  70.5835788  56.6873715  14.6294485  69.3661683  55.7959673
  35.2115905  85.6521424   6.6843345  35.2308133  86.5486964   6.3495948
  36.0727790  85.2962359   6.4654377  82.1248261  12.8372061  27.4031401
  82.5627307  12.4192905  28.1446362  81.8572686  12.1094942  26.8418193
   3.9733806  70.0511408  25.6337810   4.6837881  69.4145203  25.7129788
   3.2557732  69.5606136  25.2329612   8.8853252  18.4466624  44.0196371
   8.0315202  18.1365395  43.7178564   8.7689298  19.3890834  44.1401672
  75.6109408  28.1392503  21.7750001  74.6918300  27.9153442  21.9210672
  75.8094934  28.7883759  22.4498677  38.1189905  70.5244653  70.1341454
  39.0252076  70.4435651  70.4315633  38.0972277  71.3527863  69.6549344
  82.9919485  16.7658520  43.2468653  83.1033496  16.1035717  43.9289236
  82.0781694  17.0397019  43.3258915   5.3830689  54.9894953   8.7371826
   5.1508349  54.3717289   8.0438828   4.8861659  55.7807493   8.5292596
  15.6737350  73.7023799  70.7085583  16.1906551  73.7806838  71.5103651
  14.8530243  74.1529267  70.9077365  34.1114068  17.2507119  59.3879604
  34.1825342  18.0665302  59.8835516  33.6542940  17.4978745  58.5840988
  84.8477549  86.0861706  20.9834504  84.1494412  85.4822565  21.2361884
  85.5286856  85.5238719  20.6141448  20.9914923  40.8878422  10.9705532
  21.6761637  40.9274054  11.6383052  20.2009368  40.6444407  11.4522290
  88.0255527  24.5859551  63.4333515  88.3949617  25.2278733  62.8269625
  87.3687891  24.1188788  62.9168892   5.8290863   3.1965798  49.9251175
   5.5785698   4.0159875  50.3517818   5.8419955   2.5522256  50.6328392
   7.2364116  46.5762568  18.0165040   7.0888299  47.4935293  17.7861512
   7.5159431  46.1657953  17.1982038  75.6727536  84.5816805  54.7480869
  75.5409629  84.3649755  53.8251019  75.6863518  85.5385360  54.7698784
  73.9892927  41.6544676  66.6899920  74.6726934  41.0234261  66.4642000
  73.6392406  41.9405603  65.8462811  15.7418776  52.1304035  28.9437580
  15.0048304  52.1086359  29.5541000  16.1813581  51.2893057  29.0688491
  73.2927469   2.0287612  50.0960970  73.8920132   2.4359615  49.4705582
  73.8076512   1.3312893  50.5018520   6.4668608  42.0836401  44.8514318
   5.5427223  42.3283768  44.8994160   6.9296092  42.9148912  44.7460175
  89.8715281  63.2925558  18.6430383  89.5225798  62.5622749  18.1320071
  90.2130533  62.8859854  19.4394636  81.6030327  49.3034744  14.4442511
  81.8678579  48.3849430  14.4932127  81.0740987  49.3581438  13.6483419
  35.2042031  34.9343920  25.8980131  35.3851914  35.1064849  24.9739671
  36.0412717  35.0832224  26.3377857  80.1095048  12.3486722  71.5197659
  80.0192419  13.0673754  70.8940315  79.4121531  12.4979794  72.1582365
  19.7056687  10.6327915  27.5897217  20.3905034  11.1779833  27.9770184
  19.2599356  10.2392900  28.3398628  43.3438206  22.9478359  14.9300075
  42.5895548  23.3943915  15.3145885  43.2653284  22.0426011  15.2310455
  35.1831770  20.2005076  46.6633511  35.5521250  19.4379866  47.1090746
  35.9366488  20.6273508  46.2555313  89.7555297  14.8061121  58.0373907
  90.5019133  14.4669914  57.5432825  90.1335763  15.4639804  58.6209297
  60.1406746  84.7900541  17.9821527  59.5254449  85.1949241  18.5935485
  60.8358130  84.4393204  18.5389304  45.0373832  28.7327981   4.2321625
  44.3188564  28.7230849   4.8645046  45.6346980  29.4057298   4.5586699
  24.2085147  29.8203897  38.6563778  25.1069450  29.9175596  38.3407664
  23.8690186  29.0611124  38.1825948  32.8525949  18.8369954  35.1865005
  32.8130436  17.9949057  34.7331214  32.7110338  18.6198056  36.1079240
  63.5741226  16.3971460  28.3429050  64.1407219  17.1666598  28.3980918
  62.7557460  16.6721487  28.7562609  27.2871055  70.4634373  53.3037255
  28.0274582  70.0992816  52.8184411  27.5032450  70.3073232  54.2230413
  45.6906779  64.9823953  34.6846938  44.8740454  65.2187539  35.1245546
  45.6434329  65.4256154  33.8376069  47.2674605  49.6821871   3.5413387
  47.4661454  50.6185319   3.5451057  47.4508032  49.3948343   4.4357898
  34.7712608  52.3038040  66.9285676  34.4591011  52.1987157  66.0298214
  35.7254069  52.3045187  66.8521718  75.8092681  18.9943719  24.0774393
  75.1315967  18.3284426  24.1937661  75.9675495  19.0126979  23.1335950
  38.4911609  31.7228007  26.6865516  38.7165308  32.1022534  25.8371639
  39.2035818  31.9927049  27.2660685  28.8031077  30.2470541  44.3106890
  28.2545877  29.7695875  43.6882877  29.4931674  29.6270323  44.5465279
  78.0546097  36.0483599   6.7873591  77.8588787  35.1217961   6.9266349
  78.9631513  36.1466789   7.0721728  24.7222328  62.6022291  66.0616446
  23.9897060  62.1249866  65.6719351  25.3572822  62.6884604  65.3506565
  67.2380129  40.1989698  23.3976841  68.0566636  40.1864052  22.9018164
  67.0920268  39.2851090  23.6421728  77.6018325  61.0948563   0.9287246
  78.1553749  61.1240244   1.7090914  78.2190327  61.0961914   0.1970867
  90.7591416  30.7458711  20.9631181  91.0526657  31.1783981  20.1612473
  91.3910619  30.0399756  21.0995817  82.5766937  65.4805470  21.1969090
  82.9995803  65.8573437  21.9685459  81.7692582  65.0910950  21.5324783
   2.9772124  40.6522846   9.8916185   2.9395756  40.0663519  10.6475949
   2.0749497  40.6924057   9.5745325  84.4777486  19.9774587  16.3312137
  85.3756968  20.2950692  16.2361181  84.5524547  19.2170596  16.9077933
  50.8900495  76.6155065  51.9143343  51.4105846  76.2401933  52.6245546
  51.5215249  76.7746271  51.2127972   0.3764255   1.6027482   8.4367716
  -0.5025143   1.3661282   8.1406170   0.2387304   2.0168225   9.2887187
  58.2081578  85.7124396  21.8789983  57.6265044  86.4457058  22.0795751
  57.7523364  85.2261297  21.1920023  14.3427050  39.6882915  17.2063076
  14.8492634  38.8830686  17.1002674  14.5220459  40.1905107  16.4114201
  90.9329936  59.3588877  29.2920470  90.1632190  59.8616362  29.0257335
  90.7063978  58.4504604  29.0929437   3.1848949  38.9464521  37.0391774
   2.4723870  38.3827472  37.3405075   2.7651882  39.7878599  36.8599772
  13.5803580  64.5594263  54.7424507  13.4293878  65.2520132  54.0992069
  13.2550263  64.9225426  55.5661869  39.3122721  47.3361731  27.8490710
  39.9852562  46.8966675  28.3688354  38.8308263  47.8690290  28.4819269
  70.3638975  59.5368481  30.0814271  69.5560805  59.3669033  29.5968843
  70.8560602  58.7180758  30.0212288  28.0060410  62.9625225   3.8671198
  27.0906234  63.0622292   3.6057791  28.4966111  63.4676838   3.2187477
  64.1871992  57.4926090  11.6607857  63.7963096  58.3547497  11.8027389
  65.0154821  57.6752710  11.2171483  57.8255121  41.3648081  16.4720106
  56.8728296  41.4248610  16.4011633  58.0895869  40.8427048  15.7144451
  11.9168508  40.7927799  39.4952774  11.3078296  40.6312656  38.7746954
  11.4003348  40.6345081  40.2854633  24.6084809  20.8617926  36.7321801
  25.2440095  21.3536239  37.2522163  24.9762487  19.9798512  36.6759896
  46.6891808  66.0382987  21.1617541  47.5245030  66.4951397  21.2605667
  46.7143435  65.3472877  21.8236470  62.6281396  54.2984247  11.0453904
  62.6220766  53.8034582  11.8646586  62.3643247  53.6631298  10.3797817
  70.5838696   0.1293841  45.4487705  71.1730782  -0.5253173  45.0740337
  71.1227075   0.6008688  46.0840607  21.3604689  52.4854803  36.2693167
  20.9158826  51.7785358  36.7370772  20.8870125  53.2769871  36.5254331
  82.2083848  20.9998162  15.0911167  83.0812185  20.6212456  15.1963642
  82.3617595  21.8375618  14.6542099  12.0618939  45.7178688  28.1169271
  12.9763258  45.7408237  27.8349328  11.5937746  45.3254032  27.3799968
  76.5606375  23.6926405  73.8731021  76.6331155  22.7519075  74.0343479
  77.4538703  24.0221349  73.9721023   7.3595238  16.0275495  43.8938046
   6.7001981  16.6655958  43.6210060   6.8574715  15.3286803  44.3130398
  13.9892972  62.1858549  18.9444530  14.6177447  62.2863293  18.2294774
  13.3888805  61.5046597  18.6416280  88.7493996  21.5213728  47.4181271
  88.3424646  22.2359037  47.9081106  88.2343460  21.4587855  46.6137457
  55.1297779  17.3229257  71.7207006  54.9711431  16.7249672  72.4511208
  54.5129366  17.0435707  71.0441655  22.6960659  76.6668987  37.5205564
  23.1258059  76.7642355  36.6708016  21.8353653  76.3028908  37.3133850
   6.1411399  52.8614378  18.1776011   5.7273769  52.8122997  19.0393543
   6.9750226  53.3034945  18.3371484  81.3575200  39.7781682  34.0995622
  82.1892980  39.5595121  33.6793637  81.2433044  39.1043162  34.7697210
  91.1258192  34.5809269  47.5212860  90.2853051  34.1280460  47.4529791
  91.7790977  33.8967943  47.3749304  83.2912479  15.9129894  18.0512953
  83.3842454  15.5643487  17.1647096  83.6020932  16.8160510  17.9873693
  74.5908729  49.9047565  24.5798659  74.5100693  49.7778606  23.6345601
  73.9749292  49.2778921  24.9591899  14.0039182   4.0494335  17.9705799
  14.6210289   3.6582229  17.3522258  14.4940937   4.7629005  18.3791435
   8.4437978  26.1086035  40.3359652   9.1984731  26.6225934  40.0487137
   7.8059965  26.2036943  39.6285748  58.2311092  82.8187493  65.2461147
  58.8106088  82.5676305  64.5268440  57.3546339  82.8108496  64.8614597
  85.6005201  32.7333164   2.7140206  86.4929695  32.9526424   2.4463229
  85.7122634  32.1366024   3.4540734  31.8978930  17.7750468  27.6652455
  32.4267936  18.5667956  27.5671172  31.0938859  17.9625368  27.1808386
   0.2849956  46.4873409  45.4956675   0.6356281  45.6245804  45.2744675
   0.3927915  47.0019579  44.6958017  77.7855185  12.4846303  73.6822844
  77.4624709  11.9015336  72.9953575  77.0712797  13.1057763  73.8246679
  15.2035761  39.0127468  47.9708147  14.9980998  38.1419134  48.3108997
  15.2583587  38.8928342  47.0227385  54.2152924   9.0373842  74.3144382
  53.5300184   8.5477201  73.8596178  54.7779198   9.3684427  73.6143798
  69.5923010  28.5959649  29.8601937  69.8800556  28.0112958  29.1590571
  70.3852574  29.0633559  30.1228642  18.1062317  54.0738201  58.3129835
  18.8531446  53.9827156  58.9046383  17.3842275  54.3468714  58.8790083
  55.8880464  85.5010483  61.0767508  55.9768436  86.2513309  60.4890203
  55.5122037  84.8113844  60.5296326  81.0795311  48.8511419   7.3635453
  81.5086517  49.6954250   7.5023651  81.0375682  48.4576178   8.2351029
  75.4547612  10.9215617  53.3613110  76.1304931  11.5907359  53.2525682
  75.1215950  10.7716227  52.4765778  22.5771640  71.9493096  73.5352104
  23.1283878  72.6339858  73.9141621  23.0186080  71.7101209  72.7202583
   3.6132565  32.1284437  44.7767544   4.0167031  31.8547297  43.9530134
   2.6736718  32.0168781  44.6319580  85.6774185  59.7217369  19.8240113
  85.3093854  60.1644707  19.0593088  84.9405245  59.6361256  20.4288983
  89.9808812  66.8113422  43.2054090  90.3449091  67.2271442  42.4238539
  90.5208520  66.0317659  43.3355045  12.6523685  38.2356429  20.7464051
  13.3107865  38.2407594  21.4411664  12.6382017  37.3301053  20.4365134
  60.9803430  55.3973246  16.4559996  61.8980614  55.2143860  16.2546170
  60.5188552  54.5916557  16.2232780   1.8048704  52.0698547  38.0032229
   2.3631693  52.3833895  37.2917247   1.2075255  51.4505720  37.5838232
  20.9272885  45.1385069  40.6204224  21.2759876  44.3203115  40.2665901
  20.0993419  44.8884773  41.0305786  22.1407747  14.8683167  10.3127325
  21.7876697  14.4661009  11.1063147  21.3822794  14.9696660   9.7377139
  19.4471443  40.3391790  13.1294334  19.6267641  40.6974125  13.9987063
  19.5440066  39.3928361  13.2356787  42.3599242  65.9610980  62.1582327
  42.0723640  66.8295448  62.4399087  41.5521763  65.5082052  61.9160268
  34.5143415  66.1712711  73.2525020  34.2915957  66.6403573  74.0566002
  35.4691188  66.2190287  73.2040110  10.6932795  24.9773574  63.5119915
   9.9052703  25.3182983  63.9351130  10.3969407  24.1929722  63.0503035
  74.5317093  49.2577457  45.4646254  74.1194466  48.8222551  44.7185564
  74.5995668  48.5755491  46.1326313  12.7311015  64.1236544  25.9921861
  13.5594988  63.6441374  25.9992695  12.0611656  63.4433985  25.9238458
   8.4971553  28.7050366  28.7941599   8.4610486  28.0268240  29.4686627
   7.8166926  28.4569120  28.1683517  12.0243812  43.0936956  26.5014791
  12.0931411  42.2570276  26.9613624  11.6526568  42.8684044  25.6486630
  21.5674090  46.0098743  10.3351641  21.0307384  45.3282452   9.9306935
  22.4584985  45.6614780  10.3067780  51.1080264  32.0500474  62.7833209
  51.5969323  31.9514661  63.6003182  51.7010568  31.7205291  62.1080670
  16.6586304  42.3530817  35.0589871  15.9861076  41.6805553  35.1669312
  17.4574590  41.9496727  35.3986406  41.9495665  70.4634850  70.1403717
  41.7947720  70.0398009  70.9846244  42.0195054  69.7393887  69.5182571
  90.1119722  57.2465944  20.3270960  89.4830731  57.9369545  20.5371475
  89.6374207  56.6620302  19.7360647  69.1628877  10.5006754  21.6851950
  69.7856466  10.4171133  20.9630990  68.4260742   9.9447900  21.4315653
  36.7728424  42.2880030  21.9038367  36.6018748  43.1472874  22.2893620
  36.9203782  41.7134905  22.6551056  36.2465191  48.4542084  26.6515994
  36.2428951  47.6423979  27.1587300  35.7964778  49.0877438  27.2104621
  21.9070101  59.8871040  10.5914199  21.0805750  60.3613186  10.5000091
  21.6684747  59.0736294  11.0359335  41.8334913  33.9320946  34.9282074
  41.0050583  34.3012214  35.2342725  42.4118900  33.9778638  35.6895161
  20.1380086  40.0878572  39.4503045  19.2999423  39.6622872  39.2692947
  20.6844425  39.3937325  39.8188567  87.9201803  31.3698530  57.8904009
  87.5661338  32.2174788  57.6212978  87.3242871  30.7279086  57.5043297
   8.2033288  31.0370231  47.2477341   8.3462626  30.2466989  47.7684927
   7.2953928  30.9683609  46.9524908  59.0920440  66.1754608  31.4435005
  59.4215576  65.6049061  32.1378517  59.3514100  65.7393312  30.6318641
  18.8869107  45.9005976  37.3204374  19.0745866  46.8099546  37.5529861
  18.9375710  45.8824253  36.3647532  21.0354996  51.8592072   2.1662454
  21.8062520  52.3875713   2.3736125  21.3384032  51.2464142   1.4961973
  29.1397715  18.4903944  44.7255373  29.5379543  19.2302859  45.1840591
  29.2666149  17.7469730  45.3149986  85.6615905  52.5461149   8.1093425
  85.6156442  52.2355795   9.0136033  85.7511524  51.7492151   7.5866926
  84.9272380   9.7121716  33.6391997  85.8405808   9.5002234  33.4465480
  84.7279582   9.2143792  34.4321179   5.0173676  47.1462202  29.6488190
   4.7019142  46.5652084  28.9566159   4.9268201  46.6332388  30.4518652
   5.5561875  70.4048579  72.8784290   6.1371587  70.6454723  72.1567589
   5.6035112  69.4495552  72.9156964  77.6249245  34.2756963  11.3072753
  77.1213201  34.7700119  10.6605411  77.1660057  33.4387875  11.3794470
   5.2903992  24.5500827   6.5855849   6.2300801  24.7295189   6.6177386
   5.2252609  23.6866355   6.1776036   0.4601903  39.9267054   6.8090570
   1.0616371  39.2350173   7.0848477   0.8976406  40.7395411   7.0623767
  89.0310226  17.3565924  38.8885093  88.5534806  17.2038186  38.0731297
  88.3558867  17.3464835  39.5669794  45.1113081  64.2464685  28.3620858
  45.5744171  64.1448784  29.1936159  45.7666588  64.0388489  27.6960230
  32.8832746  39.5540214  28.2165575  32.1498013  39.0374923  27.8827238
  32.4761152  40.3384161  28.5842204  74.0896551  53.4517193  49.8249626
  73.5901562  53.0863285  50.5551863  73.9542178  52.8319120  49.1082191
  15.0040078  22.9104519  67.6721096  14.4765580  22.9705119  68.4686136
  15.4488897  23.7560654  67.6151133   2.6768619  60.6413555  67.6522303
   2.8798443  60.9557772  68.5332394   3.4697449  60.1837587  67.3726368
  87.9801286  47.1685934  26.6349363  87.6031578  46.5716267  27.2812748
  87.5074295  47.9908657  26.7639971   8.5455310  24.6296668  15.7969522
   8.3504075  25.5667686  15.7959735   9.0491056  24.4907093  16.5990341
  38.3028436  23.5071421  37.8880405  39.0170789  23.5360622  37.2514391
  38.5617781  22.8250813  38.5077000  58.7990246   0.5360261  60.7027802
  57.9555471   0.0835792  60.7112000  58.6018219   1.4038173  60.3502486
  57.6460962  34.8810426  68.6642006  58.3886455  34.7726385  68.0699775
  57.7201740  35.7822410  68.9781800  74.1585211  48.9251900  54.0831184
  74.3037609  48.5418320  54.9480867  73.9216188  49.8353481  54.2612314
   3.1949607  34.9757481   0.3870855   2.4980903  34.3560529   0.6029138
   2.7562007  35.8255792   0.3482424  31.0332942  24.5074058  45.8900261
  30.9678078  23.5800242  46.1178541  30.4255795  24.6178889  45.1587868
  23.6552930  30.8813787  22.3989153  23.5228324  30.2524781  23.1082606
  23.1376958  30.5350590  21.6720152  78.9309350  19.6599007  26.3451838
  78.0370036  19.8794293  26.0826468  79.0352956  20.0682902  27.2045779
  17.9459453  56.5451193  20.1471925  17.5370300  57.3588848  19.8525679
  18.8855302  56.7009211  20.0516033  24.2426991   6.6072470  23.9252234
  24.4641590   6.9718212  23.0683255  24.1678953   5.6652492  23.7726569
  32.4309659  49.2639589  15.8067083  32.0211267  48.6314201  16.3967586
  31.6982865  49.6650362  15.3392148  81.8603197  60.6103039  49.7087145
  82.0369128  61.3524818  50.2868319  82.1919618  59.8501778  50.1866865
  10.5329490  47.8981209  25.5145431   9.8284930  47.3202848  25.2211452
  10.4462206  47.9166794  26.4676237  80.1252086  81.4609454  52.8372574
  80.5068297  81.7153237  51.9970846  80.3506703  82.1781738  53.4296942
  89.0424962  11.2979841  59.1160774  89.1765835  11.6477466  58.2352161
  89.9044038  11.3518333  59.5289278  14.8477864  50.7607889  -0.3138465
  14.3012750  51.3798332   0.1702454  14.7448289  49.9327612   0.1551909
  67.7032782  16.9530813  71.7857454  67.5618882  16.2498943  72.4195964
  67.8495450  17.7326671  72.3215446  25.5936306  59.9485846   5.8495453
  26.5314954  60.0596460   6.0054519  25.5003455  59.0308686   5.5939510
  84.0671471  28.0577731  51.4908409  84.1958133  27.2653818  52.0121765
  84.4028632  28.7644482  52.0423269  73.4458796  38.5629821  26.1598158
  73.9246980  37.7549338  26.3442683  73.5460178  39.0873957  26.9542933
   3.8036302  51.8987370  23.8096619   3.2164213  51.1453629  23.8716507
   4.6694139  51.5449905  24.0134072  79.7531835  32.9627204  37.8693986
  79.9738423  32.0322227  37.9108357  79.2312471  33.1203699  38.6561394
  62.5769631  76.6456873  73.9653730  61.7634547  76.5642411  74.4631672
  63.2683433  76.4957506  74.6101522  11.0530472  26.1169457  28.7777352
  11.6637993  25.3991532  28.9450216  10.4076803  25.7468486  28.1754375
  80.5059019  40.5526876  24.5919633  79.8585121  40.9425116  25.1794672
  79.9903551  40.2054167  23.8640594  43.7384176  68.8198948  34.8894787
  43.1579208  68.4690285  34.2140937  44.0830851  68.0458593  35.3347993
   3.6209491  10.6249535  22.9491401   3.0875358   9.8301619  22.9518533
   2.9872519  11.3389432  23.0189967  90.5155918  83.9053249  39.5866179
  90.5761300  83.1599808  40.1841402  89.6476871  83.8252163  39.1909456
  63.7073866  58.1607533   5.5257642  64.3282811  58.6949015   5.0303793
  62.8466956  58.4693098   5.2425063  86.6308153  17.0735323  45.5858994
  86.1935467  16.3286471  45.9984207  87.3130063  17.3255205  46.2082767
   5.5759263  43.3010530  42.1119404   6.2450999  43.0285978  41.4840841
   5.7357675  44.2358351  42.2418070  87.3813663  14.9485672  19.7775924
  86.4332680  14.9733043  19.9069345  87.7404825  14.8400235  20.6582093
   6.9912589  61.6322422  48.7906075   7.8710109  61.4202261  48.4786463
   6.4796740  61.7650270  47.9925585  58.9321967  19.0061076   7.1271064
  58.8153871  18.1544096   7.5480583  58.4413528  18.9378483   6.3081768
  26.8079352  33.4613657  31.1792469  27.7030897  33.5270309  30.8466578
  26.8815780  33.6760163  32.1091580  22.2021413  35.1396537  43.1315470
  21.4373922  35.7000256  42.9997396  22.5831604  35.0451732  42.2585487
  87.8382558   6.8659222  33.0098653  87.7817223   7.8150463  33.1203151
  87.1680433   6.5161312  33.5969710  77.2089390   8.1691539  19.2306757
  77.0655838   7.2697306  19.5251560  78.0678479   8.1489807  18.8086557
  84.9387947  52.0156527  46.5286970  85.2411184  51.3668728  45.8931541
  85.0466106  52.8558683  46.0829973  89.9422342  13.8438940  40.5976248
  90.3415465  13.0236626  40.8874559  90.6773211  14.3700778  40.2829647
   0.5343608  52.1904898   9.3651235   0.8681741  52.2153091   8.4683603
   1.1948886  51.6986895   9.8530418  30.0322147  80.6330188   2.4227264
  30.2986801  81.1089834   1.6361597  29.8014282  81.3178380   3.0504110
  79.4314019   2.4591669  45.4763222  79.3058935   2.6542327  44.5476484
  78.6525003   2.8157851  45.9033632  11.1440623  64.6375418  28.6509371
  10.9952819  65.5825377  28.6836958  11.2789857  64.4483662  27.7223682
  76.4874379  25.1939583  57.5026655  77.4264757  25.1853657  57.6880455
  76.1569039  25.9576654  57.9756689  49.1546886  18.5164530  28.0801418
  48.2859724  18.2995779  28.4185722  49.6179717  17.6792033  28.0553940
  39.2586775  10.6791727  68.6140326  39.0089126  10.2249281  67.8093526
  38.6878247  10.3069965  69.2862252  29.1637158  47.0724726  21.0224104
  29.0123248  46.2263584  20.6012154  28.5293603  47.6607895  20.6128907
  88.0807228  12.5512306  63.5948429  87.3354502  13.1446592  63.6877987
  88.4314294  12.7416269  62.7247927   7.2685122  45.5173588  39.8043776
   8.1569421  45.5521631  39.4498181   6.7057079  45.7389641  39.0625072
   7.9957050  80.7763481  35.7764602   8.5544282  80.0107479  35.6425977
   8.6073202  81.4915180  35.9516382  24.9492884  40.6329966  33.4505773
  25.2598715  41.3364315  34.0206194  25.1247954  39.8308921  33.9425731
  26.0623240  24.4138956  26.6362786  26.6385484  25.0567961  26.2229061
  25.7355380  23.8831043  25.9098482   4.7017315  59.5014954  34.1873813
   4.9319929  58.6887836  34.6376181   4.6675694  59.2609882  33.2615209
  25.1784375   7.3592829  39.7199392  24.9065968   6.6893934  39.0925765
  25.6404727   8.0095266  39.1908503  90.5966668  58.5893059  45.1418591
  89.9631865  58.0594492  44.6579313  90.9452143  57.9968643  45.8080149
  10.8089519  44.4054413  22.4068451  10.4574335  44.5562983  21.5294003
  11.4207888  43.6774254  22.2978497  20.0646114  25.9026790   2.6908019
  19.4570482  25.1640081   2.6525369  20.8645558  25.5764413   2.2786254
  23.5572481  52.5354910  24.6264338  23.1081653  52.6204157  25.4674721
  23.5845017  51.5926361  24.4635987  32.7857733  43.5575438  34.9222279
  33.4352756  42.8546810  34.9031830  32.5163436  43.6099052  35.8392334
  15.1281047  33.0244827  29.4123411  15.0052178  33.2298470  28.4855437
  14.6142960  32.2289634  29.5515633  38.8106465  37.1746087  11.2680805
  38.7570977  37.4023461  12.1962512  38.1798434  36.4629292  11.1593044
  33.9645481  57.3708916   2.4335431  33.5732245  57.7461100   1.6446781
  33.2307410  57.2688293   3.0396312  26.9559312  13.8802254  22.6800060
  27.5559568  13.1592607  22.8708196  27.1532011  14.5386982  23.3461356
  87.7242175  29.6813464  19.9628794  86.8739662  29.4676900  20.3471398
  87.9808942  30.4991698  20.3889227  23.4509110  31.9772363  39.8009825
  23.5528612  31.2194991  39.2250729  24.2320228  31.9645047  40.3540945
  28.3751130  66.3522768  35.5998492  29.1462398  65.7896805  35.5285406
  28.6811352  67.1175385  36.0866308  39.8434567  24.4925785  28.6778760
  39.4501805  25.2747798  28.2909322  39.7849441  24.6372414  29.6222711
  21.8577933  21.3352346  36.5148091  22.7573371  21.0153675  36.4459705
  21.8433142  21.8356800  37.3306370  21.1357594  74.9173927  25.5029225
  20.3228688  75.1888227  25.0765848  20.8561635  74.5576382  26.3447285
  19.3347919  20.9445715  18.4653318  20.2264524  21.2080383  18.2378292
  19.3260264  20.9304810  19.4223881  33.3065605  33.8389063   8.4771347
  33.4676600  34.0314484   9.4008267  34.1319585  33.4708762   8.1616938
  34.0639257  19.9527359  42.4681282  34.8382592  20.0650454  41.9167423
  34.0903997  19.0335464  42.7338743  38.9097476  17.9590321   9.3830687
  38.8368201  18.8799405   9.6337521  39.4372320  17.9692638   8.5843915
  84.9268100  28.5170054  31.0432649  85.2974275  28.3182955  31.9031429
  85.6425378  28.9354420  30.5648541  80.0845341  24.0983558  30.3975558
  79.7135524  24.3844509  29.5628381  79.4752482  23.4315991  30.7144761
  88.9375829  57.1124601  33.8881612  89.3378388  56.4557028  33.3183408
  88.9992676  56.7370558  34.7665095  21.2760687   4.1806591  29.7333980
  20.9920907   4.2708486  28.8237524  21.5825558   5.0543070  29.9763727
  25.2901769  41.8169498  44.5219231  25.4611468  41.1811781  45.2167606
  24.7988892  42.5163746  44.9528265  81.8885878  42.3241091  23.0422068
  81.4622030  41.8423510  23.7509632  81.3731436  42.1115351  22.2641563
   8.0450022  53.0837297  56.4116573   7.2282487  53.1489229  55.9167862
   8.2347351  53.9826822  56.6802073  82.0033923  35.3266430   5.3228617
  81.4792798  35.4976869   6.1053455  82.3068026  36.1906672   5.0442290
  17.5306547  46.0588360  13.8269663  16.6651905  45.7102537  13.6132026
  18.0329704  45.9657764  13.0174911  56.4222716  79.7962277  70.8469332
  56.5787099  78.8618391  70.7102815  55.9483884  79.8407953  71.6774023
  12.5317085  47.7253437   6.9436628  12.0896721  47.9208374   7.7698702
  12.7899337  48.5813093   6.6017962  87.0475749  57.2134829   6.5594745
  87.6771817  56.7092276   6.0441518  86.6478265  56.5704918   7.1451354
  69.1065992   4.0607111  72.8541372  69.3799747   4.8984281  73.2279401
  68.5282744   3.6806766  73.5154567  35.3767157  60.4550266  12.5648737
  35.3632188  59.5813131  12.9556060  34.8481655  60.3706980  11.7713022
  19.5113802  24.0428638   9.2014551  19.4960511  24.9956179   9.2923105
  18.6264586  23.7653971   9.4384319  34.4763350  49.7783041  37.3959923
  34.7886181  49.5815134  38.2791615  34.3649268  50.7289600  37.3876238
   2.0036334  51.4981461  27.4104071   2.5906208  52.2536564  27.3807049
   1.1301089  51.8772078  27.5078821   8.6684066  34.6073914  16.7534626
   8.1898910  33.9947152  16.1949968   8.4857887  35.4679966  16.3763130
  13.6965561  36.6664410  14.6211457  13.6913943  37.4142194  14.0236235
  14.5083654  36.7632484  15.1189685   5.5002669   3.9607851  63.4361324
   6.2712363   4.5271198  63.4029136   4.8101595   4.5166580  63.7980542
  27.5149846  17.6549673  22.1935058  26.6043854  17.9069352  22.0400357
  27.8048587  18.2259941  22.9049349   8.6004752  66.9222212  22.4935913
   8.8397431  66.4794683  23.3078122   8.5450560  67.8477097  22.7315640
  70.1815215  35.7802200  55.1040363  70.7542745  35.7355332  55.8696651
  70.0112549  36.7147970  54.9865150  90.8071693  23.5596347  41.7308950
  90.9288049  23.7074828  40.7930374  90.4401929  22.6774645  41.7886829
  79.8868016  13.0504906  44.6558237  80.1132921  13.4701931  43.8258934
  79.6621553  13.7764299  45.2378702   1.5258338  46.4373302  16.3178194
   0.8501196  46.8651724  15.7918966   2.3428178  46.8530798  16.0422778
  48.9238119  67.9180717  40.1965189  49.3799210  67.1216965  39.9245095
  49.0558863  68.5291624  39.4717050   9.9647629  38.2590818  39.7267509
   9.5424932  38.4902120  40.5540943   9.5416254  37.4423742  39.4618392
  25.0823331  39.7375774  46.3341999  24.8538733  39.4752789  47.2259617
  25.3972578  38.9334941  45.9212828  71.7439206   9.1410820  69.0573439
  72.5012774   8.7442581  69.4876579  71.1107500   9.2751400  69.7625786
  43.8849068  47.7969503  14.5892060  43.7608099  46.9052458  14.9143076
  43.1938267  48.3050966  15.0139761  27.7433681  45.0700140  32.2541404
  27.6894999  44.3502188  32.8828073  27.7093649  45.8609724  32.7921581
  19.3063128  73.3675861  42.3219681  19.0553737  74.2911291  42.3038864
  18.8654602  73.0146933  43.0948496  88.1709037  29.0693307  48.4035492
  87.3279742  29.4576049  48.1691504  88.1955761  29.1095901  49.3595839
  76.5979178  85.3088323  21.5465641  77.4806590  85.4578280  21.8853879
  76.0468895  85.2585551  22.3276353  32.0282674  71.4291382  38.6207199
  32.9393029  71.6227722  38.8415146  32.0798540  70.6816006  38.0251002
  33.4114051  49.9464703   7.1442693  34.2533422  50.1921654   7.5276864
  33.3775377  48.9938211   7.2311628  24.8589134  43.4190226  12.4737656
  25.3778291  42.9097509  13.0963433  23.9562368  43.1425047  12.6317060
  22.9774189  44.4485903   4.3282270  23.6254215  43.7456512   4.3751931
  22.8346300  44.5804834   3.3909720  24.6232963  70.0873947  13.6298048
  24.6454692  69.9654961  12.6806581  24.7804379  71.0232973  13.7548232
   1.7374678  68.8246346  28.0931354   1.2029402  68.1871271  28.5665226
   2.6055679  68.7507772  28.4895921  29.9744534  85.4474163  33.9881682
  30.3789330  84.6251011  33.7116933  29.0540743  85.3564358  33.7414789
  29.6747463   0.4840921  24.9793029  29.0592064   0.2671408  24.2791080
  29.4439490   1.3778280  25.2327013  32.8649521  71.7426443  19.5966780
  33.7665486  71.5798187  19.3194711  32.3443413  71.6191959  18.8029790
  10.2964914  82.3021984  43.8822365   9.8108685  82.4399757  43.0689621
  11.1986494  82.5372791  43.6652660  20.1173115  47.8912163  15.9330404
  19.5393813  48.6122751  16.1826456  19.6206832  47.1012926  16.1466086
  54.5796338  36.5933681  16.4344752  55.1744357  36.2071180  15.7916272
  54.0242711  35.8657503  16.7144370  77.5679914  47.9447126  29.3230391
  77.8499929  47.0299959  29.3210459  78.3346847  48.4323740  29.0220380
  13.5806060  61.5382004  12.9956841  12.7027774  61.1717653  13.1023407
  14.0936923  60.8244371  12.6168501  41.3267326  64.8005438  30.9546065
  41.8737459  64.4479084  31.6565013  40.4812765  64.9680042  31.3710070
  86.2820864  53.1191063  72.4100924  85.7880006  52.3164368  72.2432661
  85.6173829  53.7631416  72.6542711  17.9065418  45.1082134  31.9313240
  17.2436953  44.4322968  31.7898774  18.7355793  44.6301699  31.9514704
  21.6545200  50.1422501  31.6201496  21.7056537  50.8707571  32.2389293
  20.7164955  50.0100517  31.4827967   7.4159312  37.0939732  29.1406202
   6.7761332  36.4215875  28.9065504   7.2588855  37.8018904  28.5157824
  52.7299881  65.7372761  28.6330342  52.7285337  66.0939407  27.7447653
  52.0429134  66.2244129  29.0878558  81.5030257  54.6205425  40.6959820
  80.6312767  54.6220016  40.3006554  81.7360005  53.6942530  40.7587481
  88.2767329  61.0731220  20.8816314  88.1489182  60.7447624  19.9916458
  89.0400768  61.6471148  20.8178282  72.7611540  77.3893683  67.1575436
  72.9182766  76.6931026  66.5197680  71.8141030  77.3780148  67.2960923
  41.5592003  42.5807476  19.7491539  41.5717554  41.7657042  20.2509308
  40.6432390  42.8581715  19.7658038  22.8760123  60.9349251  34.2115259
  22.8318381  60.9346628  33.2553458  23.0906630  61.8390465  34.4411302
  65.2093450  36.6256785  27.0786285  64.3198792  36.4774060  27.3997164
  65.6409160  35.7759500  27.1677494   8.7310266  56.3482618  26.4004230
   9.3717146  57.0292377  26.1954260   8.2746559  56.6744518  27.1760249
  13.7917984  62.4728966  33.8397789  13.2667816  63.1591272  33.4278584
  14.1115046  61.9444466  33.1085062   1.3893820  21.8415005   0.9741380
   1.2625004  22.3871310   0.1979807   0.9696366  21.0099919   0.7535913
  32.8127623  75.8497286  23.7898827  32.2837543  76.6410065  23.8912034
  32.1789527  75.1626301  23.5839391  47.1841891  85.0250880  40.1486683
  46.8099744  85.4878125  40.8983898  46.5303273  85.1224527  39.4564128
  44.1285276  26.2648964  24.8918462  43.4784317  25.7377768  24.4273543
  44.8850298  25.6857061  24.9839139  83.0093570  10.3857557  68.8783178
  83.5218902  10.3537265  69.6861029  83.6471767  10.2231113  68.1833628
  25.4980397  51.1823320  32.6933289  25.4307079  51.4568520  31.7788148
  25.5619454  50.2281237  32.6528811  12.9435599  26.0130167  15.1914024
  12.3592734  25.8144474  14.4596839  13.0778062  25.1708317  15.6260681
  12.1525979  43.7250328  59.0543652  12.0745039  44.4474459  58.4312630
  12.2098422  42.9418182  58.5070705   0.4927318  38.7154102  37.8563118
  -0.1113899  38.9640212  38.5559249   0.1193816  39.1074443  37.0669127
  75.6091300  33.8426161   4.6749872  75.7443134  34.4779873   5.3780228
  75.8755151  33.0052042   5.0544780  15.8186114  45.3699255  46.2406397
  14.9163151  45.4838514  46.5391588  16.3262451  45.9820604  46.7733955
  30.4393506  67.9592848   1.1187630  31.3645244  67.9715109   1.3639839
  29.9705887  68.0578709   1.9474824  84.9887703  54.2155790  28.0183744
  84.5157955  54.9604654  27.6473284  84.5709107  53.4479904  27.6279473
   6.6823000  73.1894875  35.4241419   5.7735342  72.9366159  35.2615571
   6.6902322  73.4815454  36.3356614  30.1136971  69.4311523  42.9831028
  30.4561377  69.0538454  43.7934113  29.2568970  69.0194941  42.8705788
   6.0057056  57.8070688  46.1015415   5.9056127  56.9029045  46.3993692
   5.7017332  58.3370066  46.8384266   6.6217834  31.6805363  34.4714379
   6.1724591  30.8504748  34.3122697   5.9160316  32.3183823  34.5777369
  74.9659733  74.4207478  18.2699013  75.0761262  75.2910995  18.6527681
  75.5035368  73.8484621  18.8173926  10.0854588  60.4286718  55.4354763
  10.0595260  61.2333965  55.9531450   9.1996497  60.0721741  55.5024147
  23.2564569  73.4506941  23.8913083  22.6757812  74.1831398  24.0976429
  23.8024306  73.7726021  23.1740069  21.5414476  54.5650196   6.6263545
  20.6234622  54.8113823   6.7396528  22.0074034  55.3988886   6.5649211
  30.3041196  51.8763494  32.1279836  30.2807617  52.6622009  31.5819764
  31.1578417  51.9098520  32.5595665  28.8520145  25.7249522  43.9985275
  28.9780903  25.8277345  43.0552530  28.0733418  25.1738882  44.0774584
  34.0141773  63.2794428  27.8089809  34.1510248  63.8111925  28.5930395
  33.7056255  63.9005184  27.1492147   6.3184541  65.5617666  14.8473966
   5.3907716  65.5390024  15.0821686   6.7544478  65.9057570  15.6270182
  41.3590288  34.2110467  18.4299433  40.9766340  34.9670553  18.8754225
  42.3013163  34.3003559  18.5725975  29.2345142  43.7225437  14.2007685
  29.9466348  44.3071365  14.4603324  29.3656015  42.9357433  14.7299111
  13.1772137  59.1700935  51.2424803  13.0266500  59.6108627  52.0787096
  13.7542319  58.4375048  51.4583540  33.3029604  26.1778378  25.5520463
  33.6085987  25.2989984  25.3274202  32.3668075  26.1640358  25.3528976
  47.5558662  62.0451927  20.3058743  48.2383156  62.6233530  19.9649537
  46.7474508  62.5497437  20.2157235  18.1230509  41.1698341  46.5209913
  17.3268700  41.4967775  46.9398451  18.0752301  41.5010452  45.6241989
  37.1619725  48.2381439  29.6568036  36.9405484  49.1691065  29.6342850
  36.9789386  47.9701281  30.5573034  25.8803248  39.8871446  13.6856771
  24.9906826  39.5541072  13.5679746  26.1890316  40.0648880  12.7972293
  10.7880783  71.3097191  65.4676628  11.3094330  71.7111254  64.7724676
  10.0535870  70.9003973  65.0102711  24.8149610  52.2120285  35.5687833
  25.4949832  52.6745749  36.0585308  25.0558281  52.3345327  34.6505189
  71.5199736  50.2129364  46.3471031  72.2605602  50.6725740  45.9515047
  71.7961792  50.0444746  47.2479725  70.2061539  28.0632527   3.7000873
  69.6557551  28.7312252   4.1088703  70.2298652  28.3060153   2.7744892
  69.2219893  30.3944778  67.1879435  69.8744861  30.8646274  66.6688633
  68.3895174  30.8060741  66.9559669  59.8449802  22.4040604  22.6045012
  60.3829622  21.9758677  21.9385743  59.5178604  23.1949830  22.1759367
  65.9995452  39.1895366  14.2154264  65.8029238  38.9026976  13.3236325
  66.9132654  39.4725513  14.1800177  28.3472371  62.6664019  53.7676573
  28.6475301  63.5700369  53.6701822  27.5668693  62.6125097  53.2159758
  65.1127879  46.4869070  16.6217375  64.2739478  46.6286373  16.1829984
  65.5074183  45.7519388  16.1523497  90.9243526  28.6854982  28.2975793
  90.4435512  29.4651222  28.0196452  91.6380444  29.0242529  28.8380623
  21.8347764  73.8207912  59.3015814  22.4955440  74.1002464  58.6679268
  21.3181114  74.6083593  59.4719505   0.6286152  65.6141901  16.3633919
   0.1267752  64.8954630  16.7478609   0.1562721  66.4039326  16.6268945
  38.2960343  62.4694729  11.1624992  37.8215384  62.1343040  11.9232535
  37.8519750  62.0765543  10.4110622  17.8118467  54.0682459  35.4849505
  18.4556770  54.1353273  36.1900854  17.2528303  53.3343172  35.7400560
  39.2340374  77.4791336  26.0129619  39.9326491  78.1216002  26.1371064
  39.0988755  77.4523020  25.0657320  11.4117038  77.3945856  32.7192283
  11.4175439  76.6308737  33.2962394  10.7298064  77.9616499  33.0793500
  28.8947511  28.1161427  30.2936387  29.1827297  29.0121293  30.4683113
  29.6998429  27.5986123  30.3084707  54.4515276  63.2269859   9.7672755
  54.4413233  64.0978718   9.3701726  54.5057535  62.6256800   9.0244955
  18.8879454  52.1164608  39.4237685  18.1325567  52.0921516  40.0111580
  19.6355748  52.2705507  40.0012970  34.2339563  53.4764719  16.3243723
  33.5571599  52.8551388  16.5929329  33.7764931  54.3145609  16.2568295
   4.9218169  59.1969395  12.1159637   4.1863063  59.6585417  12.5186753
   4.5269805  58.6902905  11.4062834   2.8856423  42.8084946  44.7111273
   3.0126372  43.7450886  44.5598078   2.9968128  42.7012682  45.6557846
  43.0577898  42.9880762  30.2336216  42.9726696  43.1700993  31.1694908
  42.8309155  42.0620918  30.1481128  14.6154368  47.8582191  40.0572062
  14.7349453  47.0155334  39.6192241  14.0961838  47.6525974  40.8345938
  51.9961110  45.3968143  16.6474855  52.5020758  45.6632328  17.4151123
  51.0828201  45.4955912  16.9165158  15.5277216  29.9852443  16.0111117
  16.3748372  30.2054811  15.6236529  15.3226364  30.7292581  16.5773392
  25.0199747  45.3554678  23.7019444  24.9094534  45.9892225  24.4107270
  24.5303464  44.5853424  23.9907408  76.8095875  60.6656218  25.5198956
  76.6044664  61.0799837  24.6817660  77.1336317  61.3806248  26.0676146
  79.2244843  62.6952171  53.8157606  79.2027871  61.7490435  53.6724997
  78.5145453  62.8598356  54.4363403   2.1004207  64.5991182  32.9936266
   2.3475859  63.7197304  33.2796717   1.1697450  64.5291090  32.7810884
   7.6870811  35.5654240  22.6616311   8.2571578  35.1535630  22.0123148
   7.2390801  34.8334861  23.0856514  72.1103258   9.3510715  64.4881514
  71.5770550   9.5056621  65.2678666  73.0126376   9.3731252  64.8068646
  13.1997335  67.7653265  18.5862017  14.1305077  67.9791880  18.5217416
  13.1573164  66.8251991  18.4113073   8.4646976  48.3770132  21.5294099
   7.8173316  48.9432621  21.1092734   8.0931938  47.4974251  21.4620399
  53.6495701  40.2209139  55.2268028  53.7795702  40.8854342  54.5502329
  54.0554301  40.5934668  56.0095596  85.2679620  47.8134966  64.9767351
  85.4309974  47.9862309  64.0494728  85.1166395  46.8693972  65.0215054
   6.9341487  85.9548569  25.1883626   7.0347792  85.0346565  25.4319429
   7.7465034  86.3696671  25.4786134  26.8103456  41.2785149  19.0576816
  26.8674707  40.9076309  19.9382579  26.3429117  42.1054077  19.1759241
  27.7565575  45.6711435  23.1017733  27.8886342  46.3577032  22.4479938
  26.8061066  45.5712032  23.1554794  44.1428718  14.4435858  38.3543944
  44.9392399  14.4419455  37.8233337  43.6346218  15.1833128  38.0216527
  30.1527309  35.1978040  31.6288257  30.5472136  34.3926072  31.2937593
  29.6204352  35.5237389  30.9031129  17.2984993  44.6035910  20.4111600
  17.8499115  43.9157581  20.0382495  17.5863624  44.6742296  21.3213134
  15.5001962  43.6164904  31.8972206  15.0804532  42.9553080  31.3468742
  15.4661751  43.2495165  32.7806258  52.3215847  16.1837990   6.0964706
  51.6353547  16.8508036   6.1171653  53.0861812  16.6377194   5.7420948
   7.5658625  20.5897713  29.8947406   7.4806523  19.6465862  29.7555470
   7.9993546  20.9103966  29.1038465  84.2242632  53.7629318  42.7597857
  83.6906651  54.0291882  43.5085249  84.8892955  54.4472218  42.6841974
  21.7881489  30.7919407  33.6455345  20.8629036  30.7863498  33.4003329
  22.2370601  31.1473989  32.8784895  43.5755539  76.4316797  37.7761722
  42.8709936  76.4814663  37.1301484  43.4453773  77.1998501  38.3322263
  50.2394772  76.8081808  18.6917770  49.3748474  77.2186518  18.6793661
  50.2751541  76.3501883  19.5315409  31.1459637  38.2560968  30.6418633
  30.8924055  39.1644335  30.8057714  30.3369474  37.7573276  30.7556868
  76.3637204  20.0031606  65.8683899  75.4972942  19.6164123  65.7420537
  76.2026353  20.9461443  65.9010891   8.1617635  35.0302911  32.5829935
   8.5846156  34.2976522  32.1350336   7.2266001  34.8311710  32.5376940
  74.4701893  83.0818749  59.9355936  74.1336949  82.7550743  60.7699823
  73.8352306  82.7794243  59.2863035  54.1348410  60.6577063  26.6743517
  54.5801067  61.5044355  26.6423297  54.7673655  60.0404263  26.3067770
  79.7428218  50.5646229  53.2030964  80.2440254  50.8375740  52.4346399
  78.9612976  51.1170912  53.1879425  62.7545873  73.8215208  41.5726614
  63.0969039  74.0727329  40.7147884  61.9494740  73.3417416  41.3781452
  39.5903254  40.1518679  29.2972684  39.0655589  40.2841091  30.0868011
  38.9945030  39.7235847  28.6826110  24.9500528   1.1950373  36.5355396
  24.8457959   0.3383230  36.1215401  24.6259859   1.0709929  37.4276280
  72.7221683  39.6132016  18.7744093  72.2832207  38.8825917  19.2100298
  73.2162742  39.2059207  18.0629230  42.5830841  64.5092154  33.9013028
  42.4740505  63.6557913  33.4817696  42.3531866  64.3566513  34.8178744
  82.1901993  55.1599121  44.4552803  83.1035755  55.2344036  44.7317362
  81.8985353  54.3223286  44.8153162  23.7907219   8.3153802  17.3023105
  22.8872895   8.1660610  17.5811422  24.2624140   8.5093981  18.1123066
  19.2233777  36.2752461  47.2928238  19.0419567  35.3733969  47.0282745
  18.3904290  36.5954447  47.6390886  19.9666822   4.8678294  49.3815994
  19.1684127   5.3591549  49.1877031  20.2197766   4.4815400  48.5431767
  15.1087379  65.1901245   6.6566926  14.9819231  65.4230881   5.7369763
  14.3941438  64.5835876   6.8508613  12.8097892  77.7887440  30.4685926
  12.4403203  77.6352501  31.3381720  13.6844814  77.4020052  30.5083251
  29.2120361  17.6187313  10.5436432  28.8248444  16.8567610  10.9745896
  29.6658802  17.2581720   9.7818995  66.9683851  14.0715257  70.9776196
  67.1082933  14.4686882  71.8372238  66.4170695  14.6993438  70.5105764
  46.6628599  23.4922886   7.5138170  46.8855715  22.7726841   6.9232231
  46.3062525  23.0624914   8.2912087  74.6903793  50.0654173  31.8764138
  75.3252665  49.4655514  32.2679639  74.3930820  50.6091356  32.6059461
  43.3264399  60.2319098  30.6705976  44.2094135  60.0064850  30.3777122
  43.1691265  61.1037302  30.3080940  30.1731324  41.2329483  40.3388643
  30.4767013  41.6581964  41.1408854  29.2359734  41.4249849  40.3059006
  37.4789429  40.1551437  31.4912987  37.9462814  39.4874263  31.9932747
  36.6572642  40.2803183  31.9660711   3.7746531  37.1872687  26.4109015
   4.2252812  36.5973020  27.0151401   4.4314477  37.8457904  26.1846256
  23.7911820  27.7182293  36.8612218  23.7490153  28.0119419  35.9511733
  24.7254038  27.5967574  37.0306516  13.3907628  27.0674753  23.8042641
  12.7228081  26.6055417  24.3109083  12.9385161  27.3433018  23.0070043
  11.6830027  19.0537000  44.7089958  10.8380640  18.7282336  44.3985415
  12.3040390  18.3611786  44.4832468  16.7112494  77.1173763  23.9262581
  17.5092351  77.2350788  24.4416189  16.8412328  77.6682425  23.1543231
   5.8259040  13.4450281  33.5011411   4.9847168  13.8153136  33.7685823
   5.7622057  12.5172949  33.7280416  54.8100422  84.5494144  69.2509047
  55.1826404  85.2989643  69.7152052  55.4152797  83.8303630  69.4322417
  29.5198321  33.3950090  26.9088793  28.5928655  33.5188890  26.7048669
  29.9785709  33.6692119  26.1147738   6.7308104  62.6381397  41.4628983
   7.2525829  62.8949881  40.7026243   7.1884084  61.8777704  41.8216133
   9.6874970  67.4407673  12.5869751   9.7422779  66.5979528  12.1365416
  10.5580819  67.5678635  12.9640162  30.0295520  62.2514009  17.5991237
  29.1889906  62.4141693  18.0271339  30.5858946  62.9780102  17.8797448
  73.9326671  50.7576227  29.3721175  74.1325036  50.3363085  30.2080536
  73.4848932  51.5684462  29.6135616  10.6127250  74.2389154  42.6805067
  11.5095115  74.1061258  42.9877043  10.2233374  74.8288584  43.3259296
  11.4572358  48.3247185  35.5680537  10.6195986  48.7864208  35.5302763
  11.4327383  47.7228498  34.8241520   8.8214630  42.0406342  51.1577797
   8.6959529  42.9490805  50.8835411   7.9356718  41.7127514  51.3130140
  35.8402157  47.2003984  41.4948320  36.4397883  46.5852594  41.0725164
  36.3843489  47.6688957  42.1278095  30.9029651  52.1120358  37.1844816
  31.8070817  52.2754002  36.9159365  30.3743625  52.4334669  36.4540744
  18.2715762  63.2564592  12.9361093  17.9716349  63.8665628  12.2622836
  18.9922667  63.7136412  13.3694935   7.4750811  80.9577560  31.8327022
   6.7047745  80.9450912  32.4007678   8.0474985  81.6199493  32.2200799
  85.8754013  37.6756239  25.3827333  86.4140127  37.9930067  24.6578908
  85.2661983  38.3923030  25.5601478  81.3516907  73.8945103  30.1237512
  80.6497339  73.4930801  30.6359482  80.8999494  74.4795227  29.5155430
   8.5828847  77.1570396  10.4562366   8.0226135  76.5000677  10.8694196
   7.9857504  77.6769304   9.9183005  78.3509508  79.5327997  27.5994730
  79.0828387  79.1763639  27.0959592  78.5379342  79.2820168  28.5041142
  62.5746771  10.4505800  46.5506697  63.3810803  10.9380030  46.7190886
  62.0267412  11.0583471  46.0540533  25.4278755  65.3418064  50.8588028
  26.0183358  65.9386730  51.3185215  25.9473467  65.0066805  50.1280022
  46.2234804   7.9958319  35.5538225  46.0549196   7.2342180  34.9990487
  46.7865154   7.6631140  36.2527680  31.2291408  52.8073978  28.3353662
  31.8751645  53.1124640  27.6983285  31.6773152  52.1119165  28.8166952
  80.1031705  12.6226782  18.6573565  79.2117282  12.9299044  18.8221979
  80.6606313  13.3590483  18.9088261  32.9213953  47.1433449  42.5062609
  33.8394856  46.9130564  42.6487732  32.5402164  46.3662720  42.0974922
  15.8516312  44.6047783  43.3443737  16.4347363  45.3038597  43.0485725
  15.8028519  44.7191095  44.2934704  27.3177123  53.3029413  12.8116071
  28.0808115  52.9366493  12.3646820  26.6100979  52.6871395  12.6210701
  23.1490898  38.5881424  20.6325626  23.7214518  38.8906407  19.9274886
  23.7438679  38.3922863  21.3565183  90.7128892  62.5230742  21.1630154
  91.6487023  62.3226643  21.1450863  90.4738835  62.4682188  22.0882726
  27.2429895  67.6785374  10.7686090  26.4293981  67.5493145  10.2811646
  27.0474052  67.3600388  11.6498232   2.5070691  34.8181009  34.8910069
   3.2495594  34.7116232  34.2963624   2.5714999  35.7234955  35.1948810
  31.9152526  27.2656385  73.5135223  31.5982464  28.0187551  74.0120721
  32.7726487  27.0714513  73.8921883  10.9474015  35.2909088  33.7073326
  10.2577066  35.7832384  34.1524911  10.4793537  34.7230005  33.0952525
  47.4205017  48.4780884   6.3915861  47.3336983  48.2182837   7.3087543
  48.0960608  47.8975582   6.0411090  12.9551152   0.8486311  73.8866375
  12.7278498   0.5963890  74.7815988  12.2200421   1.3884489  73.5959499
   6.6253889  32.8506851  48.9493084   6.0359478  32.4025297  49.5558929
   6.8172085  32.1982288  48.2757092  40.2885130  22.4284910   0.5562691
  39.7986260  22.6079439   1.3587904  41.2051948  22.4215292   0.8317265
  88.8041156  47.9662418  17.9793251  89.5750553  48.4631348  17.7055037
  88.0680916  48.5551882  17.8130734  73.9817945  64.2620516  18.0462205
  73.2660941  64.6454716  17.5392771  74.7407678  64.3125629  17.4651527
  32.0744109  45.4847050  32.9635215  32.3998427  44.7338724  33.4600878
  31.3470244  45.1346064  32.4491596   7.5314963  43.3488131   9.9174768
   7.8688437  43.9150620   9.2233688   7.9403847  42.4990606   9.7532725
  62.5385782   6.6890596  42.5191212  61.6192218   6.5449213  42.7432585
  62.7199909   6.0503744  41.8296289  61.3838068  46.4855576  12.3840332
  60.4904167  46.1442280  12.3442984  61.3344685  47.3369646  11.9494033
  68.8868085  44.9104548  62.2532558  68.3711020  44.3937778  61.6341257
  69.3178741  45.5721235  61.7123175  40.2566045  51.1063607   0.9612587
  40.9730678  51.4913208   0.4565599  39.9839180  50.3456719   0.4482057
  47.0498657   5.8734322   7.6989019  47.0320654   5.9974569   8.6478662
  46.4886284   6.5688384   7.3558962  49.0655279  48.0930281  10.7913053
  49.8927927  47.6751614  11.0305786  48.5954618  48.1855774  11.6199815
  79.8903505  68.9031076  59.3154240  80.4282490  68.1652689  59.6026230
  79.3316869  69.0992975  60.0675106  83.5942671  78.1751299  49.1992950
  84.0151093  77.7351904  48.4606647  82.9872338  77.5242186  49.5515108
   8.5456973  72.1642542  21.7641950   7.8434736  72.3819351  22.3771620
   8.7660491  71.2547922  21.9655871  27.9679990  38.2721472  31.5708184
  27.1204948  38.4129405  31.1487412  28.3819628  39.1352034  31.5706682
  81.3571236  43.8394022  68.2388830  80.5496827  44.0810966  68.6925936
  81.9775031  44.5310020  68.4692144  13.1928670  63.8303185  38.3463192
  13.9599574  64.3470097  38.5929561  13.4978735  63.2770395  37.6272297
   4.0178341  76.7984581   8.7649053   4.2491007  75.8766079   8.6511254
   3.7905851  76.8757725   9.6915185  29.9088621  48.3427715  23.7652755
  29.5964551  47.6681089  23.1623960  30.7229614  48.6570740  23.3719707
  15.0542760  59.1778898  14.2051971  15.8725905  59.6444130  14.0350568
  15.1798809  58.7803936  15.0668538   0.8127251  65.7783461  28.1850076
   0.6037178  66.0493422  29.0789366   1.7655374  65.8509874  28.1292987
  15.9327793  48.1580734  32.1803665  15.6705177  48.3670092  33.0769157
  16.8894827  48.1439590  32.2078013  85.4728547  52.2569799  12.2417128
  85.0784144  52.1215391  13.1032836  84.8987011  52.8912783  11.8124747
  35.3791472   1.7558550  28.0718946  35.8937689   1.7451643  28.8789153
  34.5953041   2.2582029  28.2943082  20.0023651  32.3977089  24.5734286
  19.4361043  32.8558636  25.1944518  19.4261420  31.7636395  24.1466308
   8.1870078  68.7683527  73.1808286   7.9549573  68.0248420  72.6244337
   8.5844587  69.4006770  72.5821381  63.7146422   1.3724875  50.9120226
  63.0441519   1.3909601  51.5949059  63.5153457   2.1287607  50.3601599
  38.3254743  75.0308990  16.8419516  38.3534145  75.9812307  16.7309451
  38.9370489  74.8552036  17.5570297  43.9222336  57.6074934  33.8536954
  43.8322830  56.9014502  34.4937348  44.6561670  57.3380709  33.3014393
  48.6774024   6.0576796  55.7895947  48.1405183   5.7590174  55.0555706
  48.1444403   5.8791613  56.5643930  17.2076321  80.4404068  20.5926490
  16.3006175  80.6548309  20.8107710  17.4423850  81.0636234  19.9050951
  53.4322548  68.1932354  70.9557962  53.1821537  68.6346960  71.7674541
  52.6069260  67.8688765  70.5954409   6.7166674  59.3035984  43.8525867
   6.8466163  58.7274837  44.6058702   5.8204556  59.6256447  43.9491415
  90.2949636   7.9154284   6.4451339  91.2263744   7.7005990   6.3946178
  90.2544349   8.8521798   6.2525585  38.8898816  18.2773088  53.2587767
  39.5409992  17.9603361  53.8847208  38.6576637  17.5050997  52.7430296
  77.8691121  33.2538008  62.4908066  77.7045938  32.6574492  63.2212400
  77.1334192  33.8658308  62.5109148  11.4292240  77.6986980  65.5706644
  10.9414446  78.4978628  65.7697535  12.3349607  77.9077482  65.7990742
  19.4749296  73.7967300  14.6722186  20.1336551  73.3065128  14.1802824
  19.9432623  74.5642614  15.0005281  42.0166445  80.8698750  58.4060287
  41.3506413  81.0297394  57.7373648  42.5344896  80.1432991  58.0594015
  44.1894540   5.0489306  31.0239291  43.5223230   5.0022482  31.7087555
  45.0150808   5.1398348  31.4996457  66.4611122  37.3092054  30.8057499
  65.6948420  36.8053793  31.0800266  66.8341276  37.6414274  31.6222763
  23.1378126  57.7824831   4.7832730  22.9609847  57.6296663   5.7115030
  24.0777326  57.6274061   4.6898109  80.1513497  82.4844646  24.2176771
  79.1994385  82.5010109  24.3167925  80.4206482  83.3949566  24.3389702
  79.6490717  67.1681070  24.9093747  80.0505543  67.8814840  25.4054952
  79.3006802  66.5780210  25.5776954  39.5995548  24.0375685  70.2786922
  39.1482976  23.1938528  70.2515793  40.4895958  23.8242601  70.5589724
  67.7591372  73.7765312  19.0238822  67.6990843  72.8214121  19.0044296
  67.1391535  74.0417099  19.7032404  51.5776491  57.4294758  26.0460114
  52.1421671  57.8120613  25.3743148  52.0258856  56.6245174  26.3055515
  20.0300264  68.6038256  43.6619282  20.7383919  69.2474270  43.6771536
  19.7984493  68.5243797  42.7365685   4.2625933   9.3285631  19.6031189
   3.4435015   9.8048567  19.7389877   4.4635658   8.9488291  20.4584813
   1.3530617  13.9446615  42.9573679   0.6566076  14.1718840  43.5734415
   1.9394569  14.7011255  42.9691362  29.1547108  69.7773981  48.8290405
  28.9023232  69.8910427  47.9127312  30.1018286  69.9158001  48.8355350
  24.1890836  32.7331471  26.4664078  24.8500991  32.1149063  26.1548519
  23.7423086  33.0264640  25.6723094  12.2236967  62.2278786  20.8974600
  11.5014780  61.9101954  20.3555107  12.9830170  62.2173834  20.3147483
  33.1442356  62.8039885   5.6480676  32.6333904  63.5250282   5.2801412
  33.3170629  62.2283363   4.9030936  91.1930385  48.6215782  15.3396511
  90.4992905  49.1471434  15.7380557  91.8195546  49.2643738  15.0072038
  27.0764756  68.8603783  26.6401196  27.3781037  68.0065298  26.3299632
  27.2674203  69.4587183  25.9177876  58.6999484   6.7434286  65.8437586
  59.2292830   6.7074560  66.6404676  58.7755462   5.8670877  65.4662037
  45.2108574  54.2618036  32.5207520  46.0185432  53.9163637  32.1405625
  45.4847145  55.0504875  32.9889512  47.4992704  81.6054535  29.4824243
  48.0044603  81.1125469  30.1289964  48.0813980  82.3167896  29.2152905
   8.2147425  61.6494370  28.9046955   9.1578609  61.8050432  28.9551544
   7.9762471  61.3384199  29.7779751  69.7474098  68.0896711  55.9080267
  69.8992109  69.0285730  55.8000851  69.3302059  68.0115795  56.7659712
  54.7199913   2.1119665  65.7527590  54.3086263   2.9354452  65.4902887
  55.3801152   1.9486116  65.0791264  77.2114308  20.8025447  68.9262453
  77.7912373  21.2268440  68.2937697  76.8996007  20.0174228  68.4761605
  42.3923731  83.9461327  17.9815733  42.1195793  84.7583771  18.4082723
  43.2661533  84.1366196  17.6403093  84.1630331  77.0476675   5.2843428
  84.2529020  77.7820349   5.8916789  83.3009580  77.1698475   4.8866862
  44.2144796   6.5539431  28.6238599  44.5419141   6.2677168  29.4765592
  44.3742224   5.8094954  28.0437684  26.6055193   3.3892416  57.6284075
  27.4859756   3.7599539  57.6884460  26.6490688   2.5838827  58.1439018
  28.9577654  51.6642038  70.1226828  28.4229449  51.0941259  70.6751430
  28.7668208  51.3794271  69.2289970  33.5022378  65.0444221  30.3247428
  32.5791574  65.1461506  30.5567002  33.7470102  64.1917896  30.6843781
  23.3478522  43.3180904  24.3888211  23.5073757  43.0518484  25.2943039
  23.9629245  42.7959633  23.8737464  20.5842328  76.7690086  11.8762743
  19.7748399  76.2958097  12.0691490  20.7863641  77.2377920  12.6859736
  56.4006758  67.0511293  38.6246562  55.7061768  66.5171480  39.0103579
  55.9614611  67.8584051  38.3570218  25.4267669  51.8381882  11.6422343
  25.6243181  51.7239571  10.7126331  24.8677421  52.6145077  11.6746652
  60.0253412   3.9455675  45.8664370  59.3300268   3.3079599  46.0283899
  60.7823917   3.4159922  45.6161356  27.7457190  85.8070278  41.0539293
  27.2943902  85.1510143  40.5227280  27.4222302  86.6456127  40.7247448
  71.1892339  13.2606863  20.8323669  71.2677070  12.5880121  21.5088201
  71.4034053  14.0783094  21.2816548  34.9398398  41.5741873  40.3208017
  34.6734881  41.0078859  41.0450888  34.6147227  42.4413681  40.5627346
  17.1520591  82.1965313  39.9987197  16.7928565  83.0322933  39.7008777
  17.0425677  81.6087627  39.2512083  26.2389183  68.9569712  49.2480040
  26.9526482  69.5916414  49.1846085  26.1148548  68.6457014  48.3513689
   3.6974880  76.2011194  43.4364986   4.4885451  76.5981627  43.0720568
   3.1372213  76.9445276  43.6593723  19.6118009  64.7528505  48.3751678
  18.6842418  64.9836206  48.4262705  20.0643635  65.5935383  48.3068991
  60.3738451  57.1293354  19.5713186  61.0849810  57.3699188  18.9774847
  59.7764969  57.8768015  19.5448649  10.9971762  23.9286590  32.2697043
  10.9765947  22.9850769  32.4292684  11.8761790  24.0948677  31.9291759
  28.4753776  77.8657627  25.9593320  28.6299205  76.9460964  26.1751056
  27.6786542  78.0935812  26.4384556  64.7106123  68.7508202  48.5034800
  64.8479509  68.8791084  49.4420528  64.3734741  69.5913982  48.1936550
  54.7985744  66.7617893  35.8166862  53.9160967  66.6519642  35.4625630
  55.2298975  65.9238720  35.6491041   6.6252810  68.8660383  39.0548015
   6.4079368  68.6080742  39.9505973   6.7975307  69.8059130  39.1113210
  38.0333877  80.9504890  21.1557460  38.0162907  81.8552494  21.4677548
  37.3116279  80.8995628  20.5290890  19.8854470  61.4940548  16.0424197
  19.8111272  61.6391563  16.9856346  19.4709289  62.2617245  15.6486011
  37.6857352  44.0538979  31.3141394  36.8222690  44.3743372  31.5748692
  38.2929349  44.4856787  31.9150567  12.1526289  71.2254906  72.5867796
  11.7076731  70.6246042  73.1844234  13.0637586  71.2241364  72.8801584
  49.7640463   1.0759043  12.5381482  48.9268371   0.7811808  12.1797514
  50.1925286   0.2736925  12.8366125   7.5960881  79.2439222  43.9931154
   8.3499557  79.6278381  43.5453176   6.9176865  79.9171257  43.9401627
  39.3218446  47.0903540  38.9736652  38.8516045  46.5062332  39.5685649
  39.6381044  46.5170908  38.2753944  24.6719861  54.9646521  33.8640642
  24.4861865  54.8145771  34.7909880  25.4524994  55.5187559  33.8628936
  43.6083221  73.8998032  38.3438206  43.3783579  74.8197985  38.2135940
  43.7869596  73.5705709  37.4629545  27.6086092  71.1198950  40.7418776
  28.5109520  71.4344549  40.7972097  27.6665974  70.1877928  40.9517622
  39.1344118  65.3805256  32.9542089  39.1556787  66.1400747  33.5363293
  38.9293480  64.6435070  33.5295200  36.1195946  58.1422377  36.2468982
  35.7197428  57.5422001  36.8764281  36.8012905  57.6228094  35.8206153
  83.8287873  11.2356273  74.0593360  83.2909818  10.9766189  73.3110625
  84.2417927  12.0545475  73.7854220  25.1880360  83.1346607  32.3178005
  24.6118283  83.7472439  31.8606877  25.8098435  82.8466034  31.6495109
  53.0307528   7.0295309  14.9025714  53.7145492   6.9301676  15.5649757
  52.7633997   7.9461645  14.9699450  10.9875422  26.2066530  24.8660874
  10.1740198  25.7444548  24.6641374  11.4896517  25.5874228  25.3958750
   0.4716168  62.7924538  53.7147713   0.1426200  63.6278105  53.3828545
  -0.0903010  62.1342230  53.3058548  59.2296696  83.3343983  23.0055332
  59.6407032  83.8166523  23.7229657  58.8095474  84.0096092  22.4727917
  29.6873164  69.8027420  72.5051498  30.4299331  69.4154501  72.0417309
  29.8143792  70.7471085  72.4142456  67.5430080   0.4810881  63.9476347
  67.3585769   1.4139723  63.8383436  67.7565023   0.1743006  63.0664206
  49.8705244  52.9178190  13.8219142  49.3253374  53.6940622  13.9501536
  50.5763626  53.0125523  14.4614816   1.5966728  78.8603115  58.6390305
   1.6471235  78.0536366  58.1262255   1.9990960  78.6362648  59.4781303
  18.0593622  56.0896873  33.2178974  18.1907010  55.3708935  33.8362145
  18.9198446  56.5024424  33.1441665  87.1047183  23.4990000  41.3550329
  87.5184318  24.1163897  41.9582748  86.1962959  23.7947058  41.2953568
  28.7731266  78.3114719  39.9534512  29.6699214  78.5529184  40.1851702
  28.6922550  77.3982430  40.2285957  26.4010501  75.8152866  22.5042558
  27.1749854  75.3279972  22.7867508  26.2270308  76.4250612  23.2212830
  44.6468353  57.9435158  28.2365561  44.7884607  58.7000895  28.8055634
  45.3326941  57.3242807  28.4862924  21.3949752  57.4526691  28.9051509
  21.8976545  57.7645302  29.6576691  21.6219711  56.5255690  28.8330722
  62.2300621  21.9446920  46.1492777  62.1863457  21.5200399  45.2925444
  62.5069329  22.8408979  45.9585285  31.5533996  82.5509167  70.0904942
  30.6924272  82.5531101  69.6722221  31.9943023  83.3226299  69.7351122
  44.2177010  47.9322815  21.0142779  44.7388458  48.5071898  21.5747404
  44.3713474  48.2585955  20.1276302  22.3254037  76.8457508  33.3955407
  21.5555716  77.3331022  33.1021380  22.1003079  75.9279728  33.2430744
  90.1474734  69.5924854  25.5376673  90.2563602  68.8459730  26.1268187
  90.5925998  70.3145504  25.9811926  55.1561594  56.2080908  14.9427629
  55.6255341  55.4720592  15.3354120  55.7814503  56.5896130  14.3265772
  54.1092178   0.0527262  59.3777132  53.2764169  -0.3997637  59.2438221
  54.2737433   0.5019068  58.5486174  55.3509017   1.7052340  51.4376688
  55.2941605   0.8311152  51.8235636  54.8599740   1.6378378  50.6187201
  74.6230395  43.5308878  73.7116702  74.7296472  44.3733160  74.1534610
  74.1328103  43.7380258  72.9160560  17.5532842  67.8771019  25.8139729
  18.2139421  68.0978775  25.1574516  17.1936345  68.7216616  26.0852742
  22.1783829  55.3520250  70.3931046  21.8605351  55.9264278  71.0897160
  22.7959943  54.7652912  70.8296013  71.5462828  81.2628365  42.6605034
  72.1876669  81.6840744  42.0883083  71.0046482  80.7401085  42.0692158
  79.3842288   5.9214758  18.2284343  79.6386453   6.7197966  17.7656245
  79.9840185   5.8747648  18.9729500  35.6764221  40.7339811  18.0971968
  35.4944634  41.6581345  18.2676578  36.6315150  40.6716919  18.1094635
  64.1641573  13.1779853  72.9784510  64.9712588  12.6916162  73.1465753
  64.4312484  13.8928501  72.4006410  72.3533455  57.6881695  32.9875469
  73.1622485  58.1183243  33.2648158  71.6958526  57.9865408  33.6159635
   8.9515489  65.8867884   0.4907645   8.2197326  66.3229656   0.9271432
   9.7319472  66.2892389   0.8718705  43.3563328  79.4820309  34.7256637
  43.0371380  78.6633682  34.3460083  44.1811132  79.6515989  34.2704511
  45.5203220   9.0189909  71.2994623  45.7927939   8.1111406  71.1660624
  44.5773586   8.9656519  71.4550447  59.4112893   0.0216269  54.5324850
  60.0747296   0.6997370  54.4049883  58.5803481   0.4967855  54.5339251
  22.8191042  83.7491035  25.6379199  23.5484409  83.1291866  25.6364679
  22.3588371  83.5793495  24.8159909  21.8820691  84.8450947  50.5771971
  22.3322320  84.0638733  50.2558184  21.0586119  84.5158672  50.9374189
  33.7475234  11.4572214  72.1464920  33.4251809  10.6454252  72.5380516
  33.1412193  11.6333651  71.4270496  63.4311935   2.9036020  12.3075843
  63.9908763   3.6067175  12.6371443  62.6085540   3.3380007  12.0822048
  31.0772705  77.5204849  58.8709641  31.4991212  77.6027632  58.0156803
  31.5551496  76.8148899  59.3068457  44.2734528  60.5640507  21.8275476
  43.6226177  60.4495478  22.5200343  45.0028706  61.0118723  22.2560740
  73.2896423  82.1498585  31.7110062  73.2636261  83.0854321  31.9116187
  74.2172623  81.9194889  31.7628455  59.4735575  72.1316957  24.8716116
  60.1891756  72.2920465  25.4867601  59.7270966  72.6066256  24.0801668
  61.2332984   1.6242861  52.5415945  60.3601238   1.8531775  52.2231483
  61.3210246   2.1036028  53.3654881  26.8519306  65.4996395  27.4697351
  26.7193532  65.2290964  28.3782816  26.0061669  65.8581924  27.2007489
  22.4097681  81.2753201  35.7750058  23.2854247  80.8941364  35.8395147
  22.3766446  81.6518497  34.8956013  72.4090501  14.2885088  57.7574348
  71.9318029  13.8555597  57.0496082  73.0591937  13.6440634  58.0371523
  42.3459530  72.9822922  15.9498966  42.5975609  72.1757984  16.3998878
  41.7283678  73.4063339  16.5457189  29.8464417  70.8129930  31.5557480
  29.0058279  70.7788372  32.0122933  29.6172953  71.0019970  30.6458044
  42.8307390  79.9477100  41.2797832  43.6476946  79.4648266  41.4048147
  42.1588516  79.2690182  41.2151098  83.5808954   4.4014737  30.9711456
  83.4512100   4.7375220  30.0843048  83.5651401   3.4496278  30.8712816
  83.9794486  29.2328055   2.5317457  84.8294299  29.2641337   2.9708173
  84.1456597  29.5961173   1.6619136  26.4317083  70.7436371  43.2690144
  26.7062640  69.8277426  43.3135748  27.1217060  71.1763239  42.7661037
  57.2650528  82.9240990  42.9305267  56.9181585  82.2602177  43.5264778
  57.5266457  82.4333668  42.1514320  85.7535095  35.7104246  46.7227862
  85.1535816  34.9914877  46.9214008  85.1945133  36.4867584  46.6901514
  90.9367652  80.8099556  51.0220051  91.8070785  80.7450008  50.6288528
  90.3482141  80.9468842  50.2796507  80.3554872  66.9271517  52.8040409
  79.5374290  66.9554710  53.3002377  80.2236048  67.5497389  52.0890427
  27.2943878  79.0406418   8.3581853  27.6572108  78.1640100   8.4851027
  27.5319648  79.5157766   9.1544479  65.1910874   2.6960062  22.4779892
  64.7212240   1.9779657  22.9021049  65.5019113   3.2395433  23.2019997
  42.2235107  83.6480999   7.6074439  41.7015982  84.3677044   7.9624170
  41.7616367  83.3876324   6.8105346  38.5722613  76.2673950  36.8373275
  38.4345222  75.4393244  37.2972846  38.0462646  76.9020367  37.3239350
  72.1143169  13.5333339  66.9012276  71.8303747  14.3881170  66.5772596
  72.5557775  13.1287424  66.1544678  46.8592405  43.2902145  21.4021015
  46.9719410  44.2217684  21.2130451  45.9958458  43.2315826  21.8111730
  67.8928849  11.6537260  37.0044065  68.1486603  11.0162233  37.6710463
  67.6797720  12.4450468  37.4989986  28.8117194  43.0817842   6.3247961
  28.2615900  42.6720476   5.6571847  28.9043951  43.9892960   6.0348606
  46.1044836  64.3107605  30.7386470  46.8280315  64.8117161  31.1151409
  46.1220789  63.4759617  31.2066555  38.4074044  78.1638002  41.8883610
  37.8069663  78.4968042  42.5553036  37.8469849  77.6800442  41.2816143
  12.1818686  85.2870464  53.6092615  12.1603882  85.9834957  54.2655611
  11.2609041  85.0851917  53.4439993  18.8299417  54.2053127  14.9143481
  19.2478538  54.0466690  14.0679371  18.4721160  53.3545208  15.1680064
  56.3911533  68.2428312  45.3251791  56.4361286  68.1488466  44.3736696
  55.4546356  68.2329082  45.5228424  44.8418713  73.6348963  25.7075095
  45.3252602  72.8609705  25.9966588  44.5789623  73.4315443  24.8098683
  68.8737822  36.0410619   0.1504805  68.7079811  36.1399198   1.0880139
  68.2390547  35.3848290  -0.1371096  77.3234960   8.5507750  30.7820153
  77.3524400   9.0660357  31.5881777  76.6533586   8.9780783  30.2485752
  30.5380416  56.8138981  10.6119406  31.2643337  56.6907120  10.0007463
  30.9438252  56.7713022  11.4778256  61.0510874  79.8017359  40.5778599
  61.4677048  80.0873184  41.3909435  60.7369757  80.6101704  40.1728868
  11.1357725  61.3141251  29.1029286  11.9991529  61.5670061  28.7760401
  10.9894228  60.4399586  28.7414670  19.0276134  76.0402298  42.0965958
  19.9138427  76.3981247  42.1489573  18.8131499  76.0671282  41.1641216
  10.7651647  16.5339159  24.9703193  11.3487264  15.7819819  25.0717306
  10.8140489  16.7511915  24.0393877  16.3527143  57.7661037  72.6412439
  16.5275037  58.5382366  72.1031952  16.7741966  57.9575872  73.4790516
  40.8308315  72.6700783  41.6267633  41.2937450  72.9938698  42.3994875
  40.7763958  71.7236567  41.7592621  46.3885888   4.8509192  39.5021963
  47.2892734   5.0911974  39.2847872  45.8666905   5.6050180  39.2280030
  41.4680147  82.3013115  66.2445927  41.6703081  82.9087734  66.9561386
  42.3230219  82.0367908  65.9051466  73.0976057  70.9231663  45.4525900
  73.7118578  70.3135109  45.8615494  73.3114433  71.7729902  45.8376837
  39.2176461  72.3375511  28.0860662  39.4955134  71.4287043  28.2001829
  39.7642231  72.6673603  27.3728251   1.6132991  85.4911804  24.3392968
   2.1803991  85.9824657  24.9336553   0.7350304  85.5954552  24.7053576
  18.5063839  67.3904657  45.9258747  17.8092897  66.7976570  45.6450319
  18.9374697  67.6552391  45.1132917  36.0189049  79.1495554  66.9834075
  35.4570036  79.0030830  67.7443567  36.1286430  80.0997107  66.9460503
  41.7377758  50.4623508   9.9381626  40.9504509  50.9615660   9.7210574
  41.5119410  49.9972725  10.7437253  50.5173322   3.3705019  19.9727345
  50.6654140   3.7029337  19.0874124  50.9903118   3.9797663  20.5395794
  42.3673058  44.1099215   9.6161753  42.9181910  43.3844519   9.9102128
  42.0598125  43.8415194   8.7503576  18.2098210  81.8809700  18.6163902
  18.1193995  81.0638905  18.1260359  19.1334558  82.1146870  18.5241675
  50.6984135   9.0879606  25.5405402  50.8025094   9.7506117  26.2233996
  50.0277814   9.4464373  24.9591780  54.4094154   6.6217398  25.1194429
  54.8809096   7.4330782  25.3082776  53.6136362   6.9062399  24.6699667
  55.5849838  66.4628363  31.4585018  55.2214050  67.3339891  31.2999535
  56.0886574  66.2661266  30.6686592  36.4462328  67.9340696  25.6566715
  36.5607882  67.8974628  26.6062856  37.1732640  68.4750128  25.3483939
  42.1214151  41.8232870  36.2932348  42.8633165  42.1965933  35.8173585
  41.4574814  42.5126839  36.2807178  59.7453737  60.5230379  23.8049293
  58.9038038  60.3071594  23.4031940  60.1866198  61.0716772  23.1564474
  49.5426130  63.7913942  22.2146821  49.1167307  63.9417410  21.3707328
  49.9177551  62.9138803  22.1406937  35.6298169  16.6284918   9.9011540
  35.3009247  16.4684652  10.7857192  36.1815539  17.4058699   9.9877489
  66.9079971  62.5564528  12.3136842  66.5711880  63.3044291  11.8204069
  66.2022543  62.3321295  12.9201829  45.7716179  59.5803738  29.8865032
  46.1124706  59.7957850  30.7546353  46.4421415  59.8961973  29.2807889
  20.7303095  81.2012291  25.8103013  19.9517047  81.6211033  25.4446411
  21.2296462  80.9150696  25.0454426  57.1952677  73.1174421   9.0583670
  56.6852665  72.3099422   8.9944917  57.4909163  73.1426430   9.9684143
  22.1517491  50.6742287  42.0871878  22.8402185  50.2124786  42.5657511
  22.1557736  50.2750635  41.2171984  44.8170090  56.8010855  11.4694381
  44.6183729  56.8673944  12.4034500  43.9626789  56.8401146  11.0395193
  86.7927871  37.6473975  52.4193954  86.5901900  37.8645492  51.5094328
  87.6451490  38.0529165  52.5783396  19.4920647  78.4109211  23.5779524
  19.6221149  78.3632803  22.6308250  19.2918515  79.3317032  23.7462044
  20.3030086  73.8778925  20.3961658  19.7609890  73.2048893  19.9844480
  20.6389451  73.4621954  21.1902547   3.2485268  72.6437140  53.2732725
   2.6907283  72.3228407  53.9818859   3.1368434  72.0024586  52.5714540
  13.7123954  81.9113922  70.4035902  12.9168630  81.7718506  69.8898888
  13.7901521  82.8630447  70.4709673  88.1285457  40.7828951  50.0364494
  88.9615116  40.3153229  49.9750042  88.3454025  41.6885996  49.8153162
  74.9869840  55.6073315   3.7266233  75.0478618  55.2741559   4.6218994
  74.7835272  56.5368874   3.8303163  36.0980082  74.1791773  30.9001112
  35.2649665  74.6173334  30.7260704  36.5423846  74.1641045  30.0524473
  -0.0353076  76.7943907  27.9960704  -0.2726431  77.6641417  28.3176923
   0.3554903  76.9550467  27.1371746  20.0544333  75.9379911  58.7210894
  19.3518555  75.6912899  59.3225479  19.6082926  76.3865089  58.0027390
  50.1615286  75.1459360   1.4502710  49.5526409  74.5451832   1.8799031
  49.7548532  76.0072899   1.5447332  57.2228595  16.1043715   0.6246857
  57.2361967  15.7108854  -0.2477937  57.8491327  16.8262934   0.5714392
  32.8352094  72.8520775  27.7528071  32.0853782  72.3122597  28.0029750
  32.4644232  73.7213373  27.6007199  21.4232612  85.0577164  40.2365875
  21.9061112  85.8792877  40.1465559  21.9336128  84.4235420  39.7330093
  43.6557341  76.3707018  18.4447753  44.3560219  76.9492817  18.7465692
  43.8449812  76.2292337  17.5171959  45.6364536  71.2858391  48.1674480
  45.1323891  70.4876900  48.0089760  44.9748087  71.9618464  48.3139801
  86.3935777  22.4941038  30.6256580  85.7701227  23.1517958  30.3174877
  87.1382162  22.5719427  30.0292635  23.0286765  62.6769257   8.8310689
  23.0497074  62.0286036   9.5349669  23.7791133  62.4559975   8.2794631
  65.8502197  80.7309341  67.9616165  65.1628351  81.3943100  67.9010534
  65.6058311  80.2014065  68.7206316  81.4268346  12.3985950  67.7207241
  80.5735202  12.5123588  68.1392274  81.8546457  11.7116682  68.2319335
  63.5557076  25.2035975  68.6774731  62.7548405  25.3716635  69.1740561
  63.6778375  24.2558741  68.7334967  51.2497044  76.2020636  35.7288218
  52.0409775  76.7108822  35.5521083  50.5372763  76.7388010  35.3815603
  64.8798748   6.9555544  17.4757791  64.1612526   6.7317556  16.8844008
  65.2975270   7.7145552  17.0687008   4.0739183  34.1559767  22.0126438
   4.2551498  34.4003462  21.1050820   4.4914274  33.3011507  22.1184516
   1.7618160   9.1106009  10.9947133   1.1929016   9.1405272  10.2255094
   1.6386776   8.2301783  11.3495803  24.8647285  80.4216099  36.0206175
  25.4720306  80.0119495  35.4045010  25.2074909  80.1908112  36.8840313
  37.4613047  55.3657389  37.9376364  38.1087303  55.4114580  38.6411858
  36.6762042  55.7690382  38.3080387  14.4016445  52.7464294  26.5192556
  14.5658946  53.6892653  26.5013695  15.0714052  52.3977518  27.1075392
  44.7876843  22.8080153  19.1693282  44.1798791  23.4996962  18.9078259
  45.6343326  23.0894636  18.8226211  83.1307908  34.7116064  49.9412632
  82.5764438  34.8596643  49.1750956  83.5230132  35.5658983  50.1217890
  12.6669610  63.0319166   0.8515004  13.3943570  63.2377243   1.4386724
  12.5708079  63.8128757   0.3064381  20.6283550  12.1703600  67.7946854
  21.5312367  12.2707914  68.0962515  20.1688271  11.7825102  68.5394335
  62.5552722   9.8782896  51.6080046  62.9976508   9.0446257  51.7678404
  62.8330275  10.4394888  52.3319769  74.5852709  65.2535963  59.5203209
  74.6727753  66.0042000  60.1078320  75.4457998  64.8347378  59.5370626
  60.4763910   4.5564341  36.7971349  60.6001970   5.4847216  36.9950819
  59.6843931   4.5295786  36.2602425  81.1204406  25.8779596  48.6115789
  81.8049547  26.5414785  48.5254717  81.0377618  25.7401823  49.5551968
  29.0615344  64.8556280  56.3467121  29.5832515  65.1959848  55.6199408
  28.1789112  64.7669840  55.9870577  36.2698317  43.6061478  10.6466150
  36.3019562  44.5604086  10.7143450  36.5078783  43.2958746  11.5202832
  35.3236628  75.7117558  42.9382133  34.6163511  75.6953955  43.5829449
  36.1131167  75.8791924  43.4529591   0.9931259  11.9022631  40.9025526
   1.4069681  11.1376070  41.3028812   1.2041979  12.6254629  41.4930344
   0.6363182   7.5893759  28.9077330  -0.0214500   7.7939104  28.2430983
   0.3871708   8.1218695  29.6631193  17.2201884  81.1562920  42.4492264
  17.6767623  80.3159142  42.4099827  17.1745265  81.4468288  41.5383291
  60.2649164  80.7229614  25.6056523  59.6425343  80.5679893  24.8951197
  61.0176611  81.1328983  25.1795506  12.7688015  84.1508102  16.8388927
  12.2800648  84.6073532  17.5236785  12.0946288  83.7979126  16.2582123
  14.6449113  80.6506348  27.4778485  15.5790234  80.6176281  27.2715068
  14.5926404  81.1916542  28.2657576  16.9197825  26.5447275  74.1326469
  17.2609261  25.7485525  74.5400344  17.6973275  27.0720140  73.9492775
  38.0470109  56.7039585  35.2733850  37.8995013  56.0938168  35.9960175
  38.9767551  56.6096067  35.0662494  79.0937396  27.3266577  38.5283661
  78.1590196  27.4480318  38.6950898  79.3614026  28.1248259  38.0728340
  51.6644761   3.5913157   3.7659007  51.4096209   3.8507437   4.6513253
  52.4973747   3.1337999   3.8807622  61.6654062  68.6176109  29.3715906
  61.5571165  69.0517521  30.2177763  62.5983667  68.4081507  29.3275142
  69.4309923   4.1577124  41.7159843  69.5883938   3.2503485  41.4549160
  68.4986493   4.1868471  41.9307375  76.1814186  10.5293154  18.2023883
  75.9183713  10.3692125  17.2960746  76.2621805   9.6561407  18.5861528
  78.3162185  19.1615366   3.2280752  79.2510196  19.0851759   3.4192553
  78.1789705  20.0961184   3.0733174  68.4055805  70.6044531  36.6985822
  68.7145424  71.2833261  36.0986662  67.4520016  70.6310701  36.6197586
  46.6129446  71.4957809  51.3282871  46.1104584  70.6954432  51.1759853
  47.5271368  71.2232876  51.2493563  56.5487957  78.3373404  22.9267120
  56.5266514  78.8518667  23.7335610  56.6757631  78.9847565  22.2331953
  84.3006747  13.0723603  13.6677482  84.5855754  12.9930861  14.5781257
  83.9451711  13.9588339  13.6043766  88.2586592  34.5624192   2.3307684
  88.1790417  34.9577887   1.4626815  88.7159603  35.2214415   2.8530719
  62.0862028  10.1415991  17.2196758  62.1589753   9.5152163  16.4995480
  61.8403956   9.6092390  17.9762506  41.0268927  66.0847616  41.2863493
  40.4912186  65.6075621  41.9200420  40.8021879  67.0044851  41.4272165
  47.4811459  65.0842714  11.3331223  48.0655289  64.3461466  11.5060437
  46.6343832  64.8062897  11.6823387   2.5431852   9.3482470  35.4418230
   3.0930023   9.1395067  36.1970472   2.9461985  10.1282190  35.0604343
  45.5864223   1.2807917  49.5691586  45.4689726   1.9796156  48.9256620
  45.2851840   1.6616606  50.3940344  45.3012180  76.5413570  26.4584255
  44.8416948  76.9264650  25.7122612  45.2904272  75.5998087  26.2863779
  11.5975189  71.4860821  12.9984820  12.2533059  71.9574928  12.4847245
  10.8333814  71.4367914  12.4241149  14.3197374  34.1569399  37.2606063
  13.9280300  33.8092398  36.4594150  14.9927263  33.5179113  37.4950480
  36.5049028  78.3694839  13.3975410  36.1191964  79.2190695  13.1838429
  36.2959480  78.2373667  14.3222654  60.7278109  63.7232494  33.3094478
  59.9383450  64.0158939  33.7647843  61.3838339  64.3891764  33.5153723
  38.1517386  86.1218452  29.3101597  37.7550459  85.9823322  30.1700449
  38.4211802  85.2483749  29.0261245  76.7388460  34.4758104  49.3663168
  75.8741256  34.7197603  49.0362024  76.5860483  34.2285131  50.2783060
  65.4043102  68.0175257  64.8750162  66.3259554  68.1922054  65.0655127
  64.9299812  68.7161493  65.3257561  27.1158028  67.6544380  51.5231514
  26.8245196  68.2101727  50.8002758  28.0319762  67.8969193  51.6575432
   5.1023798   6.3552641  48.8669443   5.3071814   6.8680548  49.6488190
   4.1484861   6.2761854  48.8754511   6.0442953  36.3354277  73.2417250
   5.9298449  36.9518923  73.9649820   5.3696995  35.6714129  73.3839703
  66.6913768   6.2935614  72.2868252  66.6496703   6.8260740  73.0811310
  66.1848756   6.7863821  71.6412067  68.2773972  79.0305901  61.0605955
  67.6698971  79.4955349  60.4852676  67.7573442  78.8164186  61.8351364
   5.3607512  65.6192684  24.8119664   5.7990551  65.0640821  24.1670704
   4.4942972  65.7815027  24.4389129   2.7204542  10.7384943  42.6926231
   2.8573828   9.9441217  42.1764278   3.3568602  10.6740736  43.4047127
  48.7496710  80.4213810  18.6306739  49.4354391  80.8709717  18.1368887
  48.2713318  81.1241913  19.0705478  10.4509715  42.2007124  73.1846841
  10.0701169  42.6892034  72.4549187  11.3715056  42.0921747  72.9457762
  33.3770490  52.4436617  20.6847334  34.2003465  52.8293705  20.3853297
  32.8566742  53.1902885  20.9813738  18.7872343  26.8891691  34.0876126
  19.5081024  27.2280954  34.6183801  18.2141523  27.6437925  33.9521360
  12.1073370  17.4482798  16.3300622  11.9812517  17.7247309  17.2377563
  12.7700357  16.7593454  16.3793695  40.5931660  15.6777548  40.0076580
  40.1102593  14.8704886  39.8305845  41.4974340  15.3922152  40.1380444
  61.8925190  79.7986078  17.2151446  61.8980455  78.8595438  17.0297873
  61.3963223  79.8790407  18.0297303  26.5564895  81.3664150  40.6146193
  26.7824364  80.9909058  39.7636366  27.2221661  81.0247040  41.2115574
  84.6169301  37.9743074  61.9256592  85.2706977  37.3058104  61.7208815
  84.5287010  38.4787058  61.1169386  28.8507915  72.5011683  67.3798037
  28.1469941  71.9932032  67.7833748  29.1094923  73.1296062  68.0538797
  90.5981370   8.5927271  16.9593394  91.2233993   8.6535048  17.6815486
  89.7545453   8.4400438  17.3850965   8.5271621  75.7737827  32.4971461
   8.6431134  76.4552164  31.8349981   8.1199461  75.0476408  32.0247865
  20.3131485  82.4189854  47.7218866  19.7835922  83.1793404  47.4817610
  21.0619259  82.4509144  47.1264505  70.6505013  83.4828663  44.2898655
  70.9404564  84.2274570  43.7628460  70.7535934  82.7262688  43.7126589
  58.2677409  42.6739000  12.9123461  57.7135536  42.7276777  13.6909449
  58.3880898  43.5838293  12.6407111  13.5572255  76.7269707  15.8071411
  13.6054623  75.7787561  15.6854975  13.2111323  76.8375397  16.6927052
   4.2152767   6.5642237  38.1972551   5.1115351   6.3526701  37.9361081
   3.6775045   5.8980726  37.7691412  83.4569733  34.9431212   9.0458038
  83.9974182  35.7195837   9.1916015  83.8775175  34.2576630   9.5649555
  44.1925335  67.9555559  71.8375397  44.0542603  67.8776550  70.8935881
  43.3478403  68.2478476  72.1800232  48.9984878  10.5888151  42.3457146
  48.7945947  10.6756567  43.2769060  48.6216339   9.7451948  42.0956755
  72.5012895   5.2989840  30.6756473  73.1120035   5.9530043  30.3357601
  72.4190160   5.5087446  31.6059518  68.6120244   7.8418898  29.0680671
  68.1411668   8.6284803  29.3433833  68.9872404   7.4921679  29.8762369
  71.3649130  76.9385147  22.7530837  71.8108749  76.8672132  23.5970426
  70.7545614  76.2012434  22.7416658  40.0665045  55.4374695   9.7407341
  39.7467852  55.0711489  10.5652452  39.3175673  55.9155178   9.3846524
  73.7105656  62.0156431  12.0787132  73.3380795  62.5031710  11.3439989
  73.6929274  61.1020947  11.7935002  84.9146843  81.9066620  20.3017497
  84.4732189  82.6247597  19.8482490  84.2696476  81.1995697  20.3155565
   6.7070799  19.5370935  22.4925470   6.6596298  19.8110651  21.5766215
   5.8592396  19.1272997  22.6641965  79.6258327  13.1261419  51.3661242
  80.5494806  13.1996988  51.6063213  79.3197175  14.0314268  51.3115454
  69.5759111  18.5422785  21.7925861  69.3713807  18.9454825  22.6362827
  68.8005929  18.0221398  21.5814712  14.7440176  20.2620958  43.6835384
  15.6526022  20.0725531  43.9176035  14.2828541  20.2959894  44.5216370
  48.6494064  81.7240143  22.9758096  48.6706448  82.0424843  23.8782287
  48.3008337  82.4586010  22.4707246  73.4524795  25.1562094  32.9661131
  73.0212995  24.7627806  32.2074795  72.8275224  25.0429796  33.6822414
  57.1937132  73.3305645  49.0310526  56.6048622  72.6545811  48.6955881
  57.1981525  74.0036058  48.3504438  64.5385361  62.8551388  28.9154148
  65.0840855  63.6415195  28.9299417  64.6613073  62.4624634  29.7796869
  53.2426834  83.2582664  15.1117384  53.4578800  82.3982716  14.7507155
  52.3895407  83.4703350  14.7330534  72.7706453  33.0002378  40.8892345
  72.3325178  33.3014750  40.0932837  72.1850416  32.3329615  41.2470675
  39.9917746  59.0188694  28.3175254  40.4303312  59.4887400  29.0268373
  40.5675125  58.2776976  28.1293154  84.9948093  28.1346201  47.7576065
  85.0001356  29.0890764  47.6853466  84.2140552  27.9379629  48.2752800
  86.9516298  11.1751246  27.5994802  86.4263793  10.5903601  28.1457353
  86.5149900  12.0241140  27.6687694  46.5847445  68.1000710  30.2748656
  46.5110207  68.1402302  31.2283754  45.8699512  68.6510658  29.9559546
  84.3198081  46.2369417  11.4248610  84.1011068  47.1585440  11.2868214
  85.1436778  46.2566160  11.9117749  46.5240383  76.4642382  67.8616810
  46.9993258  75.7787800  68.3312321  45.6041527  76.3063622  68.0740786
  21.9869924  72.7659750  14.4048655  22.5919557  72.8520775  15.1416397
  22.2451329  73.4618473  13.8004196  63.7351076  84.8633099  56.4723778
  63.7077848  84.0168190  56.0263586  64.1767517  85.4456043  55.8542156
  58.0913445  16.7498468  33.4816360  58.8494178  17.3219084  33.6012602
  58.3557531  16.1433386  32.7899194  73.7608167  17.0844530  43.0289555
  74.6056291  16.9058298  42.6159000  73.6623784  18.0348562  42.9716539
  85.5975601   4.4233965  22.9317117  85.1590845   4.5125460  22.0855308
  84.8838874   4.3856691  23.5684848  55.0057241  14.7493814  47.0844507
  55.5896708  15.4472708  46.7874813  54.3511673  15.1967691  47.6207590
  20.8288527  83.1232548  61.4427805  20.1653719  83.1761932  62.1306896
  20.3275990  83.0176258  60.6341887   4.0210673  52.7948952  16.6319489
   3.3163688  52.9579496  17.2588825   4.8155349  52.7715731  17.1653438
   8.3745604  10.1549601  30.9987450   7.6558094  10.7710718  31.1402822
   9.1658764  10.6692957  31.1584759  30.0942731  83.0078983  55.2695513
  29.7265053  83.8815594  55.1364946  31.0368276  83.1544018  55.3492832
  73.1781673  67.0369434  63.6543417  73.4186745  67.4099541  64.5024300
  72.6291847  67.7059984  63.2454252  44.8183450   1.5205168  58.8135672
  44.9761948   0.6439852  59.1642952  43.8731548   1.6457342  58.8982296
  18.9405802  51.5857641  67.0306549  18.2815245  51.1619512  67.5804314
  18.4660271  51.8365709  66.2381086  65.1360798  76.7897034  32.1424532
  65.3706503  77.5979376  31.6864228  64.2404270  76.9373560  32.4461699
  23.4474230  78.8526344  49.3526554  23.5156918  78.6559486  50.2869368
  22.6338601  79.3503904  49.2715025  19.3388252   8.4563898   0.8030404
  19.7376423   8.1781744  -0.0214422  18.5690765   7.8954195   0.8980619
  61.5870285  77.8200865  55.7292032  61.3112926  78.5528851  55.1785564
  62.3932743  78.1239414  56.1461830  69.1768595  21.0028910  16.7882288
  68.5966417  20.4498266  17.3113990  70.0544878  20.6644224  16.9655418
   5.0747662   6.3591265   3.2584274   5.7237129   6.9561934   3.6307275
   4.8801642   5.7451414   3.9665085  64.7947025  58.5455275  55.7761860
  64.0900421  57.9403687  56.0074091  64.9459696  58.3918953  54.8435831
  28.6293173  80.8296013  36.9812989  28.3247042  81.7047596  36.7413950
  27.8842163  80.4317188  37.4315691  75.5452831  42.0003740  56.5008244
  75.4620893  41.1638490  56.9585714  75.8591587  41.7653982  55.6276116
   2.5806242  75.1630211  35.2953649   2.5847116  75.8064032  34.5866489
   2.6170853  74.3163157  34.8504066  14.9057126  57.0700598  42.5838280
  14.1806257  56.8277836  42.0078230  14.5150483  57.6659727  43.2229710
   8.8708429  11.3849710  59.6962070   9.7083168  10.9348558  59.5854712
   8.9327221  12.1501135  59.1243982  73.6459969  83.3618991  67.3043809
  73.1189154  83.2574050  68.0965284  74.4731806  82.9252880  67.5077615
  23.3812407  44.6839086  58.3290634  23.3953074  43.8423769  57.8731618
  23.1240920  44.4666139  59.2251036  43.7661024  12.0456003   8.0286658
  43.2574388  11.4152502   7.5186151  44.3618354  11.5070795   8.5495651
  14.0453604  37.5046865  56.9305596  13.3914260  38.2018034  56.8793652
  13.6885813  36.8013040  56.3881585  64.8587513  67.6379347  36.0094714
  65.6966591  67.2324038  36.2323761  64.6860838  68.2429934  36.7308044
  29.3051624  36.7799187  28.8401175  28.6290932  37.4236083  28.6284041
  30.1120901  37.1553946  28.4878111  30.0015926  80.7460785  20.3876209
  30.7992840  81.2727070  20.3367496  29.5720744  81.0389805  21.1913347
  22.8390959  49.5069734  73.7977601  22.2066763  48.8262884  74.0278348
  23.4740094  49.4959776  74.5139979  32.0963693  61.0915804  28.5596538
  31.4585590  61.4853764  29.1549301  32.7094960  61.7998219  28.3629322
  31.7650963  25.2946161  68.0057001  31.0927479  25.7589602  67.5071383
  31.7041461  25.6601976  68.8882351  51.2468338  59.2152882  17.7135539
  51.6533279  58.5673428  18.2890224  50.9604502  59.9129677  18.3030069
  45.7680702  75.5152082  39.8985577  45.0876808  74.8553038  39.7650290
  45.6118774  76.1627531  39.2111540  85.6163808   0.9312414  29.9704003
  84.7493621   1.1034273  30.3376317  86.2195798   1.0873388  30.6970429
  10.3438120   1.6643595  23.1684494   9.9514608   1.9193529  24.0034747
   9.6193342   1.6964697  22.5436807  38.3265901  85.4075336  19.0142751
  37.8874540  85.3558064  18.1653261  38.1835341  84.5481110  19.4106936
  65.2695370  76.3493252  37.2914243  66.1419964  76.2304258  36.9160509
  64.6753216  76.2746763  36.5447187  36.8355683  54.5881788  69.3894384
  36.3734034  55.3661768  69.0774069  37.7590207  54.8400632  69.3844209
  30.4970050  81.7776108  11.4024508  30.9464812  82.5957870  11.1907995
  29.8368645  82.0273304  12.0490479  35.6119585  78.6899900  56.2468910
  35.6713796  79.5656252  55.8648443  35.3511357  78.8421774  57.1552086
  38.8411880  77.6316404  23.4784150  38.5402727  78.5320711  23.6005044
  38.4359574  77.3529482  22.6572275  27.3967984  38.2172655   6.5896857
  26.6324815  38.4125971   7.1318072  28.1065073  38.0794786   7.2170287
  42.0755339  65.4519844  20.3318119  42.4456739  64.7443295  20.8594942
  42.8174639  66.0290527  20.1508021  62.7551075  14.5892023   2.9145384
  62.0853230  13.9251398   2.7513301  62.2937414  15.2845358   3.3834597
  77.1988984  25.9805464  32.7144909  78.0835363  26.2786078  32.5028062
  76.9832918  25.3580736  32.0200348  11.9970620  70.9458256   7.5171143
  11.7006195  70.6049538   6.6732180  11.4243865  70.5264950   8.1593287
  27.4331428  23.1408770   1.2707403  28.0591537  23.8619359   1.3371780
  27.3845388  22.7834303   2.1573665  63.2306358  19.7469496  48.1255484
  63.2469245  20.5194448  47.5605583  63.1477400  19.0096258  47.5208092
  55.0111076   8.7356733  12.7740252  55.8700820   8.3726381  12.9898739
  54.4011089   8.0136274  12.9249430  58.1063843  50.9357643  15.5857873
  57.6694298  50.1481247  15.9097195  58.4026432  50.7008314  14.7064316
  41.3279200  78.1087875  43.9393806  40.6760454  78.0703211  43.2395172
  42.1599770  77.9285240  43.5018682  18.5908484  83.2479382  23.2335949
  18.5332680  84.1295338  22.8652263  19.4090176  82.8951550  22.8837705
  19.5886278  55.6172991  72.8725052  18.7558472  55.6309414  73.3442259
  19.9377263  56.5023994  72.9771948  28.7620592  74.5661116  55.4148102
  28.1317282  74.0657091  54.8966265  28.2533336  74.8998833  56.1537504
  25.2384448  57.6667929  62.8072786  25.6920266  58.3678293  62.3392534
  24.9568176  58.0701637  63.6283779  57.3719788  55.7359457  22.6297021
  57.4466944  55.3140688  23.4856606  57.6217318  55.0553942  22.0046377
  66.3125678  27.3691725  35.9709215  66.2776228  27.0992731  35.0532269
  66.6762659  28.2542585  35.9465885  69.7687531  65.0302219  34.1530776
  70.0972748  64.5395136  34.9064064  68.8257313  65.0965929  34.3032265
  50.5239630  80.4980564  34.6901655  51.4738178  80.5903339  34.7642469
  50.3177214  80.8361244  33.8187242  30.7632279  65.8154821  30.6816363
  30.3712130  65.0191259  30.3233433  30.0163555  66.3738060  30.8977175
  65.2817726  76.2735367  50.5170393  64.6303272  76.8823481  50.8651733
  64.9631166  75.4085493  50.7748890  28.7509274   0.5948328  32.9158211
  28.5586823   0.7381701  33.8424969  29.7000419   0.6995462  32.8491235
  22.4883628  80.0206757  24.0465260  22.3287797  79.1492844  24.4090772
  22.0629978  80.0049591  23.1891751  73.8606548  61.3426399  57.1144104
  74.2092848  62.1555614  56.7485523  73.2489252  61.0242224  56.4506149
  41.9750547  79.7038269  16.4731038  41.7545223  78.8715363  16.0549045
  42.5459814  80.1443005  15.8436167  52.8794285   1.4101767  39.5486879
  53.0772396   1.1095881  38.6617017  52.3972079   2.2273802  39.4226742
  87.3645135   4.3980383   0.7189535  87.7142021   5.2378344   1.0167738
  87.1969577   3.9090990   1.5246159   5.5000007  54.7176743  36.9388270
   5.4235643  53.7984753  36.6829705   6.4005339  54.9540663  36.7165852
  71.6557285   2.7867674  34.8887324  71.6680976   3.7030767  34.6122503
  71.4327594   2.3001360  34.0951872  57.1565008  68.6694908  13.2532799
  57.1572113  67.8062630  12.8396785  57.4379635  68.5041714  14.1531038
  88.2414647  23.0836271   3.7354863  88.7158367  23.0049967   4.5631459
  88.5951444  22.3817801   3.1890950  66.9215488  75.9645653   0.3996324
  66.3165092  76.4849567  -0.1289068  66.6534090  75.0582838   0.2480309
  28.5786629  80.3098679  45.3359604  28.6939502  81.0016251  45.9874296
  27.8727365  79.7664118  45.6860352  32.6949000  77.0938969  28.3314848
  33.5066986  77.5742531  28.1687760  32.0469379  77.7739906  28.5154629
  57.2720810  10.2706217  43.0612564  56.5273758  10.8313345  43.2786274
  57.8616711  10.3542875  43.8106728  15.1808023  59.7609949  59.0503550
  15.2147961  60.6110430  59.4890928  14.4718540  59.2923260  59.4907761
  43.9079198   9.0582060  49.9611568  43.7607440   8.7190031  50.8440542
  43.3553728   9.8380827  49.9090052  41.3990307  69.0319920  27.9339242
  41.7810917  68.2462358  28.3248758  40.4772663  69.0031528  28.1903458
  86.0165119  79.0295792  33.2068777  85.7020855  78.1260014  33.2372022
  85.6329441  79.3899441  32.4073529  22.8856802  80.5915546  43.9851904
  22.8247023  80.7834435  43.0494070  23.5765028  79.9321604  44.0499592
   7.8196045   7.7038263  32.3555946   8.1012865   8.5490202  32.0055437
   8.0594179   7.7362131  33.2817006  81.3330432  18.2378172  15.4002309
  81.8788644  18.5541605  14.6803415  81.0190030  19.0332960  15.8301473
  34.6807504  66.2268782  11.5786362  33.9132094  66.7243576  11.8608201
  35.4001594  66.8574429  11.6113245  65.2256306  22.4363883  10.0563553
  64.6715318  22.7960284  10.7490852  65.4715311  23.1956704   9.5279052
  10.2346528  62.9059982  24.9131417  10.0512207  63.4445667  24.1433835
   9.4256490  62.9348326  25.4239368  29.8591152  12.1075605  40.7737207
  29.6245180  13.0333590  40.7096767  29.6061001  11.7373156  39.9280643
  78.8780975  79.3832731  45.6457853  78.0158472  79.1990757  45.2731943
  79.0090179  80.3194618  45.4953003  53.3322430  71.8518353  57.9543972
  53.2156086  71.5322876  58.8491106  52.7087164  72.5737047  57.8746891
  57.9784223  17.2440123  53.6160612  58.0785724  16.4471220  53.0953264
  58.5600516  17.8784822  53.1972599  77.3175165  32.3635077  21.0795331
  77.5742504  33.2710051  21.2431216  76.3727876  32.3504709  21.2330008
  38.6771107  72.9670334  19.1899717  39.0295649  72.1095514  18.9517879
  37.8352666  72.7737808  19.6025038  47.7672195  85.3607845  16.5137470
  47.4625301  85.7336330  17.3410213  48.7219334  85.3778648  16.5805495
  16.3502436   8.9600634  48.5567188  16.5594082   8.3595251  49.2721415
  16.9463043   8.7088751  47.8511381  85.5473634  45.1526426  17.4790227
  85.1345989  45.8339380  16.9482744  86.3714763  45.5425810  17.7706063
  19.1963558   4.1723608  34.8104143  18.4702950   3.5512899  34.8682237
  19.5402222   4.2225145  35.7023048  16.0020762  12.7615141  42.8265715
  15.3894262  12.0411181  42.6785326  15.4761057  13.4400915  43.2497883
  22.4544790   6.0344481  68.2038832  22.9827973   6.5888380  68.7781286
  22.7797606   6.2227701  67.3235703  45.5097342  77.7743626  31.1300445
  45.1787615  77.1127748  30.5225992  46.4489126  77.8163624  30.9499979
  55.5034396  20.1572489  40.9820175  54.8304173  20.7924913  40.7376146
  56.2611910  20.6910681  41.2209225   3.9949875   7.7121710  12.1126556
   3.5274630   8.4768271  11.7765915   3.7165194   6.9929384  11.5457404
  59.1649866  72.8852606  31.2202024  60.0152254  72.8157902  30.7860374
  59.2625284  72.3709393  32.0215702  89.5248958  18.7127184  55.2626896
  90.2855846  18.1871962  55.5105019  89.5091745  19.4267439  55.9000015
  73.4644958  15.4372572  38.6698699  73.4673044  16.1548494  39.3033409
  74.3091890  15.5071234  38.2250714  65.6538268  30.0471090  56.9507790
  66.1714527  30.3256201  57.7062416  64.9092981  29.5798563  57.3296976
  65.5789110   4.6676134  67.0899773  65.7498213   3.7503504  66.8763018
  66.4424201   5.0805353  67.0810175  86.1538811  61.6266672  66.6940865
  86.9264526  61.2560216  67.1206877  86.3080544  61.4905778  65.7592366
  55.9058854  13.1512045  42.1454716  56.2035056  13.1080889  43.0542040
  54.9513194  13.1109308  42.2039032  88.6376878  47.1768641  29.6736288
  88.9429208  46.7940687  30.4961443  87.7243396  46.8989252  29.6044850
  75.9761068  43.1918882  50.7087708  75.6813547  44.0853476  50.8850670
  75.8539792  42.7311968  51.5388823  11.4084845  17.7021288  28.9514709
  10.9244041  17.4467539  29.7367644  10.7785540  17.6000666  28.2380295
  54.0880346  81.0913944  45.9736252  53.5349417  81.8415642  45.7555342
  54.4277239  80.7911396  45.1305962  15.1312257  48.7335904   8.7367847
  14.1982652  48.6873848   8.5277774  15.5067207  49.2703755   8.0388572
  60.4738995   7.5904631  15.3038609  59.6555444   7.7772688  14.8438299
  61.1220642   8.1504034  14.8765683   3.5781031   9.0205931  37.8325629
   3.8365965   8.1002211  37.8809094   2.8304272   9.0908693  38.4260869
  51.6580105  84.6115589  50.3228283  51.8472147  83.9592075  50.9972715
  52.5053024  85.0160027  50.1363993  32.5936103  74.8239803   8.8541228
  33.3205032  74.3335104   8.4703255  31.9144082  74.8125172   8.1797469
   9.8314076  19.3548464  20.7347417  10.1252108  18.4739088  20.5026627
   8.8908463  19.3481802  20.5571604  43.2961055   1.3370203   2.7561003
  42.8883585   2.1457743   3.0657634  44.1880270   1.5931200   2.5213212
  51.2469864  77.3572636  24.3968010  51.1131287  78.1036806  24.9809027
  50.5656290  77.4490881  23.7308049  75.9030962  76.7188978   9.6569246
  76.3171864  77.4595070   9.2139173  76.6090488  76.0825253   9.7704452
  43.3511921   8.0011152   9.4839287  42.8232595   8.7129473   9.1222560
  43.5566005   7.4483084   8.7299728  13.6483936   9.1629862  20.0233626
  14.3081551   9.8466085  20.1400256  14.1407757   8.3437227  20.0743318
   6.6541176  42.4006247  63.2745171   5.8743458  41.8492292  63.2100439
   7.3794107  41.7812418  63.3554649  78.5668107  15.4973101  12.5671947
  79.2043659  16.1071180  12.1958649  78.7475559  15.5047487  13.5071456
  35.1456718  10.2389406  43.4450483  34.2669468  10.0182890  43.7538862
  35.0681763  10.2513193  42.4910688  74.5599030  84.3006723  40.0928686
  74.9587201  84.3499630  40.9616301  73.6913489  84.6867912  40.2057884
  23.0497694  71.3823271  37.9738164  22.4794412  70.7562351  38.4198713
  23.7586975  71.5458727  38.5958338  78.3748218   7.7251123  50.0111532
  79.1186830   8.3218359  49.9285746  78.2519981   7.3720717  49.1299582
  77.4505132  16.3828738   7.0236995  77.9016309  17.2018225   6.8186500
  78.1542175  15.7447846   7.1414879  62.2408792  16.2676310  20.6142426
  62.3746082  17.0322966  21.1742759  61.3141176  16.3033079  20.3774548
  45.9700871  78.9376926  47.6573849  46.5781641  79.5137739  48.1206417
  46.4657784  78.1313944  47.5145149  71.2713814  72.6699305  12.4065924
  71.1837149  73.6156845  12.2878838  71.0798454  72.5260830  13.3333361
  70.5133745   9.7111010  27.6765513  70.2807828   9.1756796  26.9179654
  69.8512026   9.4961905  28.3334923  62.2296667  71.1195040  64.0851927
  63.0973148  71.3001728  63.7235594  62.0848227  71.8197823  64.7214794
  88.6887475  22.9071402  18.3116674  89.4834682  22.3932241  18.1683671
  88.4281513  22.7000212  19.2091203  77.5539705   5.7604860  30.6915450
  77.6444694   6.6385340  30.3213096  77.5918218   5.8947825  31.6385198
  80.7750436   0.1242136  48.4236813  80.8742877   1.0071539  48.7797832
  81.3057443  -0.4270388  48.9987564  89.6513387  21.4481234  39.6058297
  89.7931262  21.2306475  40.5271482  90.1157924  20.7637667  39.1239738
  18.4602814   3.5581469  14.7657180  18.5758143   2.8760408  14.1041946
  18.5589914   4.3789171  14.2832100  23.4635190  24.1035453  66.2639466
  23.4447602  23.2134525  66.6155348  23.1984118  24.0054695  65.3494356
  61.7120218  70.1445436  41.1469746  62.1857834  70.9214783  40.8500671
  62.3134804  69.4188786  40.9799671  77.9470607   6.4017939  52.4329615
  78.0235740   6.6223597  51.5046692  77.6752254   7.2185492  52.8515911
  85.6958839  26.2440275  43.4766436  84.9421951  26.6178774  43.9331770
  86.3794490  26.9090818  43.5583591  38.0005026  63.2061052  26.1474395
  37.7438569  64.0161324  26.5881491  37.3671341  62.5564575  26.4524484
  63.6117002   7.3258184  32.3454857  63.1412741   8.0838655  32.6923227
  63.8481947   6.8157076  33.1201410  11.0874968  23.1581282  50.2774096
  10.6535177  22.8221773  51.0616541  10.5167513  23.8628840  49.9711418
  79.1960355  22.2339224   7.1508968  79.8778888  21.7384790   6.6971922
  79.6636745  22.9561590   7.5703281  18.8489330  77.3022890  56.6887760
  18.0500269  77.0624018  56.2192678  19.2166698  78.0259943  56.1815739
  88.1690856  21.8213915  32.7018762  88.8940832  22.1188997  32.1522403
  87.3894187  21.9550203  32.1628976   1.8116217  25.3053926  16.5654600
   2.7482634  25.4928755  16.6269708   1.6619377  25.1355051  15.6354249
  32.4281621  68.2938576  57.2192240  32.8597689  67.4396801  57.2009850
  33.1039262  68.8971090  57.5285149  37.0697212  78.9707518   9.2566091
  36.2741780  79.1008806   8.7404597  37.3987198  79.8552656   9.4166893
  75.2009078  30.5088781  42.3667908  74.7721883  30.8586668  43.1478739
  75.0761625  29.5618795  42.4288893  47.9057121  69.6343184  28.4669900
  48.3506823  69.1493416  27.7719831  47.4252367  68.9660072  28.9555931
  76.5407515  68.8622093  23.0498695  77.4064207  69.1998625  22.8200126
  76.5149164  68.9003229  24.0059614  84.5366737   5.0291418  50.3798723
  83.9619228   5.5439352  49.8134089  84.9748441   4.4195532  49.7860289
  83.7178155   9.6843409  45.2943945  84.4212743   9.4871592  44.6759319
  82.9138252   9.5627760  44.7893667  87.7851391  52.3850727  27.3616648
  88.0900383  53.1161404  26.8242574  86.8622494  52.5778961  27.5269699
  22.8066521  48.3745646  59.9347878  22.7850323  47.6279711  60.5334187
  21.8856030  48.5713648  59.7639799  72.3937866  18.9882254  46.3574839
  73.2025405  19.4760965  46.5128183  71.9014331  19.0745806  47.1737957
  90.9484788  27.3316931  33.3781266  90.9570428  26.5900682  32.7730227
  90.4752227  28.0185293  32.9085231  46.6873264  72.4387503  20.9475923
  45.8694983  72.8510523  20.6693888  47.2127342  72.3861694  20.1492119
  79.2277575  72.3771191   2.3392020  78.9695978  72.9623652   1.6271091
  78.4033060  72.1346617   2.7607787  22.2806339   2.8204989  55.7518625
  22.1612148   2.0045637  56.2378740  21.3954811   3.0767607  55.4928732
   1.3301612  16.4392073   6.7875126   1.7462279  17.0694001   7.3757103
   2.0376898  15.8477576   6.5309456  22.0415669  38.6276602  41.1319780
  21.4411049  38.0212854  41.5655518  22.5934296  38.9640879  41.8380165
   5.0551395  10.9518599  14.1114044   5.9507303  10.7000803  14.3366861
   4.7728567  11.5080236  14.8375142  26.6835194  12.6544451  40.3239822
  25.7892685  12.3530077  40.4842472  27.1078472  12.6118063  41.1809301
  87.8070089  10.2714037  46.3837910  87.5990316  10.4704165  45.4709005
  88.6171647  10.7515596  46.5550327  85.2125570  18.0553984   9.8198032
  84.7809955  18.1677984   8.9728361  85.1974269  17.1106314   9.9728239
  71.9940853  82.8863621  34.9236488  71.8246317  83.8196659  35.0519228
  71.2938213  82.5937462  34.3403482  89.5889350  16.9610189   2.1848266
  89.6529933  16.4671015   1.3674062  90.4957792  17.1661161   2.4124324
  79.9772664  29.0082621  33.7584853  80.8092662  28.6346506  34.0490222
  79.7862169  28.5570311  32.9362178  12.3772030  14.7217726  31.9360852
  11.4500837  14.9436163  31.8496585  12.7982407  15.1597570  31.1964011
  13.8570242   5.7180761   8.5926706  14.6766262   5.7658648   9.0848076
  13.1732922   5.7664656   9.2608047  78.0471631  12.7832483  63.6848879
  78.0633851  12.2775053  64.4974089  78.8958379  12.6095556  63.2776785
   9.7440952   5.9494984  10.2037227   9.0837646   5.7663310   9.5354074
   9.6493953   5.2368158  10.8356619  75.0851170  29.0065861  25.4121828
  74.3193165  28.4323335  25.4081440  74.7604123  29.8412108  25.0742459
  35.9884596   6.0296768  12.7505744  36.3705945   5.1736510  12.5571227
  36.5418005   6.6513628  12.2777605  18.1126988  40.8221388  22.1597791
  18.3312345  39.9892664  21.7416883  18.4977531  40.7596445  23.0338860
  87.4844292  14.6299684  41.2464762  88.2833201  14.2926812  40.8412027
  87.2880224  15.4300606  40.7591248  14.0913466   1.5521232  57.7539918
  13.9301613   2.4014942  58.1648705  14.3263081   0.9752170  58.4807691
  28.8087273  15.1494205  29.2825675  29.4441533  14.4340849  29.3101406
  28.3888030  15.1300466  30.1425195  32.4145016  85.0917070  69.6434421
  33.2194777  85.2745073  70.1280332  32.5799750  85.4357641  68.7656758
  47.4474643  80.2178304  54.9450967  47.2995482  81.1566203  54.8309669
  47.0982216  80.0243561  55.8150563   9.5364398  21.8932486  28.1867218
   9.6582448  21.2744451  27.4666691  10.2044070  21.6495419  28.8275480
  66.8075068  61.0713054  33.6192036  66.8797899  60.3971411  34.2948580
  67.6863671  61.1301018  33.2445288  82.9594107  83.5714380  32.8932858
  82.7259798  82.8954167  32.2570968  82.4167986  84.3228819  32.6542544
  15.8776844   4.9479526  29.6913123  15.3062284   4.4943452  30.3109169
  16.7628121   4.7800019  30.0146914  29.9601030   7.9769677  35.0374842
  29.2731118   7.8294599  35.6874967  30.5795145   8.5629690  35.4724145
  11.5805495  18.0023563   3.9206094  11.9196808  18.7237120   3.3906394
  11.5424848  18.3554733   4.8094803  48.6385162  55.5610276  14.0867436
  48.4260518  56.2480856  14.7184408  48.0327721  55.7079340  13.3602977
  81.2947402  27.8973460  12.7083755  80.3732423  28.1384826  12.8028476
  81.7607418  28.5005903  13.2873130  24.8705316  62.7048683  23.5141873
  25.6275582  62.9444122  24.0487576  25.1992178  62.7151489  22.6152468
  11.0925412  25.3327060  13.1039584  11.6508651  25.1990056  12.3380399
  10.2259076  25.5135322  12.7399802  79.2242209  51.8681431  34.0742683
  79.7698287  52.4675941  33.5651445  78.3356539  52.0217705  33.7532067
  22.1279335  62.1721983  19.0213621  22.6082301  61.9757795  19.8257041
  22.8060770  62.2494268  18.3502519   0.0935820  71.8079782  39.6522474
  -0.0662109  71.9584526  40.5839443   0.1281146  72.6850570  39.2704487
  22.5664711  40.8216429  15.1094842  22.4445081  39.8930883  14.9116302
  22.6159573  40.8585072  16.0646927  78.3975462  22.2232938  11.7556584
  77.6544658  21.6227746  11.6970289  78.5242490  22.3565722  12.6950276
   6.1729884   5.5726266  41.3434076   6.2329322   6.1312419  42.1183872
   5.2454597   5.5890328  41.1074972  21.6691017  20.9946752  43.2438660
  22.5505519  20.8479738  43.5870266  21.7759800  21.6957283  42.6009560
  48.2260262  85.2413909  56.8322334  49.0820704  85.5939262  56.5890512
  47.5973748  85.8514898  56.4464781  10.1174414  23.0596590  14.3429708
   9.4169325  23.6080265  14.6962571  10.8156598  23.6759639  14.1218603
  14.1287208   6.6142154  42.4126291  14.9937785   7.0128024  42.3175716
  13.5155547   7.3312455  42.2509956  29.2762029  76.1262314  47.8656504
  28.6570285  76.1207454  47.1357009  29.9858979  76.6982214  47.5734351
  30.1019287  12.6362979  47.6889706  30.5013013  12.6333570  48.5588694
  29.1683483  12.7677107  47.8544760  30.4558292  80.2979343  55.6220136
  29.6788273  79.7390144  55.6116483  30.1140945  81.1852353  55.5118129
  10.7062757  21.3623905  36.9149303  10.2064872  20.9998155  36.1835051
  11.3328195  20.6749630  37.1410203  17.3745430  21.9856358  45.0768471
  18.2924402  21.7978549  45.2729034  17.4035513  22.7561259  44.5096350
  26.3608241  22.0865035  38.3427119  25.9993649  22.8461146  38.7994051
  27.0931935  22.4376965  37.8362250  61.7603539  73.8619416  73.6622376
  61.0397314  74.4573014  73.4561240  61.8313430  73.2965272  72.8931472
  87.5798131  24.4657373   7.3092961  86.6483227  24.2525887   7.2533906
  87.6773450  24.8917365   8.1609088  18.4268308  30.9133983   2.0651402
  18.9894986  30.2520776   2.4679950  19.0029991  31.3827991   1.4618792
  68.0727576  72.4543016  72.6278270  68.0406951  71.5275924  72.8653416
  69.0040301  72.6377647  72.5041098  76.8562726  12.8568864  36.0462189
  76.7847411  12.0311499  35.5673933  76.7512874  12.6107061  36.9652414
  40.8365820  70.5736702  59.2706415  41.4375566  71.2892811  59.4779155
  40.9127079  69.9743216  60.0130830  10.4896307  56.2208939  30.6531239
  10.7611561  55.4919100  30.0953722  10.9110522  56.0482025  31.4950347
   9.5686769  37.2453594  31.2377620   9.1588807  36.6171002  31.8323946
   8.8743562  37.4806380  30.6222987  14.1095233  20.4130340  26.9363475
  14.1800082  20.4459000  25.9823108  14.9994862  20.5774379  27.2480679
  50.5347060  29.2784565  72.6266052  50.6192611  28.3476155  72.8330455
  51.3162206  29.4817607  72.1126664  44.3741746  84.0731458  36.0547757
  44.1780193  84.1404142  35.1203084  43.5399218  83.8329106  36.4579391
  11.8751037   4.7619283  34.5764399  11.2378454   5.3603142  34.9663973
  11.4781439   3.8958353  34.6688366  79.3732301   1.2529561  26.2632871
  79.5828680   0.5817760  25.6138253  78.5634509   1.6508758  25.9436750
  56.7017889   4.9416620  26.6689777  56.9796801   4.2158455  27.2277260
  57.1419287   5.7084370  27.0358109  43.6003982  29.0653162  74.2545327
  44.4279300  29.1483777  73.7806924  43.7252413  29.5863550  75.0477324
  70.3284136  27.0514345  45.1109982  69.9810044  26.3182497  44.6030807
  70.4843322  27.7388644  44.4634151  63.6511127  19.7769022  32.7546024
  64.1892115  19.0433443  32.4569893  63.4598700  20.2722645  31.9581890
  58.9197874  18.3093965   0.3982065  58.8014460  19.0556180   0.9858976
  58.4519053  18.5562360  -0.3995343  10.2162266  11.6315103  11.8251276
  10.8028436  12.2405446  11.3765860  10.0406969  12.0462143  12.6697814
  19.9593902  17.9983759  56.7362356  20.3146052  17.7252626  57.5820875
  20.6471968  17.7822971  56.1065817   9.6912938  15.2531600  11.7360747
   8.9881802  14.9564922  12.3138726   9.3461430  15.1235378  10.8527279
  74.0012041   7.0410764  17.4018133  74.7817651   6.8804312  16.8715787
  74.0656415   6.4113677  18.1198299  35.9373283  26.5005827  39.3301344
  36.5896201  26.2959003  38.6601710  35.1947546  25.9333372  39.1226482
  17.2549677   7.6267672  25.5065227  17.7957571   6.9418925  25.8998752
  17.2628975   7.4298024  24.5698404  20.9040952   0.8573194  27.2293115
  21.4035964   0.1773006  26.7773128  20.9002066   0.5822140  28.1461167
  75.4732389  68.7420512  41.9684505  75.3341575  69.5928372  42.3844433
  74.5930870  68.3818377  41.8597746  33.2479262  20.1349521  27.0031714
  33.8177633  20.8529234  27.2789121  32.4483871  20.5661130  26.7013860
  69.8653523   8.0558145  37.7779818  69.4273702   7.9532492  36.9330668
  69.4499723   8.8231730  38.1714964   2.9345730  58.8640953  22.2708273
   3.1824854  58.9590741  23.1904745   3.6330083  58.3331204  21.8880939
  36.4441967   4.7548681  16.3896322  35.6164455   5.1556325  16.6550517
  36.2109852   3.8567352  16.1546803   7.6542300  45.3900194  20.5229950
   8.5066849  45.0298882  20.2783370   7.3124707  45.7680988  19.7127557
  16.4348447  25.0146151  46.2165737  17.2190499  24.8456216  45.6943703
  15.7981288  25.3563380  45.5888414  81.7211337  85.6385093  37.5704765
  81.2538214  84.8868732  37.2059298  81.2375612  86.3997529  37.2497010
  41.4961386  22.5821877  18.4269094  41.8603182  23.2958913  18.9505827
  42.1781349  22.3837900  17.7852297  28.1313181  48.1996250  28.1036758
  28.2155037  48.0308437  27.1652436  27.2022748  48.3923960  28.2299662
  46.7807733  76.8894475  51.5307066  46.9690357  76.1189954  50.9948037
  46.1895464  76.5688055  52.2117898  84.2229734  73.3742523  15.8912635
  83.2890794  73.4265614  16.0945833  84.3268511  72.5266218  15.4588723
  25.5232501  19.6818590  22.9931855  24.9441862  19.7297275  23.7538600
  26.4059711  19.6892917  23.3632970   5.5908692  41.1825848  31.4226794
   6.3529974  41.4036369  31.9579625   5.1145786  42.0078754  31.3317060
  41.5576635  68.8604944  72.3446888  41.1922954  67.9936020  72.5214315
  41.1079596  69.4398921  72.9597457  18.7436891  23.0894995  40.6227112
  19.5546556  23.4281135  41.0020590  18.1283152  23.0653095  41.3554907
  10.0843275  40.0687695  34.9710298  10.4835927  39.4891024  35.6197238
  10.3624284  39.7118640  34.1275167  83.1957642  48.7300253  62.8948927
  83.0567101  48.6585760  63.8392401  83.2443956  47.8237486  62.5907135
  17.8356230   0.5349888  56.8673229  17.6402950   0.9600465  57.7024317
  17.5792050   1.1775186  56.2057829  81.7905091  74.0290659  63.8870642
  82.7072047  74.0484850  64.1618821  81.8276976  73.9283316  62.9359064
  31.3910389  16.7349207   8.5641420  31.3719630  15.7815695   8.6477500
  31.6006923  16.8904400   7.6432234   9.5759600  15.3763211  30.0565600
   9.6335638  16.1483574  30.6194758   9.1107100  14.7283351  30.5856037
  34.3483591  74.1938925  61.5574265  33.8713503  74.9266481  61.9469881
  35.2707100  74.4331789  61.6482210  67.8108610  85.6872807  21.1673069
  68.4163107  84.9612518  21.0171604  66.9424338  85.2863334  21.1311507
  17.5558911  41.5510096  67.8926185  16.9816779  40.9100403  67.4734882
  17.0185815  42.3393809  67.9700855  43.1419312  78.8366978  56.7591986
  43.5733973  79.5331686  56.2642262  42.3284362  78.6725109  56.2822292
  80.6999008  55.3242922   4.5216084  79.7787062  55.3216743   4.7816604
  81.1630622  55.6709909   5.2841777  26.6491246  35.0000191  16.8774438
  27.5152111  34.7026300  17.1561682  26.7711306  35.9247446  16.6624415
  41.5071058  26.5672922   3.4158748  41.7332840  26.9285059   4.2729619
  42.0162344  27.0879197   2.7946144  82.4390254  59.9866867  46.1062431
  82.3725424  60.8335972  46.5473318  82.1787927  59.3492317  46.7711973
  26.4151239  62.4510288  32.8218699  25.4916716  62.4952841  33.0698800
  26.8259501  61.9390392  33.5185194  46.0557604  16.2934172   6.1909044
  45.4730320  15.5357194   6.2414396  46.5902567  16.2377512   6.9830167
  48.8067411  65.8339446  64.9396214  48.0793224  65.5496042  65.4930160
  48.5129474  65.6538193  64.0466091  77.8711907  54.8705292  15.8730924
  78.5779551  54.9928379  16.5069330  78.1257347  54.0919924  15.3777933
  56.4462982   1.3623325  74.0992523  56.3484080   2.3115579  74.1742200
  57.3368929   1.2385789  73.7709869  41.2069798  20.0407505  19.1006684
  40.8582497  19.6416807  18.3035719  41.4769506  20.9185171  18.8307178
  21.7628694  29.2266893  47.3078203  22.4005508  29.8148727  46.9033003
  21.0958624  29.8095512  47.6705933  27.2082758  13.7441492  27.6114511
  27.4505472  14.2487884  28.3879042  26.4521909  14.2074406  27.2509933
  10.0720680  35.4190063  13.3220708   9.1724741  35.5257535  13.6312115
  10.0457871  34.6339369  12.7750731  40.2650166  26.5376592   6.1581284
  39.5921135  27.0763540   5.7418996  41.0511637  27.0835686   6.1445278
  38.8032222  32.1880221   7.1927691  38.0390406  31.7617321   7.5807595
  38.9933586  31.6719460   6.4093500  28.6319828  13.0816424   6.9198102
  29.4031453  12.5688779   6.6777086  28.7663627  13.2948506   7.8432363
  28.2244325  63.3893251  19.1838658  27.2697783  63.3418465  19.2349553
  28.4283686  64.3076944  19.3606102  33.9987445  20.0128198  32.7865601
  34.0607834  19.2624104  32.1955681  33.6186242  19.6550286  33.5888839
  40.6998396  25.9440351  31.6253424  40.1705217  25.8817458  32.4204350
  41.4830732  26.4231443  31.8959546  24.7734833   6.9795197   3.0205429
  25.1248360   7.8404415   3.2476902  23.9386129   7.1671289   2.5915581
  17.2165048  50.6958055  26.0703182  17.4537945  51.6015530  26.2691784
  17.5810373  50.5384111  25.1993561  84.2580739  51.8761396  32.8809142
  84.2967413  52.6483154  32.3165703  84.8941598  51.2699223  32.5012708
  23.1554604  53.6677599   2.1344683  22.9752874  54.5859194   2.3363465
  23.1543851  53.6281347   1.1780894  70.8129016  58.2514858   0.6799586
  70.8568493  58.3257627  -0.2733430  70.2355281  58.9657879   0.9494863
  15.0781596  43.6362267  19.1498339  15.3983080  42.7341795  19.1428971
  15.6379497  44.0841818  19.7840285  24.7232035   3.8384954  55.6090710
  23.8461236   3.7496749  55.9819922  25.3127507   3.5958997  56.3230858
  25.2224970  36.8978572  42.1222782  25.9541726  37.2418880  41.6099072
  24.8483109  37.6670623  42.5518608  41.9527054  35.5715823  14.3789113
  42.8646755  35.4802012  14.6549308  41.9109106  35.1189184  13.5365450
  79.7588987  81.8562643  69.4975710  79.4643457  81.9797836  68.5952330
  79.4397337  82.6301427  69.9617672  16.6705418   3.8638306  17.1385658
  16.5597367   3.5941842  16.2268388  17.1574748   3.1459033  17.5431740
  89.7737487  46.8260145  22.2361755  89.7727982  46.6356850  23.1742597
  88.9942328  47.3646402  22.1002769   6.3757133  19.0539980  40.8478642
   7.2606105  19.3999207  40.9641743   6.1122280  19.3573618  39.9790859
  11.3492787   0.0308581  47.5056219  10.4035747  -0.0359812  47.6375628
  11.6145408   0.7748993  48.0462408  89.7788612  16.1349511  31.7200041
  89.6815329  16.9017494  32.2846103  88.9459295  16.0746837  31.2522173
  15.6380093  25.7314658   9.5024705  15.1868808  26.1504388  10.2353942
  16.0228205  26.4574838   9.0115017  13.8007343   7.8924984   4.6846938
  13.8625503   8.3016336   3.8215494  13.7890100   8.6274481   5.2978355
  28.3003139  35.3353047  40.8665562  28.7121201  34.9543524  40.0909758
  28.3919644  34.6625519  41.5412664  69.0961908  84.3279712  72.7309955
  68.7338828  84.6568124  73.5536917  69.8977135  83.8719480  72.9875847
  25.7664840  80.3168099  49.5523355  25.0504188  79.6884792  49.4591567
  26.1798887  80.0871389  50.3845498  74.1508058  23.3237219  22.9716635
  73.7416307  23.9241099  23.5948348  74.9225799  23.7944508  22.6570010
   4.5769942   3.1093726  17.9533613   4.5696044   3.7217799  18.6889791
   3.7110060   2.7020100  17.9721367  31.2455336  80.6320946  67.5109831
  31.5978949  80.0405090  66.8460766  31.9822827  81.1972802  67.7433584
  21.8262410  24.0257645  31.6234469  21.8000245  23.9572763  30.6690621
  20.9200811  24.2029738  31.8758416  27.7638660  49.9966531  71.9951030
  27.7815174  50.0081598  72.9520712  26.8330418  49.9754607  71.7729569
  23.6631918   1.4732899  44.0372562  23.1090236   0.9261952  43.4806442
  23.6049867   1.0700615  44.9034262  46.7082739  14.2184401  12.4616766
  46.4194298  13.4661436  11.9451010  47.6522493  14.2648697  12.3100460
  16.2256840   3.9787809  71.6515950  16.3337926   4.3762151  72.5156495
  16.4205292   4.6859352  71.0366181  58.4667937   4.6961490  73.9771489
  58.4636561   4.1673271  73.1792975  58.5630341   4.0599338  74.6858088
  29.2088103  41.6800880  24.8805141  28.6359429  42.3692465  25.2168393
  29.6277928  42.0701075  24.1133308  51.5302463   6.8120233  61.0118661
  50.5746109   6.8610183  61.0361943  51.7618562   7.0902292  60.1257572
  19.4839370  37.0842767   9.4985366  19.6693373  37.4519777  10.3626287
  19.1218948  37.8163838   8.9993608   8.1288105  54.5334053  58.8521194
   8.1010681  55.4901981  58.8489914   7.2176850  54.2669725  58.7292528
  15.4297316  25.7454634  43.6608219  15.3542376  26.6053653  44.0744686
  14.6032369  25.6320596  43.1914854   6.4267796  29.9302673   2.8033364
   5.9452480  30.7558012   2.7499184   5.8959305  29.3105340   2.3029746
  34.7383142  12.8869283  35.1881504  35.5032611  13.2333541  35.6475830
  34.0120888  13.4354722  35.4846764  11.2766623  49.7608185  16.4634883
  10.8065534  49.2248392  17.1022046  11.7100549  50.4338503  16.9883060
  58.6443700  20.7934801  70.2908448  57.6901276  20.8500186  70.3404066
  58.9168192  21.6423313  69.9423433  32.1284771  34.2708516  27.9831505
  31.3786840  33.8434863  27.5691438  32.8573179  34.1088367  27.3841763
  10.9846961  45.7418299  10.2688873  11.0555422  45.3965139  11.1588144
  10.4024124  45.1290226   9.8198378  32.3589492  33.5635400  33.4270787
  33.0692220  33.0476809  33.0454564  32.5547409  34.4654250  33.1731105
  86.0309277  31.6114354  15.2914226  85.8968345  30.7657886  15.7193589
  86.6628439  31.4302516  14.5956588  48.8831803   9.3922686  19.0187979
  49.4626042   9.2073416  18.2796764  48.0658313   8.9446043  18.8002336
  81.6299410   3.2270423  61.6405377  82.3793406   2.8748361  61.1603472
  81.8590159   3.1086055  62.5623462  55.6036519  50.4532217  71.0010833
  56.5270828  50.2330076  70.8785624  55.3984045  51.0390322  70.2724329
  66.8124552  83.0086378  23.6244440  66.5282823  83.2007007  22.7308059
  67.7403463  83.2433874  23.6363792  10.7108140  37.1995926  26.0008621
  10.0114036  36.5801573  25.7926345  10.2913773  38.0587697  25.9548306
  29.9778748  27.9264736  45.0628567  29.4454789  27.2227645  44.6919394
  30.8573008  27.7677107  44.7198725  20.2555585  47.8956890  12.7161551
  19.9660242  47.7650118  11.8132007  19.4743335  48.2028866  13.1760991
  39.7477363  72.7387469  36.3982961  40.2941136  72.8781979  37.1717665
  40.0837110  71.9308178  36.0102222  39.2146492  42.3634243   5.7013625
  38.7780261  41.7193413   6.2588125  39.3338299  43.1271839   6.2658966
  35.1476645  43.1202316  18.9266503  34.7388530  43.8579750  19.3792415
  35.8882022  43.5066223  18.4591699   1.7530464  38.1088805  23.6224294
   2.6447478  38.3398366  23.3621216   1.2083249  38.8047028  23.2545376
  12.7989888  45.6951571  24.9080539  13.0550039  45.0594854  24.2397666
  11.8877649  45.9044886  24.7029161  90.8776139  34.5782471  21.8517661
  89.9930292  34.5275760  21.4895868  91.1606616  35.4740119  21.6681290
   7.2146904  70.6797647  25.4102111   6.6363084  71.3625383  25.7501078
   6.6523540  69.9098110  25.3254652   9.7795752  79.7927500  42.2343016
  10.4325322  79.5862813  42.9030657  10.2601794  80.2972461  41.5779972
  23.3575010  37.8457570  26.7476058  23.9066100  37.1199465  26.4511085
  22.5989676  37.4231911  27.1504641  20.0878457  67.3427964  37.5839591
  19.4022969  66.7363788  37.8641605  20.5566863  66.8723489  36.8946862
  29.2411876   8.6609960  23.8031602  28.3815336   8.2409149  23.7756014
  29.6930838   8.3329928  23.0257034  41.0673522  68.0558102  60.7496009
  40.9909164  68.3694809  61.6507110  40.3773795  67.3976772  60.6657467
  30.2753854  45.6730127  10.7974064  30.5402803  45.2614975   9.9747795
  30.9189272  46.3679743  10.9356749  68.7791681  27.1728325   1.0209855
  69.4534492  27.8174520   0.8064113  68.8033438  26.5500617   0.2944836
  80.4835812  36.4539695  43.4800577  81.0043959  36.9498038  42.8482866
  79.5980815  36.4586067  43.1165981  24.7496200  21.1546588  18.2163298
  25.3329444  20.7063150  18.8286638  25.0632215  20.8920765  17.3509192
   7.9069912  37.0318389  15.2941060   8.6747879  37.5977898  15.2139843
   7.1619034  37.6308656  15.2467227  39.7144032  21.6756511   8.7046719
  39.8728871  22.6196241   8.7100798  39.5625973  21.4530063   9.6231580
  11.5949404  24.1941524  36.6205645  11.5505362  23.2464504  36.7475295
  12.3640049  24.3257475  36.0660791  49.8764585  81.4163678  62.3192260
  50.4396699  82.0555298  62.7556858  50.1361822  80.5740206  62.6923559
  64.1698096  74.7951580  29.4826674  64.5624952  74.9428214  28.6223030
  64.5594583  75.4669095  30.0422692  35.0308903  63.4924834  72.2483939
  35.1162078  62.6492004  72.6931704  34.6290435  64.0672796  72.8998229
   4.4326881  86.1983948   6.5318596   4.2627433  85.2605540   6.6202062
   5.1961592  86.2503347   5.9568393  64.6935324  80.3799237  19.3825746
  64.7168706  79.4902647  19.7349858  65.6141118  80.6272818  19.2955148
  82.8534392  48.9459705  39.4903421  83.2488642  48.0858755  39.3485641
  83.1600181  49.4748831  38.7538028  48.9017725  11.0308504  10.7048023
  48.8370848  10.1015389  10.9248686  49.7788668  11.2845445  10.9921598
  57.8441334  40.5223989  11.3201976  57.3516893  39.7493815  11.5961921
  57.5743484  41.2087250  11.9304442  14.0315259  46.7469549  37.3624539
  14.3698287  45.8926916  37.6308179  13.2635641  46.8853521  37.9168129
  20.4782772  44.1149521  31.9589686  20.6555223  43.2984352  31.4919376
  21.1806679  44.7047997  31.6851830  74.3569688   8.3345264  34.0195012
  74.3092576   8.7924099  34.8587251  73.4569756   8.3374369  33.6935639
  31.7109370  38.0986452  10.6548226  31.0112119  38.6485147  10.3023171
  32.4201393  38.1749916  10.0165176  38.3018684   1.6830933  10.7372689
  38.6686015   2.1341896   9.9768400  39.0468717   1.2249882  11.1262965
  26.4191369   7.0112697  51.8689773  25.7033518   6.4955179  52.2403023
  26.0230759   7.8584138  51.6647384  51.7033504  74.8251383  48.3261583
  51.3668941  74.2136996  48.9812705  51.9402979  74.2720764  47.5817058
  79.8216955  10.0369227  11.7160130  79.1845659  10.3253961  12.3695266
  79.4871298  10.3802097  10.8874893  16.6600835  27.5723720  31.4447904
  16.9203699  28.0532742  32.2304201  16.3126290  26.7439175  31.7752028
  59.3294970  28.0394769  20.9279728  60.0713507  27.5524998  20.5691743
  59.1485468  28.7156534  20.2750754  21.1794853  23.8361073  28.8575029
  21.8010712  23.4741640  28.2259464  20.9815884  24.7112966  28.5241699
  24.1197109   4.9249291  34.6369123  24.5564246   5.5178308  34.0253735
  23.5642242   5.4953808  35.1681852  54.5224165  80.1167696  72.9143250
  54.8229621  79.7171514  73.7305426  53.6489438  80.4507582  73.1185908
  51.9479275   9.0518516  48.6320019  51.6724873   8.1578553  48.4291840
  52.9043245   9.0182114  48.6118031  21.2810114  78.7808801   5.1400924
  21.8743209  78.0411185   5.2703738  21.4032200  79.0273405   4.2232746
  75.7853941  15.0260091  37.0911837  76.1024848  14.2109191  36.7021918
  75.6909934  15.6242859  36.3499784  82.3371927  50.3846407  33.7755942
  81.5769730  50.7140350  33.2962227  83.0869279  50.8028316  33.3522224
   6.0406172  26.3471627  42.8379536   6.7400593  26.6176915  43.4327888
   6.4907414  26.1322665  42.0209837  82.6896361  23.7698102  16.6872036
  83.6328397  23.7598205  16.5244198  82.5924364  23.3805704  17.5562704
  55.8058945  25.0683379  10.6878471  54.8801628  25.0628757  10.9312057
  56.1039964  24.1751218  10.8597040  28.7579918  29.2987561  33.3603454
  29.3088245  29.4871855  32.6005363  27.8719163  29.2350554  33.0039096
  85.8615605  25.8808303  34.9334216  86.1702583  25.1874089  35.5166054
  86.5340049  26.5595722  34.9913955  40.8825254  44.3690681  35.8326530
  40.8313322  45.2914381  35.5819654  40.3694534  44.3110943  36.6386485
  66.5892068  50.1929998   4.7401443  66.8134061  49.3636465   4.3180841
  66.6789810  50.0170660   5.6767440  87.3862142  25.4739547   9.7336358
  86.4638943  25.7141519   9.6449614  87.6218990  25.7513094  10.6189370
   5.9085637  29.9541736  44.0142345   6.4671814  29.3098950  43.5793972
   6.0977012  30.7776284  43.5643625  19.6029079  31.3778353   4.9015248
  18.7422121  31.6395521   4.5745093  19.4568872  30.5200481   5.3004104
   3.5067326  49.9322557  15.2039659   3.7299192  50.2517271  16.0782409
   4.3210042  49.5540571  14.8720670  91.0401855  29.3156171  14.1377950
  91.0752063  29.1961741  13.1887221  90.1056004  29.3175793  14.3446243
  10.2346539  41.2641764   6.8849885  10.4998434  40.5755568   7.4946707
  11.0092556  41.8200302   6.7998534  37.3737025  20.8799505   4.7026491
  37.2641373  21.5522289   5.3751588  36.8874526  20.1259637   5.0362533
  21.7718697  29.2835665  40.3642321  21.2710333  29.3411732  39.5505524
  22.6869440  29.3084884  40.0845098  56.6368867  11.2791721  59.3836949
  57.0529820  10.5870239  58.8698611  56.0545860  11.7197887  58.7648115
   9.6796751  14.5418274  22.3381567  10.0628877  13.8407826  22.8653359
  10.3715706  15.2003503  22.2760344  18.7651575  36.3865161  14.2940617
  18.9679444  35.4872155  14.5516741  18.7198579  36.8678808  15.1201773
   3.8655332  25.6687570  23.9866471   4.4075695  25.5429339  23.2078028
   4.3486059  25.2314949  24.6878409   7.1799576  10.9448087  10.7237887
   8.0072325  11.0890162  10.2643847   7.4206328  10.4316735  11.4951503
  64.6222950  79.9477274  40.8930969  64.6871377  79.0469528  40.5758715
  64.0401838  79.8934258  41.6510105  52.9675293  19.6181810   8.9287746
  53.7467194  19.7925198   8.4008563  52.5440121  20.4717469   9.0198272
  24.3375182  39.6158695  18.3328760  25.1682281  40.0728512  18.4644806
  23.7593246  40.2755594  17.9498148  34.8600507  28.8669014  29.6946764
  34.8254418  28.1724334  29.0368414  35.4970264  29.4923925  29.3493485
  19.0247834  52.9843807   0.6646113  19.2711473  52.2905397   1.2762678
  18.3658540  52.5820303   0.0987863  40.4785156  22.4085569  67.3561382
  40.2475214  21.8499374  68.0983114  39.8166108  22.2119355  66.6932297
   9.4439614  40.4109859   0.4761963  10.1941490  40.2663469  -0.1004585
   9.6807969  39.9705052   1.2923563  32.5144243  12.0436561  25.8727956
  31.8044329  12.6380396  25.6301999  32.3143005  11.2300146  25.4100108
  14.2954183  28.2775068  41.2909365  13.8762093  28.7419772  42.0153427
  14.1669655  28.8488626  40.5337811  46.3197517  58.8393450  17.7679861
  46.2975883  57.9334259  17.4596894  45.6275892  58.8848782  18.4275854
   1.3015975  42.6570988  13.9821553   1.5217386  43.0655670  14.8193681
   0.3642957  42.8193998  13.8755918  44.0991306  56.2541342  14.1054511
  43.2283783  56.6473961  14.0474510  44.0753174  55.7371998  14.9107111
  28.8713408  34.1876388  29.4319320  29.4993329  33.7269592  28.8754845
  28.7712407  35.0460076  29.0203309  35.4290366  11.5266609  37.6141334
  35.9647632  11.1548257  36.9134426  34.5270443  11.3870490  37.3257780
  12.7883482   9.3042910  25.8954334  12.2293055   9.1348869  26.6537237
  13.6754441   9.3341470  26.2537670   1.4873531  12.9324162  36.4371657
   1.1347686  13.7687540  36.7412329   2.0821455  12.6556289  37.1341896
  90.6140156  13.8063169   4.2757723  91.2947239  14.2848313   3.8025999
  91.0863270  13.3317423   4.9598289  61.0529827  57.0404415  64.7743914
  61.2047337  56.2195652  64.3060264  60.9923433  57.7018147  64.0850875
   9.1625059  23.4667420  67.1202040   8.6845660  23.0361891  66.4113808
   8.4883589  23.9316368  67.6158142  71.0158987  15.0937120  53.6673901
  71.2645884  14.4779531  54.3567583  71.3279147  15.9427015  53.9805934
  14.2132533  49.7119713  53.3972311  13.4281802  50.2419090  53.2591963
  14.0687108  49.2852020  54.2417479   0.2273801  85.1584560  35.9202695
   0.5908779  84.9429244  35.0614047   0.9916166  85.2344546  36.4915800
  15.1367533  37.5669932   2.2658937  14.5058906  38.2830524   2.1917219
  14.6609235  36.7956948   1.9578068  28.1668329  37.8183651  37.2110152
  27.7690959  38.6703467  37.3903656  27.4641585  37.3052239  36.8120599
  22.1702480  75.7434607   2.4407743  22.2986579  75.9406233   3.3686051
  21.2274480  75.6025839   2.3540989   8.5045344  27.4158359  44.3095732
   9.4349092  27.2620201  44.1453314   8.4378940  28.3614302  44.4423962
   6.0703969  55.0945902  15.8337116   6.9922918  54.8870182  15.9862101
   5.5990005  54.5954943  16.5007377  60.4101966  82.3792858  48.8197327
  59.7796975  83.0937181  48.7286901  60.2792303  81.8431441  48.0376625
  79.6058844  48.8635306  64.0113005  79.5930050  49.3274223  63.1741199
  80.1571368  49.4046955  64.5765362  89.0552627  38.6314607  53.0957460
  89.7828954  38.0103469  53.0641365  89.4558281  39.4795585  52.9046726
  73.0691747  11.4775753  28.3684254  72.1490935  11.2154162  28.3375239
  73.5431603  10.7319808  28.0001068  72.5224844  18.2298160  14.7324562
  72.6495794  18.4501457  13.8096714  71.6817359  17.7728486  14.7559965
  70.6229130  36.1129379  35.7936454  71.2709562  36.1293697  36.4979219
  71.1253086  35.8860064  35.0111294  59.2964626  75.3856672  42.7853537
  58.3735962  75.2268387  42.9836559  59.5098762  74.7436596  42.1082211
  26.9886923   6.5583837  19.4718862  26.7703319   7.4676359  19.2674077
  26.3223934   6.0437936  19.0163910  31.7908621  41.9066858  43.1112957
  31.2926149  41.1002731  43.2442951  32.5560069  41.6346550  42.6045609
  10.3348362  62.7896357  18.2285202  10.9711802  63.0687809  17.5702071
  10.3432989  63.4893322  18.8816512  43.5352707  39.9302983   8.2652736
  44.3105698  40.1222897   8.7927949  42.8085232  39.9614143   8.8874507
  90.1881672  10.4840422  39.3962264  90.0157309  10.8887661  38.5461116
  90.8420450  11.0520577  39.8036981   3.2418504  39.7983646  19.2311251
   2.9237819  38.9211702  19.4446492   4.1792881  39.6821499  19.0764129
  85.2653501  58.6451006  57.4673414  85.8011744  57.9334784  57.1170282
  84.5325152  58.7165546  56.8557215  66.3818494   7.9408884  31.2705135
  65.4519240   7.8666973  31.4849114  66.6130749   7.0856363  30.9081459
  32.6691818  17.4677277  11.0517776  32.4707985  16.6692746  11.5410089
  32.3995495  17.2720253  10.1544309  13.2726741  10.9694910  15.7934499
  13.1415093  11.7626119  16.3130522  14.1175544  10.6281483  16.0865271
  37.5171185  29.9567199   1.0303243  37.0435214  29.3105340   0.5065113
  36.9443345  30.1247406   1.7786017   7.6867584   8.6453954  47.3860643
   8.1050972   8.5518447  48.2419107   8.3372286   9.0987531  46.8497941
  30.0477076  51.4056587   1.3487594  30.5890942  51.7298603   2.0684987
  30.5363035  51.6365528   0.5587001  11.4697707  16.5911007  22.2986841
  12.0688808  16.0873842  21.7477131  11.9859660  17.3433387  22.5883603
  15.8843040  35.3307796  20.2407241  16.3850665  35.2007270  21.0460520
  15.0928497  35.7896423  20.5222797  81.8961982  58.0899382  21.4068460
  82.2985301  58.1025600  22.2752929  81.0929636  58.6007261  21.5075541
   0.9531952  42.9736710   7.9447520   0.7799669  43.8384962   7.5728589
   0.0855164  42.6144266   8.1299806   8.2064444  30.2100086  13.1316614
   7.6153696  30.7919645  13.6093533   7.8277200  30.1513863  12.2545278
  33.5521531  35.9667778  17.7666211  34.1569781  36.5364051  17.2912872
  32.9426432  35.6537342  17.0982397  83.2917122  35.6983829  26.3979125
  83.9999465  36.1690831  25.9585071  82.7602366  36.3858104  26.7994213
   7.4896526  15.8122182  23.4730315   7.3889399  15.4886246  24.3682289
   8.3210450  15.4418874  23.1765985  79.4192929  79.1685564  48.1905127
  80.1145763  79.7402711  48.5160208  79.2398972  79.4890005  47.3065662
  37.1016812  80.0055027  59.0971136  37.1378064  80.8982182  58.7536383
  36.2171268  79.9214506  59.4531059  21.7549253  12.1157646   3.0773458
  21.1287832  12.7736974   2.7751851  21.2430763  11.3094199   3.1409907
   9.7343671  17.6773357  31.4876890   9.4689733  18.5229158  31.8493390
  10.0914526  17.1984088  32.2355866  31.5329957  27.6493979   7.9353839
  31.5705156  26.7020059   7.8039622  32.1726537  28.0025029   7.3170090
  43.8415051  52.2960997  37.7493358  44.0714073  51.9633007  36.8817973
  43.6269665  53.2174444  37.6033044  21.3093781  30.0894642  25.7469964
  20.5643392  29.8561835  26.3008261  21.0980201  30.9625745  25.4164791
  52.3376444   6.0269395  73.9249469  51.9946650   5.1336805  73.9511633
  51.7470816   6.5268842  74.4884361  36.3531494  50.7903862  18.6933827
  36.1037207  50.6625128  17.7781427  35.5320859  50.7102442  19.1788352
  82.4496813  13.7637846  72.1626303  81.6113443  13.3558885  71.9457338
  82.8938312  13.8608972  71.3202936  17.1105802  49.8865795  41.9239235
  17.7285385  49.4635487  41.3277674  16.8048072  50.6568527  41.4449501
  14.2803741  56.4822102  38.1297612  13.3495235  56.6978598  38.0728006
  14.4277763  55.8658695  37.4123836  32.4603057  65.4592705  26.1381578
  32.9392886  66.1324358  25.6547761  31.7967010  65.9436035  26.6293645
  17.8315651  77.3005962  10.6207061  17.1989501  78.0112600  10.5158794
  18.5938025  77.7160120  11.0240138  40.8810759  73.5188484  30.1449466
  40.4234791  73.4753895  29.3053341  40.1817226  73.5698271  30.7965159
  36.7850255  70.5558651  51.2508628  36.2473743  71.3288419  51.0786125
  37.0999758  70.2860920  50.3881571  42.7930450  61.2486124  24.2537045
  43.3265305  61.1632729  25.0438619  41.8903255  61.1917496  24.5668983
  47.7532387  77.6427460  28.0104041  47.4612570  78.5310364  27.8056526
  47.0755911  77.0767117  27.6407671  40.3615808  55.8130026   1.5370908
  39.6976733  55.1251888   1.4883706  41.1477804  55.4138374   1.1645493
  20.2579652  82.2025173  73.5544098  21.1944126  82.2853940  73.3743287
  20.1549886  81.3085167  73.8805862  38.6998630  54.3411589  24.8491311
  38.4994817  55.2671528  24.9855614  37.8440046  53.9205360  24.7665691
  15.4321984  30.8125488  60.4940448  14.5466546  31.1740438  60.5310557
  15.5132893  30.4680578  59.6046731   3.4206116  53.0573320  13.9441621
   3.7672406  52.9755354  14.8326385   4.1922662  53.0047655  13.3802319
  67.4728652   5.4992365  30.8089018  67.8918334   5.3109812  31.6487002
  67.9128953   4.9201654  30.1865768  62.4303959  82.7484148  72.6989615
  63.2565807  83.2041662  72.8600282  62.2859286  82.2279804  73.4892198
  16.1805665  58.9631176  27.1095657  16.3912618  58.4124279  27.8636098
  17.0218778  59.1089392  26.6769433  34.5318818  55.1097107  34.0709233
  34.0843821  54.7790098  33.2920718  35.4596496  55.1019669  33.8355064
  17.6370108  58.0891562  52.0456028  17.9940104  58.7909508  52.5899124
  17.8370678  57.2867918  52.5276995  33.4138298  48.5699224  19.8532593
  34.2634463  48.2178307  20.1186180  32.9713774  48.7742949  20.6770921
  16.1787871  28.9862243  51.9293616  16.1175707  28.2030050  52.4762175
  15.2976063  29.0989486  51.5729282  11.9439733  39.1766620  16.0061622
  11.8278360  40.1028776  15.7943428  12.8650761  39.1016603  16.2555146
  37.5262451  34.6715188  26.9690919  38.2395816  35.3053856  27.0439172
  37.9317451  33.8292122  27.1748114  16.7532206  43.2860994  41.1193037
  17.6000452  43.7179947  41.2314749  16.2195802  43.6135435  41.8433475
  18.6476982  28.0507994  29.6551633  17.9543531  27.8885794  30.2948427
  18.9061880  27.1791053  29.3558836  81.5759239  58.4130144  18.7002623
  81.8674967  58.3720303  19.6110523  80.8854297  57.7528572  18.6398900
  41.9313383  15.8578670  29.0436554  41.2843513  16.5572071  29.1362119
  41.4715338  15.1679778  28.5652542  49.9296427  50.7020664   6.2496185
  49.6893740  51.4533663   5.7073498  49.7416544  50.9831381   7.1451032
  44.5047045   6.5682900  20.8708096  44.3842840   5.6233346  20.7770514
  44.3219185   6.9206202  19.9997830  33.6413029  22.4389307  33.7395308
  33.6703805  21.5360061  33.4231255  34.1990212  22.4381963  34.5174644
  23.3245373  50.4024887  37.0072556  24.1113925  50.8993292  36.7831063
  22.6033425  50.9248161  36.6561341  28.3385015  48.6388206  12.1531796
  27.5762820  48.8773441  11.6255832  28.2937360  47.6850891  12.2212088
  12.7241540  60.5602360  48.6765814  13.5769796  60.3420353  48.3006716
  12.6199841  59.9483871  49.4052935  89.2313275  27.6908112   8.3686364
  88.5938279  27.9796863   9.0216124  90.0483220  28.1178951   8.6262262
   7.6312864  61.9639587   5.6365132   7.7960110  61.0239553   5.5624157
   7.7496743  62.2986698   4.7475892  23.8639688  44.3668413  10.1106286
  24.1492963  44.1349888  10.9944057  24.5307064  44.9774122   9.7961432
  65.0159546   1.8475794  10.4917002  64.4735238   2.0456385  11.2550962
  64.8202487   0.9326338  10.2896976  21.1581039  73.5000849   5.6501949
  20.8413601  74.4013405   5.7105941  20.9514356  73.1159735   6.5022379
  90.0293730  72.3280923  69.9068320  90.1612948  72.6834886  69.0278998
  89.1262673  72.5582187  70.1251725  56.2429810  57.5189018   3.1103840
  55.5622673  56.8949175   2.8583813  56.9225502  57.4138832   2.4445055
   0.1434282  75.1675344  40.6032753  -0.0747367  76.0719300  40.8284521
   0.0189260  75.1200069  39.6553969  40.7743692  78.1149244  40.8760405
  40.8398485  77.1731186  41.0339928  39.8452449  78.3133125  40.9926844
  37.1581984  31.9840789  12.1210861  37.9019356  32.5429296  12.3464143
  36.6455674  31.9308448  12.9276884  24.0663481  44.1012383  33.1852508
  24.3253374  44.9922514  32.9501963  24.0655231  43.6251163  32.3548675
  30.7346272  85.7304287  48.4904432  30.9829569  85.5539608  49.3978691
  29.8365545  85.4066658  48.4206009  33.4015965  39.2646694  17.8393507
  33.5771441  38.4251189  17.4144173  34.2103291  39.7640729  17.7262926
  20.9819841  39.5093703  28.1936336  21.2186742  40.0199890  27.4193764
  20.0625443  39.2804790  28.0577135  18.2277369  38.5884547  38.5838628
  17.4513042  38.8079548  38.0688858  17.8989410  38.0257726  39.2849445
  34.7405815  17.9007673  25.7542205  35.6277180  18.2540071  25.8208561
  34.1951776  18.5332632  26.2218928  25.0053263  49.7590542  13.4235418
  24.8665977  50.4347515  12.7599037  24.2805028  49.1467762  13.2971168
   4.5356730  21.0448877  71.8745950   5.3073696  21.4646904  72.2547035
   3.8857916  21.7453138  71.8172664  25.0740814  15.7577550  36.9956589
  25.6137252  15.5032539  37.7441549  25.0454950  16.7137182  37.0350170
  63.4827302  57.4833744  48.5119316  62.5513361  57.3100250  48.6486385
  63.5033248  58.1677525  47.8430269  22.0022082  52.6259899  26.9776821
  21.7776275  53.3505726  27.5614405  21.3890147  51.9297552  27.2132349
  41.2012053  13.3709323  38.6101031  40.5813980  12.8019631  38.1536484
  42.0625114  13.0417550  38.3531475  28.4068326  14.2569105  36.5275357
  28.4937838  14.4409172  35.5922196  27.7672652  13.5462181  36.5733812
  21.5079641  24.8685718  22.5334167  21.8680954  24.0719724  22.1435833
  20.6408596  24.9578881  22.1379638  52.7018617  66.8434446  60.6627736
  52.9947971  67.2960537  61.4537010  51.7506455  66.9503062  60.6640587
  14.8644078  82.4974346   8.7943584  15.0419939  82.4002266   7.8588128
  15.5309832  81.9596767   9.2218214  66.6675607  27.8706932  10.7587862
  67.2224680  27.9005051   9.9794143  67.1748678  27.3664236  11.3948572
  36.6927842  76.2941487   6.4543623  36.2636880  75.8130790   7.1619505
  35.9775237  76.5560628   5.8746791  78.7472294  71.7696064  67.2925160
  79.4483660  72.4195735  67.2458408  79.1687487  70.9448354  67.0510492
  40.1070833  36.4800048  30.3634095  39.4031596  36.9121194  30.8471441
  40.2506924  35.6581426  30.8326077  46.6743612  37.7405572   5.8975738
  46.2079000  38.5733962   5.8266914  47.3288536  37.8899264   6.5798932
  84.2900224  27.4932853  45.3324935  83.3908529  27.2016517  45.4830859
  84.6092434  27.7429716  46.1996648  57.7072811  49.4964457   6.8116337
  57.2339058  49.2520285   6.0163927  57.0788431  50.0141668   7.3148870
  48.3260345  44.1687202  24.4438386  48.8757753  44.1554022  25.2273154
  48.7691402  44.7753382  23.8506198  24.7461490  74.3086808  70.9412733
  25.2418177  73.6990135  70.3946013  24.7354208  73.8999503  71.8067527
  83.0988884  31.4652085  13.9896178  83.6847305  31.4439893  13.2329381
  83.2990074  32.2942114  14.4242907  35.9812570  52.4628258  24.7974229
  35.1832151  52.0996428  24.4134212  35.7806444  52.5495768  25.7293344
  12.4004153  30.0921194  65.2570877  11.8643502  29.5257608  64.7020171
  12.5534562  29.5762245  66.0487065  32.1431613  23.0549741  16.1837304
  32.9232907  22.9349709  15.6422257  32.4795413  23.1186485  17.0776129
  14.3034256   9.7946334   6.3392371  15.0362957   9.2417407   6.6102403
  14.7105455  10.6201017   6.0763925  10.3201342  80.5141258  28.2588768
  11.0589993  80.5572605  28.8658786   9.6219438  80.0937462  28.7609148
  66.1386345  40.2004640  73.0733888  66.7024611  40.7464616  73.6213107
  66.6855501  39.4505285  72.8394816  56.2984179  77.6753633  58.5517487
  57.1327256  77.6013916  58.0884025  56.5376495  77.9712741  59.4300637
  42.8398514  68.2389259  50.0221920  41.8880987  68.3192635  50.0850010
  43.0026293  67.2959375  50.0447416  21.7563037  12.5147049  70.8273215
  21.3787726  12.6729623  71.6925702  22.2041062  11.6729299  70.9117094
   8.9854819  78.6245768  71.7399309   8.9404638  77.6882355  71.9335002
   9.0944965  79.0409343  72.5949139  25.4609326  75.6861402  37.3351240
  24.6641759  75.1557339  37.3262644  25.2542428  76.4381290  36.7801261
  55.2793598  45.0270033  17.6537371  55.1286602  45.2124453  18.5806310
  56.2297106  44.9413633  17.5780404  76.4573733  67.2450256  19.4300640
  77.2064296  67.3526716  20.0162029  76.8407778  66.9557667  18.6020780
  54.5950028   8.6342978  61.1352301  53.7446042   8.5454153  61.5655231
  54.9274131   9.4806742  61.4342117  65.8222485  59.3278646   1.2966211
  66.4540529  59.0970898   0.6155958  65.9360838  60.2702951   1.4195137
  85.9990589  17.3580861  33.6974716  86.7394675  17.3302543  33.0914569
  85.2537946  17.0544529  33.1791854  14.0789902  46.3806486  56.5787506
  13.1778240  46.1708784  56.8239594  14.0587831  46.4441824  55.6238747
  22.0091844  54.1265059  31.3834524  22.9452848  54.0695477  31.1918783
  21.9273472  53.7967491  32.2783256  25.5003476  59.3431568  27.6034284
  25.0130963  58.6384726  28.0303264  25.0091553  59.5224142  26.8016624
  79.4105215  13.9462844  69.3739614  78.5757573  14.4144289  69.3894884
  80.0567872  14.6163265  69.1512135  43.1698418  36.7130423  20.6565642
  43.4649134  37.4633670  21.1724877  42.8284883  36.0964036  21.3042259
  18.8800156  44.0933228  45.1859713  18.1688273  44.6263838  44.8305941
  19.0079951  44.4261789  46.0742617  17.0121634  61.9232845   1.2485701
  17.6975405  61.9554520   1.9159943  17.4280477  61.4982700   0.4984816
  32.1976066  75.6098986  13.3799243  31.2445021  75.5695105  13.4586334
  32.4865150  76.0385370  14.1855502  25.9212875   7.8899229  28.2051086
  26.6312099   8.4966755  28.4150982  26.3652396   7.0924157  27.9168010
  80.1805158  17.0558731  70.4096091  79.4512756  17.5840417  70.7343865
  80.5796571  17.5935070  69.7255984  38.4458017  47.1229506  35.6669998
  38.2490396  47.8613663  35.0905848  37.6649785  47.0305443  36.2128997
  29.5386529  40.9991312  19.0185404  28.5884833  40.9894180  18.9031613
  29.6652389  40.9589243  19.9664819  35.7654524  32.5300193   7.4858159
  36.2890649  32.2537827   8.2379818  36.2590766  33.2557750   7.1039200
  41.2489196   5.9333395  28.2567930  41.3148137   5.0536322  27.8853059
  42.1526452   6.1770700  28.4570575  15.3218027   8.0647253  10.6698871
  14.7694608   8.6435293  11.1953688  15.7142743   8.6396383  10.0128734
  86.4866255  61.9617884  70.6543965  86.8329667  62.7134161  71.1353720
  87.1197651  61.8146639  69.9517444   6.2587196  42.7756214  12.3385990
   5.4577351  43.2968855  12.2843826   6.7384708  42.9897785  11.5384698
  18.0624831   9.0915781  29.2227197  17.3238111   9.1475666  29.8289061
  17.7940297   8.4371388  28.5778379  81.4460775   8.7830137  34.0875244
  81.6068908   7.9527067  33.6392450  80.9624835   9.3092417  33.4507751
  43.0034634   5.0802588  38.4450984  43.7407764   4.8639082  37.8743124
  43.4084388   5.3245138  39.2773008  20.7003641  27.3299098  36.1644578
  21.1359692  26.4776874  36.1504769  21.2349081  27.8815246  35.5933046
  73.9369868  79.3140810  65.4511658  74.8565053  79.5470612  65.3229419
  73.9128731  78.8999956  66.3138274  25.2686715  49.1928196  22.3792362
  25.8578873  48.8486576  21.7079616  24.5148087  49.5224190  21.8900681
  38.4538436  29.7417974  20.0384283  37.6020646  30.1446366  20.2070308
  39.0507388  30.4816628  19.9264193  19.5400790  14.6934406  67.2482470
  19.1558770  15.0901691  68.0300561  19.7950200  13.8138191  67.5266496
  36.8827248  26.7986989  30.2249789  36.1430764  26.5100884  30.7596350
  36.6389942  27.6771593  29.9332023  41.9326353  57.3281860  41.4383316
  42.5945282  57.1462917  42.1054459  41.1041546  57.0814657  41.8493938
   7.5778371  44.7079468  23.3205152   7.1125114  43.9001179  23.1034470
   7.7450091  45.1228428  22.4742603  19.6803497  74.0907686  61.5488574
  19.7099160  73.2548349  61.0834834  20.4324691  74.0623944  62.1402476
  16.4886451  58.0032349  39.9375892  16.1397755  58.2660580  40.7893229
  15.7147372  57.8952742  39.3847394  14.0615014  40.2734510  63.8055549
  14.7768954  40.7397787  64.2379711  14.4958762  39.7058336  63.1688747
  36.0281062  61.1812639  30.3668714  36.5528631  61.7592144  30.9207988
  35.1573300  61.5787172  30.3632212  29.0268183  43.6353397  35.4137278
  28.3436012  43.3813143  34.7933125  29.2701125  42.8186655  35.8497143
  10.9977591  67.6309681  37.6671815  11.9288349  67.6287699  37.4450898
  10.7237935  66.7201042  37.5599313   0.7922282  55.1209259  18.0463696
   1.1126266  55.6919193  18.7446105   0.1768949  55.6653070  17.5552058
   5.4206818  26.9902778  31.4500976   5.2323669  26.6670871  30.5690098
   5.5063593  26.1992025  31.9821596  47.7092743  65.0857067  36.8246627
  47.4901724  66.0121059  36.7245984  47.0404339  64.6252966  36.3178015
  36.2008762  35.6111956  33.0335855  36.2911749  34.7547770  33.4514642
  35.6676435  35.4435277  32.2565508  70.7162896  20.2443314  19.7023475
  70.2612320  19.7368538  20.3743768  71.5219013  19.7545910  19.5368910
  40.1328421  27.3281837  20.7820487  39.4036841  27.9405260  20.8800173
  40.8759642  27.8783035  20.5343199  79.7152499  26.1854362   6.3770068
  80.3475717  26.9030857   6.4141697  79.6317724  25.9878373   5.4441524
  84.3797884  54.4498634  39.8278999  83.4681693  54.6409130  39.6072578
  84.4366840  54.6093655  40.7700014  37.4287391  73.4810400   5.2101207
  37.2930527  72.7525377   4.6042284  38.1475878  73.9821815   4.8249671
  40.3496763   1.9034647  29.1228604  40.5775949   2.5363230  29.8038769
  40.3798875   1.0548758  29.5646834  27.8742766  47.6539993  25.5868244
  28.5325623  48.0457067  25.0128412  27.5388551  46.9067001  25.0915742
  14.9148205   3.5522596  67.4106035  15.3628853   4.3818132  67.5758616
  14.4719199   3.3508960  68.2349369  40.7103395  65.6119204  17.8807235
  41.1315203  65.4853964  18.7309182  40.5508900  66.5543985  17.8303158
  25.4227591  57.9942226  32.4322677  26.1613202  57.4702263  32.7424145
  25.0215006  58.3384705  33.2302117  23.9159632  45.8802319  15.1258314
  24.3140078  46.5327597  14.5496380  23.2374907  45.4695225  14.5898974
  38.8308263  46.0894632  22.7606678  38.7942505  46.0226297  23.7148333
  39.6104932  46.6169739  22.5872302  37.2116351  55.7743263  14.0322292
  36.8559551  55.4264307  13.2144940  37.1998906  55.0302505  14.6342587
  23.3410335  73.7094879  16.8242812  23.8158154  73.1812477  17.4659801
  22.7988243  74.2964029  17.3513222  52.6729298  15.1165354  29.0666723
  51.8649626  14.8498404  29.5051861  52.4223280  15.2273595  28.1495285
  46.1176682  33.5447025   7.8080368  46.8552208  34.0153551   8.1962758
  46.1725092  33.7428141   6.8731701  76.8045278  21.1803524  74.2163146
  77.2808058  20.7667581  74.9362673  76.4140041  20.4498807  73.7365885
  10.5450416  72.2733879  38.6805129  10.6342530  72.5981617  39.5765018
   9.6160018  72.0594978  38.5946703  15.6106198  34.6382356   8.4135240
  15.8463228  35.3482604   7.8164124  15.5127668  35.0640559   9.2651892
  70.3997365  45.2804899  59.6148491  71.1005751  45.1998663  58.9678907
  69.7361533  45.8186865  59.1833019  90.7820960  31.1727190   8.9477223
  90.6465672  30.4711390   8.3108151  90.3715972  31.9402862   8.5495251
  47.3834848  42.2891188   6.9733101  46.5970898  42.3587036   6.4320463
  47.2440434  42.9189920   7.6804513  23.4543685  21.9234792  46.8039772
  22.9748801  22.7475587  46.7190168  22.8349951  21.3284627  47.2265360
  35.0061049  72.5388401  50.7480953  35.1040386  72.8013365  49.8328159
  35.3306590  73.2877724  51.2480948   2.3863946  37.5098634  45.9692383
   2.6267493  38.0682158  46.7086363   3.0645913  36.8346930  45.9485674
  49.1876364  28.3569336  12.3759937  48.5215950  28.8652539  11.9131410
  48.6897516  27.7889609  12.9639995  33.3782554  66.8505955  36.5850377
  33.3722711  65.8995485  36.6932249  33.4595942  67.1924305  37.4754095
  71.5796232  81.7442703  29.4844031  72.0412731  82.0032406  30.2819252
  71.8944311  80.8588696  29.3022203  15.3573811  33.5482049  18.1091595
  15.6230009  34.1894317  18.7683284  15.8585572  33.7852073  17.3288500
  71.6346978  56.8332725  69.0251384  71.1140822  57.5797730  69.3216649
  71.4804553  56.7935078  68.0812845  67.7009317   4.9315714  12.8678548
  67.9721328   4.1469835  12.3912990  67.4766036   4.6147799  13.7428164
  24.5645239   4.9607538  38.3862996  25.3338643   4.5093893  38.0390000
  23.8211754   4.5092844  37.9864955  19.4201660  37.7436113  25.5888391
  18.4850287  37.7290797  25.7926512  19.8188794  37.1816969  26.2533045
  40.4577589  64.7525311  12.0223439  40.6835365  65.4457378  12.6425982
  39.9117470  64.1489172  12.5260830  53.1636763  43.0620050   0.0503310
  53.5792351  42.2922039   0.4388472  52.2367096  42.9707193   0.2708537
  28.4970665  40.1140881   0.8414432  28.6378336  40.1251793   1.7881712
  29.2060375  40.6510925   0.4875764  46.8617249  50.5262375  10.8462691
  47.3633718  50.4885292  11.6606128  46.1280394  51.1084509  11.0436618
  39.0836620  18.4050071   1.4402606  39.6776128  18.9725089   1.9315815
  39.2884874  18.5815966   0.5220586  50.5321217  70.0907755  12.0653462
  50.1174593  69.2960644  12.4010849  50.6943607  70.6235075  12.8438747
  34.8251176  39.9878263  32.6384544  34.5656633  39.2431235  33.1809783
  34.3249202  39.8805642  31.8294263  20.7846045   9.2399734  48.3143759
  20.8408499   9.2533910  49.2698288  19.8469186   9.1839671  48.1304121
  46.4979649  57.7535248  13.8020980  45.7285690  57.1860409  13.8492143
  46.4218473  58.3242178  14.5667851  79.9119757  62.7221994  59.8282645
  80.2283762  62.5560420  58.9402804  78.9787005  62.5124555  59.7931549
  50.5212736  24.1417933  11.8956757  49.8243046  23.5670877  12.2121918
  50.2297640  25.0230265  12.1295190  16.8033198   9.4739334  63.7700662
  16.5911511   8.6446516  63.3416912  16.7493466  10.1253931  63.0708382
  34.8564672  62.8848219  34.1608930  35.1359081  63.5882616  34.7468305
  35.3290939  62.1125221  34.4713902  26.2976241  27.6348257  34.4862795
  26.2974977  28.1863260  33.7039232  26.1440921  26.7498207  34.1554856
  44.2162274  69.7116559  44.2362592  44.0372597  70.6342523  44.4179652
  43.4843086  69.2423360  44.6365902  24.4343376  35.1267624   0.6026100
  24.6739769  35.5251265   1.4393358  25.1615930  34.5381045   0.4005840
  38.0113769  51.0551453  36.3249135  37.7726126  50.3607416  36.9389367
  37.4217153  51.7779303  36.5396500  29.3187928  46.4649963  35.0672579
  29.3269682  45.5643940  35.3914285  30.2270746  46.6388893  34.8202443
  54.4731712  27.4190068  13.2324481  54.7107124  28.0773592  12.5794721
  54.0208578  26.7389202  12.7333188  37.5992012  18.6425376  21.8520880
  38.0317473  19.3357778  21.3535380  36.8249083  19.0635240  22.2255468
  37.6606297  25.4336834   1.0045361  36.8145704  25.3544164   1.4451420
  37.6662850  24.7200060   0.3666774  24.2639899  39.3543673  43.0162334
  23.4903741  39.1392612  43.5372686  24.6027637  40.1578951  43.4109545
  27.7427053  61.5336180  30.3489780  27.7906919  60.6223059  30.6378388
  27.3360968  61.9960690  31.0818100  24.3271017  14.0630162  33.7644744
  24.0524936  13.8079596  34.6452522  24.9540329  14.7725308  33.9051056
  74.1571542  18.1205343  39.7882223  75.0166484  17.8419470  40.1042795
  74.3095848  18.9876818  39.4126582  20.0788760  52.9979849  49.1473389
  19.1714513  53.2711554  49.2822123  20.0897932  52.6315737  48.2631159
  44.0025330  55.6594419   1.5202203  44.8872566  55.8833170   1.8089667
  43.6161709  56.4960766   1.2613879  32.5630856   1.8810347   2.3101911
  32.8234482   2.7025381   1.8935661  32.9077506   1.1998696   1.7327382
  27.1503711  15.5196357   7.0088321  27.7417445  14.9174118   6.5573514
  27.1961665  16.3280296   6.4983082  17.5325704  17.7884459  23.9427018
  17.0398057  17.7163076  23.1252623  17.6155138  16.8866563  24.2527485
  89.5349687  48.3901215  46.0701132  88.7125326  47.9819107  45.7995701
  90.2067665  47.7454662  45.8479929  46.3280104  74.1881554  29.1656468
  46.6866027  74.4049017  28.3050272  46.7017387  73.3314292  29.3719933
  32.0595098  46.6379404  27.9377580  31.4033651  46.3190460  27.3180699
  31.5533686  47.1008062  28.6054444  29.5860672  48.8398743  31.9841242
  29.7188258  49.7872114  32.0181632  30.1306033  48.4961128  32.6923180
  22.0278788  40.6598663  37.3222113  21.8859625  41.5976286  37.1930027
  21.3252807  40.3905821  37.9138827  16.3269889  79.9999285   0.3457504
  16.8501937  80.7863712   0.1908580  15.4222369  80.2851963   0.2181661
  18.5247397  61.1803102   5.8518505  19.0758348  60.4234886   5.6524861
  19.0832961  61.7508984   6.3797438  69.9256514  79.5172088  50.8440659
  70.1931571  79.3892972  49.9339506  70.4479168  80.2608006  51.1449668
  12.4391258  52.6304245  22.0761538  12.2855008  52.0857716  22.8481579
  13.1031871  53.2605171  22.3558640  41.1191654  37.2719622  19.1527677
  41.8693972  37.1283889  19.7296321  41.4356899  37.8951526  18.4987974
  69.8975960  38.5030651  34.4097662  70.1223008  37.6223516  34.7099018
  70.0448934  39.0611744  35.1733422  14.1390848  53.5333538  19.2159271
  14.5608330  53.2682943  20.0333023  14.8539579  53.5775614  18.5809207
  12.4801520  20.2336828  71.2180776  12.6956013  19.5985118  71.9009945
  11.6691712  20.6433622  71.5192527  38.4315252  25.0236797  22.6100111
  37.7810836  24.4995379  23.0773807  38.3587122  25.8962560  22.9967165
   8.5867385  40.2903978  63.3667538   9.4276742  40.7015173  63.1666550
   8.8058594  39.3790857  63.5610030   8.5605466  65.8104229  25.0935960
   9.3641931  66.2801743  25.3165674   8.3227283  65.3478241  25.8971357
  49.4414520  63.4376907  12.3993993  49.9775362  62.7404976  12.0215535
  50.0744057  64.0495062  12.7752805  36.9746280  63.4604406  -0.0712908
  37.5225663  62.8591108   0.4330905  36.0864115  63.1188869   0.0318867
  29.2500925  52.9271555  26.1205339  29.5770144  52.6009798  26.9589615
  29.7270775  53.7449265  25.9792447  26.0431099  73.9386559  17.8597772
  26.8161583  73.4072733  17.6693594  25.9158254  73.8465738  18.8039970
  28.4828901  13.4318960  16.6825962  28.2491374  12.6203239  16.2321067
  29.4338560  13.4912658  16.5911138  68.9711877  19.4308256  54.1434813
  68.3462807  19.9364542  53.6238050  69.4650742  20.0895762  54.6316957
  18.8340139  61.5364408  40.5816221  18.8567531  62.0679522  41.3773680
  19.3582332  60.7642984  40.7942724  58.1609440  12.6174283  17.4465096
  57.9103994  13.1253815  16.6748619  58.1498003  13.2507646  18.1641400
   2.5858611  55.0330210  34.5334792   2.4555762  54.9836588  33.5864735
   2.1777231  55.8604145  34.7885895  27.9807663  66.2222767  19.3300331
  27.6901102  66.1822891  18.4189057  27.1904182  66.4398766  19.8242319
  23.8945985  73.4047222  28.6337972  24.1284227  72.4978542  28.4359384
  22.9499817  73.3806324  28.7866068  50.5256769   3.8934301  46.9723892
  50.4528901   3.1705069  46.3492298  51.4611408   3.9479708  47.1677494
  44.1949892  68.6791372  12.1798229  44.6755171  68.5084677  12.9898822
  43.7785864  67.8437376  11.9678092  53.9848324   0.3415941  12.5106192
  53.5312911   0.9312033  13.1130219  54.3239137   0.9154581  11.8236482
  62.2687340  67.5809574  14.8256922  62.7255964  67.4607754  13.9931870
  61.3484573  67.6800060  14.5817494  54.6480009   8.7918161  48.7413597
  54.3299552   9.6914267  48.6653996  55.0596639   8.7554049  49.6047497
   6.4544600  56.5677786  25.0124836   5.7810223  56.6895628  25.6817222
   7.2763932  56.5391397  25.5022144  64.0235090  83.1869984  37.3644114
  64.4563818  83.6608982  38.0745387  63.2788801  83.7395287  37.1267533
  25.3362632  58.7516832  12.0836055  24.7520709  58.7114573  12.8407943
  26.1188912  58.2744789  12.3592937  41.3096905  47.0942640  19.0058923
  42.0789671  46.6454840  19.3566620  41.6257048  47.9685259  18.7777865
   9.9329548   2.4142431  44.2274857   9.9833469   3.0166410  43.4853172
   9.8670034   1.5469240  43.8279343  39.4617033  33.6547112  12.5482607
  39.2212677  33.6938858  11.6225791  40.4160547  33.7284565  12.5511670
  87.6882310  27.1553842  74.0266480  87.9957457  27.6510040  74.7856116
  86.7370911  27.2620670  74.0402893  72.1928008  22.5281040  38.4007475
  71.7101664  23.3405057  38.2481000  73.1138678  22.7828447  38.3462093
  53.1932592  69.3726540  26.3266373  52.3689079  69.5262098  25.8650088
  53.7302208  70.1373005  26.1187482  76.5351888   3.2884382  33.2894087
  76.4687559   4.1252302  33.7494063  75.9694406   2.6968168  33.7855387
  49.9880219  58.3344650   8.5494351  50.7029247  58.9709663   8.5508841
  50.2019978  57.7323198   9.2620850  72.2570801  72.6428604   2.5485402
  71.5960217  72.1704817   2.0424882  72.8859568  71.9696712   2.8084731
  43.4803391  63.9352512   1.4081408  43.6742544  64.8526192   1.6006717
  44.2403650  63.6284542   0.9136979  28.2705021  42.5112963  16.8107057
  29.1730571  42.2340107  16.9679987  27.7916265  42.2193861  17.5863981
  52.9429913  58.0104637  14.9890482  52.9774523  58.3759928  15.8730340
  53.5523081  57.2725725  15.0110650  29.9570397   7.5710098  66.0556493
  29.7395733   6.6404192  66.0014245  29.1528920   7.9871980  66.3660756
  16.2308514  59.7085047  34.2970109  16.0849667  58.7854099  34.5039988
  16.9654441  59.7031689  33.6833525  39.9552250  54.8791218  12.7508545
  39.3631935  55.2454233  13.4077835  40.8312321  55.0918579  13.0727100
  41.3878039  38.8199274  60.6502459  40.9590939  39.6587602  60.8199189
  41.0468033  38.2354108  61.3272188  61.9534349  76.0901451  43.1695890
  62.3563385  75.5721998  42.4727154  61.0209656  75.8809805  43.1149197
  87.7377197  31.5141272  13.0550504  87.7789756  31.1148333  12.1860886
  88.1038543  30.8514666  13.6407626  45.4787254  67.3128891  25.6703711
  44.6923208  67.0458508  25.1944661  45.2529001  67.1926498  26.5927458
  31.4049625  68.0524206  44.9431562  32.2098613  68.3323145  45.3790808
  31.6671944  67.2956944  44.4189119  86.2039566  50.2841425  10.5755448
  85.7799911  50.9383488  11.1309743  85.4904938  49.9105453  10.0582242
  40.0496626  34.6369433   5.9670466  39.4020629  34.1064143   6.4311421
  40.8874178  34.2168999   6.1618853  56.8899536  52.4060774  12.1321988
  57.7735090  52.1880102  11.8355250  56.9716406  52.4967766  13.0815840
  81.0726018  18.3652011  67.7330408  81.7538733  19.0330640  67.8108719
  80.3040047  18.8423959  67.4203465  23.4939051  85.3511429  21.7626262
  22.7879834  85.5796051  21.1578846  23.2939148  85.8410549  22.5602603
  17.8457165  41.7075205  15.6202698  17.3823082  42.2209644  14.9585605
  17.1565354  41.2187815  16.0701561  45.3913164  53.4675026   3.5008770
  44.5176506  53.7724543   3.2560536  45.3456783  53.3463669   4.4492835
   6.1046767  82.6132107  11.5573227   6.3185722  83.3279800  10.9576678
   6.3547194  82.9420376  12.4207926  51.8427372  53.1504774  10.2456653
  51.8236828  52.2523212   9.9152374  51.9898224  53.0563736  11.1868048
  24.6620015  13.3963243  68.7693856  24.2187718  13.6940471  69.5638296
  24.9497346  12.5067846  68.9746961   8.2992867  48.1098310  73.1867016
   7.8832606  47.9083101  74.0248805   8.6386660  47.2691766  72.8795159
  86.6871548  70.6116390  49.5328188  87.4672508  70.2596331  49.1041279
  86.3696575  71.2879848  48.9345026  10.1896477  63.8268280  63.2904100
  10.1205349  63.5459089  64.2028475  11.0761929  64.1797876  63.2149649
  15.3748493  17.9393076  14.7859538  16.2192993  18.3885740  14.7499049
  14.7296219  18.6451410  14.8274672  50.2096558  64.4682121  25.8289909
  49.3237448  64.6528339  25.5170488  50.6166124  65.3299856  25.9182262
  31.3154793  33.0415797  30.4874611  31.9981670  32.6370740  31.0227585
  31.7682862  33.3183718  29.6908522  73.6846161  74.2100573  54.6486855
  72.8165245  74.5822716  54.8039341  73.5178089  73.4185362  54.1369247
  74.6060419  69.0961981  18.2473862  73.7821913  68.7072468  17.9537475
  75.0792837  68.3728504  18.6585343  60.8912992  33.2445240  13.6894667
  60.1467037  33.3137727  13.0919588  61.3105679  32.4166656  13.4547389
   2.4339012  21.7651884  64.7933373   3.2271484  21.8140737  65.3268168
   2.6636151  21.1743156  64.0761671  31.6999912  48.0488014  33.5240269
  32.1561074  47.2298765  33.3302307  32.3051095  48.5328007  34.0859914
  41.5489388  68.1381845   8.4304881  42.4591684  68.4343243   8.4266227
  41.6025639  67.2016811   8.6210710  59.3115950  71.0113573  39.9843287
  59.9382353  70.3561878  40.2914190  58.4789896  70.5417299  39.9348330
  88.4928130  74.2541735  68.0907110  89.3738459  74.0176265  67.8007839
  88.3597468  75.1403062  67.7541247  74.4892856  16.4061522  23.5802507
  73.5694477  16.5540766  23.3606005  74.5270225  15.4877924  23.8475060
  20.2198553  30.9638548  17.5476182  20.2352715  30.6248784  18.4426546
  21.0318255  30.6423593  17.1557283  39.1019034  33.6435080   9.8688674
  40.0291300  33.4101439   9.8239058  38.6671066  33.0078578   9.3004227
   6.8634919   0.0450412  62.5517580   6.0950068   0.6154386  62.5693271
   7.3167566   0.2787344  61.7417154  10.4344571  78.6816120  16.6197348
  10.6552553  78.0400276  17.2949004  10.1464367  79.4531775  17.1075511
  44.1714096  74.1934156  20.0675511  43.5291195  73.4837246  20.0726318
  44.0412855  74.6281910  19.2247760  45.6136179  42.1300936  15.2454925
  45.7589817  42.5222492  16.1064887  46.4678288  42.1725321  14.8156679
  71.2917335  14.2704002  60.5549655  71.3729246  14.6732084  59.6904502
  72.0435126  13.6810676  60.6161675  38.1149316  41.5832567  24.2985129
  38.6603761  40.9272528  24.7325397  38.7024188  42.3247719  24.1527486
  29.5219115  32.2406618  69.1578535  28.5783652  32.1292678  69.0414879
  29.8990944  31.4117281  68.8631770  49.2604017  66.4016962  29.8825598
  48.3513355  66.6459799  29.7089148  49.7700739  67.1632576  29.6059942
  33.6379555  51.7606584  71.8764422  34.0404681  52.5846807  72.1506791
  32.7327040  51.9933263  71.6700048  33.6512470  66.8270063  54.5007038
  34.4458508  66.4936066  54.9174547  33.7075806  66.5184641  53.5963488
  51.3368750  42.1589994   8.5906577  51.8086767  42.4838638   9.3575358
  51.8090248  41.3658571   8.3372182  25.4758739  77.4504757  24.7050190
  25.2768445  76.7314386  25.3046894  25.6415582  78.2001734  25.2766252
  24.6516609  69.0627956  22.1069336  24.0315390  68.7929821  21.4295244
  24.7859049  68.2763004  22.6357412  72.5104291  29.1719142  67.2386483
  72.0044072  29.0063278  66.4431891  73.3770628  29.4272129  66.9224182
  57.5396872  78.5806799  17.7456188  56.6439915  78.6329699  18.0791354
  57.5540400  77.7792549  17.2224140  41.3081074  79.7728586   4.0481734
  40.4909563  79.2967415   3.9004841  41.9850349  79.0962029   4.0365031
  36.9405317  73.2222652  55.0128651  36.5397334  72.6187706  55.6384802
  36.8123460  74.0883589  55.3997564  49.4533253  63.6396790  33.7342644
  49.8562527  64.0682220  32.9791284  50.1745653  63.5126781  34.3506360
  28.6326241  70.9979916   3.4324703  27.8072596  70.7897091   3.8702220
  29.1157436  70.1716805   3.4264922  31.1343556   4.5390677   1.0467765
  30.2614861   4.6824621   0.6810102  31.5883522   5.3716253   0.9165142
  40.0373840  63.0791712   0.9912886  39.2109609  63.3469772   1.3931990
  40.4984045  62.6061153   1.6840428   2.0540198  59.7347021  60.4820061
   2.3247393  59.8883724  59.5768356   1.4484366  58.9953375  60.4286432
  64.4377947  70.3330278  13.0413103  63.9317036  70.9343576  12.4949563
  64.1713905  70.5411959  13.9368141  42.1534824  64.0385294  36.7070794
  42.4895811  64.7871304  37.1998930  42.2593832  63.2944822  37.2998810
  26.4269757  79.9276257  25.9379005  26.7591429  80.5560875  26.5789437
  26.9848466  80.0512791  25.1699686  11.0779190  53.7284708  29.4955802
  11.8856823  53.3321857  29.8222423  10.3790343  53.2501698  29.9416995
  14.2284393  85.0438118  28.0345345  13.3175707  84.7532940  28.0808568
  14.6540320  84.4070530  27.4603939   6.3721961  83.7173653  46.1009932
   7.0980084  83.9511490  45.5223989   6.5417320  82.8066254  46.3419056
  88.3338741  64.4454813  23.9416909  87.8406075  63.8436317  23.3842850
  89.1616339  63.9943409  24.1075850  28.0340457  67.0131540   6.7503530
  28.7533998  67.6423502   6.6967750  28.4548593  66.1591959   6.6508007
  41.1406851  50.9123755  22.0893002  41.9538021  51.0279846  21.5976644
  40.9436464  51.7831469  22.4345016  70.0279188  80.3243828  35.5519509
  69.7814608  81.0726357  35.0082588  69.7850180  80.5837822  36.4407372
  55.1311493  54.3282557  11.5735376  54.3170786  54.2247105  12.0662832
  55.7732868  53.8119030  12.0606446  24.7316861  30.4690337   1.0979452
  24.4970918  31.3208556   1.4661835  24.5139694  30.5416560   0.1686671
  45.8173132  79.4398260  33.4344792  45.8575916  80.3215313  33.0640650
  45.9041452  78.8584614  32.6790261  65.0614357  76.6427660  25.2214622
  64.1298294  76.4372730  25.2996564  65.4557657  76.2709522  26.0104418
  74.9015447   9.4217562   4.0276521  73.9847824   9.4015764   4.3021995
  75.1236936   8.5046553   3.8670155  75.1320219  67.1992922  33.2183957
  74.2139292  67.4644995  33.1636119  75.4221487  67.1510315  32.3075008
  32.2347403  24.6664500  13.3480453  31.8376899  24.4753170  14.1977811
  32.4087429  25.6074166  13.3712018  40.6648254  44.5606136  17.3062742
  40.3111839  44.9047947  16.4860857  40.5380487  45.2688074  17.9376400
  69.1790962  54.3327904  23.0438375  68.8285255  54.9184322  22.3727512
  69.1170788  54.8351431  23.8562560  78.9651843   7.9444574  21.8539357
  78.6615487   8.6160921  21.2432504  79.2691680   7.2307085  21.2932229
  57.9671669  65.8702564  16.5877807  58.1270313  66.7491245  16.2438798
  58.7995243  65.4122639  16.4709270  37.3091483  82.1488094  34.9514794
  36.7048907  81.4848995  34.6193027  37.7763033  82.4573994  34.1750979
  60.2053308  56.3568974  22.7933121  60.2592754  56.6213036  21.8749356
  59.4967365  55.7137775  22.8161669  14.3034708  74.9740744  39.3954611
  13.3928037  75.1686287  39.1739511  14.7062314  74.7316074  38.5616589
  26.7597604  63.9692736  24.8016500  26.6429996  64.6388149  25.4756784
  27.5907135  63.5488844  25.0230503  69.0847608   0.1281427  15.2581108
  68.6271569  -0.5671335  14.7854292  68.4062358   0.7765554  15.4462492
  23.4551954  79.0186691   8.8293535  23.6189723  79.0695477   9.7710645
  22.6615763  79.5369339   8.6959237  32.0344285  51.2661401  65.2554378
  31.7999486  52.1919195  65.3201959  32.5304917  51.0882513  66.0545025
  62.5606489  58.5655594  34.8645782  62.0276976  58.8787985  34.1337729
  61.9242191  58.2760143  35.5183053   6.3375667  37.5927869  68.1078420
   5.6409887  36.9397775  68.0401001   6.6665915  37.5001375  69.0019283
  28.6149359  75.1456499  40.5306149  27.8039002  75.6247711  40.3606415
  28.4807062  74.2930794  40.1166868  65.5281469   6.8802237  13.2372260
  66.1694189   6.3000464  13.6475861  65.9094759   7.7544092  13.3185840
  14.8787292  13.4172510  54.6314049  15.1746222  13.8212656  53.8156557
  14.2675837  14.0520834  55.0051880  40.7145452  52.8812075  33.3950973
  40.4777098  53.7234020  33.0067039  41.6242552  52.9922247  33.6713791
  21.1753106  41.3537741  42.6184225  20.9348106  41.9682026  41.9249725
  21.3094950  40.5214977  42.1650600  78.0932236  76.6640234  35.1043797
  79.0122652  76.4370251  34.9627256  77.6713657  76.4912415  34.2627072
  41.5943384  48.3783960   6.2425786  42.1899271  48.4340096   6.9898462
  42.1703959  48.3527470   5.4785556  43.0509949  67.3969984  24.4042087
  42.8007030  68.1142855  23.8218927  42.2240448  66.9692039  24.6264076
  38.2361889  84.9712849   6.4979321  38.9563942  85.5608559   6.2744439
  38.5896873  84.0942574   6.3493097  45.0253296  78.4210539  41.3033104
  44.4856119  77.7205515  41.6696835  45.5097961  78.7670803  42.0528316
  33.6716962  61.1331129  14.9132657  34.2869878  61.1625385  14.1806114
  32.8306150  61.3816786  14.5298183  30.7862020  43.2536364  22.9774261
  31.7389321  43.2151937  23.0614376  30.5852985  44.1892433  22.9549432
  72.9683515   0.5301451  12.4692512  72.8733369   0.2592348  13.3823836
  72.1036216   0.8610319  12.2263694  44.7815847  75.6775618   3.5919783
  44.7890902  75.1480484   4.3893439  45.6877661  75.9681654   3.4889093
  73.7098074  50.5234337   7.7278155  73.3827209  50.8641338   8.5603845
  73.9869642  49.6292114   7.9272652  12.0562327  75.9534121  38.1822371
  11.1029184  75.9645176  38.0967927  12.3539782  76.6825104  37.6381850
  17.1687722  82.8028107   0.4597456  17.0290434  83.1867886   1.3253476
  18.1187403  82.7081490   0.3902281  35.1953030  78.4273577  28.5078311
  35.6818414  79.2005014  28.2218981  35.8498740  77.7295446  28.5366011
   2.7538061  66.6699457   4.4120130   2.9660559  67.4701452   4.8924965
   1.7992127  66.6787004   4.3419698  62.8814650  62.0969343  32.9403949
  63.1675529  62.0754671  33.8535881  62.0812511  62.6220512  32.9523778
  49.5121717  61.2913322  30.6011510  49.9260521  62.1473312  30.7115889
  48.9303064  61.4018536  29.8491859  46.5169844  46.0677218  17.8918505
  45.9565171  46.7990469  17.6324785  47.2685918  46.4809488  18.3167756
  55.4014111  30.8838773   1.0477019  54.8000956  31.3692641   0.4828551
  56.2725258  31.1652923   0.7680567  67.4752426  61.3542128   4.6591204
  68.1557846  61.4020824   5.3305417  66.8094206  61.9782639   4.9480385
  42.5563574  33.5295677  29.5577598  42.3386288  33.4859824  30.4888487
  43.4188128  33.9440227  29.5326138  31.6926217  62.8443098  21.1158013
  30.7376790  62.7805662  21.1316943  31.9392061  62.9751015  22.0314002
  43.6652037   2.1313738  17.1450806  44.5861503   2.2244238  17.3888659
  43.6530730   2.2691130  16.1979198  36.3351536  81.2263203  37.3930168
  35.6944227  80.7400513  36.8741393  36.9298148  81.6050720  36.7455912
  11.5084246  45.9539930  67.4771539  10.5689362  46.1284391  67.4209151
  11.8325308  46.5906660  68.1142065  17.9438388  55.7798624  38.9384508
  17.1349239  55.2780628  39.0388680  17.8661191  56.4896059  39.5759916
  81.7339325  72.4563646  51.9216394  82.4974060  71.9318724  51.6803074
  81.5341282  72.9644108  51.1353779  24.5082688  70.9352112  27.5240636
  25.1018524  70.2294397  27.2676015  23.6451602  70.5225849  27.5558615
  66.6855215  83.8765304  66.2461165  66.1276005  83.9446752  67.0209149
  67.3387240  83.2166069  66.4786241  28.0618262  83.8016033  37.9397202
  27.5343871  83.8810635  37.1449089  28.3437276  84.6962261  38.1305385
  54.7472477  85.7326317  51.9173479  54.5762014  85.9450436  50.9998178
  55.0798798  84.8353004  51.8974686  61.9447947  72.9277229  16.3520837
  61.8259716  73.5153770  15.6059110  61.2008476  73.1143141  16.9247544
   2.6736888  50.8055019  10.4414630   3.5727080  50.9158659  10.1319134
   2.7259120  50.0945807  11.0802841  45.3379849   4.5194141  66.1511693
  44.7418431   4.4134466  66.8925330  45.9656123   5.1813642  66.4412287
  73.8109493  40.3661728  28.3045149  74.3117189  40.9652901  28.8581586
  73.2329082  40.9357548  27.7968955  31.0675287  31.0454226  12.0127821
  30.9931064  31.7879796  12.6121998  30.9285927  30.2764726  12.5656331
  33.2613575   1.4622282  34.6029305  33.8255521   0.6915545  34.6659636
  32.4445453   1.1311983  34.2294788  41.0121250  56.7909575   3.9532799
  40.2452946  56.6580439   4.5105362  40.7059383  56.5821886   3.0707306
  11.9756201   7.2919027  66.1152026  12.6624755   7.3556558  66.7788300
  11.4916590   6.4991991  66.3467840  27.4395990  65.5230331  16.1303055
  27.6006103  64.6872425  15.6923985  26.7343783  65.3367281  16.7501307
  20.3893328  79.7406435  11.2660015  20.0634980  80.4147053  11.8624127
  21.3165259  79.6530962  11.4870954  25.9789256   2.7423374  63.0005250
  26.1659888   3.3394567  62.2761724  25.0324944   2.8087608  63.1273684
  14.9985445  65.5345201  19.7771776  15.4035568  66.3050175  20.1753402
  14.6999204  65.0100183  20.5201149  17.9003239  50.8644629   6.5613878
  17.6191354  51.6798782   6.9764376  18.4669662  51.1445856   5.8425820
  56.1815691  79.5222425   5.0616729  56.1085749  80.3092861   5.6015515
  56.0227013  78.7996244   5.6689769  40.4084063  71.3724279   3.9720562
  40.6375551  70.8038044   4.7071716  41.2339449  71.7894125   3.7253985
   5.6304483  16.5910315  16.8925941   4.7499542  16.9179987  17.0771277
   5.6903105  15.7727884  17.3856735  30.3402691  34.9672674  34.9423409
  30.8588772  34.4608282  34.3172073  29.8229103  34.3120932  35.4106593
  31.9950843  72.4958420  49.8482180  32.8252363  72.9722929  49.8569393
  32.2009850  71.6636896  49.4223547  77.8534365  44.9038410  38.0260849
  78.1121635  44.1623259  37.4788666  78.6797333  45.2619600  38.3504486
  36.1104178  60.8646774  35.5318832  36.1428905  61.2083387  36.4246702
  36.2291598  59.9204016  35.6342554  20.4158163  71.2025023  45.0685644
  21.1477733  71.6786051  44.6763992  20.8157134  70.6768465  45.7613850
   2.7574047  20.7902336  37.9429674   3.4122035  21.2664628  37.4324036
   2.7836028  19.8991311  37.5944233  12.5301341   8.4385768  74.3846019
  13.0696276   7.8765623  73.8284377  13.1571272   9.0114109  74.8261593
  46.8435144  61.4421892  23.0978680  47.0027685  60.5987120  23.5214448
  47.2786903  61.3695765  22.2484088  16.2794912  66.4105463  22.1651125
  16.1509526  66.2279749  23.0959058  16.7519641  65.6466627  21.8342233
  21.8378380  27.3443405  71.1368022  21.4339570  28.1577007  70.8342284
  21.2269190  26.6586820  70.8668247  49.7726440  36.1917686   0.7958684
  49.4012403  36.0212731  -0.0697087  49.0190172  36.1823988   1.3859448
  39.1598153  45.3356934  33.5707712  39.0907216  45.9769011  34.2780972
  38.6027455  44.6093607  33.8506722   5.4915452  76.7103004  19.9673176
   6.3424909  76.3049841  19.8004615   5.3227991  77.2419024  19.1893995
  63.8569209   4.2899298  46.2993670  63.2799050   3.6828493  45.8359718
  63.9068314   5.0562643  45.7279968  14.5728758  37.1958391  64.7912971
  14.7120741  37.3294775  65.7288453  13.8325051  37.7629892  64.5758459
  73.5097790  67.1247387  16.3599944  72.9157448  66.7413902  17.0052838
  73.7230206  66.4009476  15.7710266  38.5500622  69.0609980  36.7299247
  38.3367944  68.5012197  37.4765182  39.2898989  69.5889997  37.0300698
  59.8119545  58.0245638  16.6245997  60.2882099  57.2363424  16.8856168
  58.9156103  57.7241278  16.4744866  36.0095024  82.9020405  29.6394014
  36.0541224  83.5375404  30.3538156  36.0307336  82.0500088  30.0750828
  55.5062316  75.4924719  69.4507730  54.7563242  75.6365292  70.0279358
  55.1458524  75.5656974  68.5670332  90.9253926  23.7097112  72.6589777
  90.6524701  24.6039239  72.4537200  90.7252450  23.6057750  73.5892301
  60.2411366  51.1545753   5.1343995  60.0459623  51.8713999   5.7379740
  59.4076157  50.9735775   4.6999845  14.5258216  36.1746637  61.1936602
  15.3504208  35.8983079  61.5935299  13.8692931  36.0317031  61.8753943
  60.2541205  12.2102808  20.5297828  60.3043124  11.9717001  19.6041536
  61.1513039  12.4466776  20.7651806  42.7933359  52.5893450  14.5859277
  42.4046898  51.8363237  14.1407931  42.3688841  52.6058006  15.4437160
  66.6200829  76.0310984   3.1360084  67.0729065  75.6878376   2.3657149
  67.2303486  76.6673183   3.5088775  30.0874686  76.2270689  51.9682264
  30.6741929  75.5562115  52.3174191  30.6680965  76.8466091  51.5263319
   6.7354517  14.1641497  25.6618166   7.3808889  13.9877485  26.3463068
   6.4814644  13.2980227  25.3431654  41.1188459  47.8580379  11.8766677
  41.2152719  46.9946432  12.2785187  40.2867365  47.8115082  11.4058578
  25.5062747  54.1745615  28.0481195  26.0456634  54.4168758  27.2954082
  24.6314120  54.0419245  27.6830769  41.7549849  84.6816158  48.2549095
  41.6317749  85.6290436  48.3133650  42.4279499  84.5685577  47.5836658
  82.6535130  42.6360464  28.5969853  82.2863770  42.7258492  27.7175689
  83.5855865  42.8246355  28.4878206  53.4311434   1.4548658  36.8585682
  53.8372704   1.7049574  36.0286593  52.5375172   1.7927336  36.7993188
  30.7134175  70.6560183  28.2568073  31.1041880  70.1549053  28.9726400
  29.8865533  70.9795332  28.6143899  22.1461991  70.3363077  68.7006936
  21.2268237  70.0926153  68.8083902  22.5192145  69.6342222  68.1676171
  53.2301136   2.1495127  28.3248401  53.5675117   3.0449747  28.3482456
  52.7649328   2.0470594  29.1551065  40.6880089  23.6553740  23.8095975
  40.4637894  24.5473169  23.5442901  40.5930647  23.6577868  24.7620749
  26.8972901   9.8425714  72.1849558  27.8000382   9.8258916  72.5027682
  26.7201308   8.9401619  71.9194395  51.7628452  18.1133436  41.0127640
  51.3087889  18.9545797  40.9639120  52.4917480  18.2691168  41.6133213
  38.3781981  51.3485432  16.1977661  39.1900897  51.7537594  16.5025032
  38.4623098  50.4278278  16.4456403   1.8935927  84.4334888  38.3370185
   0.9855326  84.4506073  38.6392832   2.2621211  83.6425209  38.7304425
  24.1578603  67.8937483  10.3650677  24.4971156  67.6139498   9.5148623
  24.1509962  67.0962763  10.8944273  37.7841640  85.7731056   0.1745342
  38.1988525  84.9144173   0.2577761  36.8537307  85.5796528   0.0600652
  51.2537003  52.6037169  17.6287186  51.8347263  52.8988886  18.3297968
  50.5806637  53.2821321  17.5738597  86.4850875  12.4783968  20.0358272
  85.7949706  13.1321501  19.9236858  87.2776243  12.9914164  20.1937032
  72.9406166  80.9729862  36.6980362  72.7332163  81.6035271  36.0083652
  73.4036160  81.4860725  37.3603106   7.7152542  33.3297960  57.2880969
   7.3532752  33.7659160  56.5167329   8.5439042  33.7803213  57.4511752
  76.6606161  20.8278822   7.0164615  77.3173305  21.4234900   6.6556233
  75.8233329  21.2511610   6.8266702  42.7815676  60.1718855  13.5840344
  42.0217896  60.4507494  14.0951157  42.7552176  60.7179594  12.7983248
  87.9912397   7.4571871  23.9071083  87.8588363   7.9997324  24.6845102
  87.7264139   6.5788054  24.1801143  49.7084483   5.9982943   1.4646865
  50.3085288   5.2685331   1.3111457  50.2528664   6.6757177   1.8658642
   2.2443703  54.3541471  71.2683702   2.4939612  54.3428937  72.1923881
   3.0352477  54.0812818  70.8033056  75.4696771  15.4322599  58.4059000
  75.6818315  14.8196005  59.1100836  75.5702135  14.9194883  57.6039124
  68.6386299  83.0813694  37.3035955  68.5235834  83.1615162  36.3567209
  68.9886045  83.9299393  37.5750256  75.2239752  59.3995142  36.4970112
  75.5958605  59.2319536  35.6310678  74.2855597  59.5024300  36.3388395
  65.9147263  72.8277493  38.1945515  66.6355610  73.1708717  38.7226510
  66.1771774  72.9999733  37.2902894  27.9355316   0.6701254  22.8790450
  28.3408909  -0.0291372  22.3662615  28.2742672   1.4777063  22.4926424
  80.6944656  76.0935736  35.5484033  81.6347218  76.2609816  35.4840922
  80.5656815  75.7930326  36.4480257  31.9005513  69.8909950  48.8078833
  32.3363376  69.1816902  49.2803383  32.1874237  69.7862148  47.9007149
  47.5882292  80.4542828  35.3589272  46.8312025  80.0558758  34.9294877
  48.2067156  80.6211567  34.6476912  62.3744392  82.5381374  24.8468661
  63.1875849  82.5393486  25.3518629  62.6432943  82.2964859  23.9605522
  62.1506691  60.6532860  28.9880180  61.6477633  61.3341856  29.4348884
  61.7657614  60.6066608  28.1128573  64.2918301  52.8536987  17.7425826
  64.8526716  53.4391642  18.2514215  63.8749313  53.4233379  17.0961034
  64.2521667  72.4134350  23.5962391  63.7994003  71.6554451  23.9659476
  64.1013432  72.3461151  22.6533961  18.7216214  26.9464056  66.3187573
  17.9994181  26.6395656  65.7705781  19.1649321  27.6051609  65.7842014
  42.5695229  76.9569445  11.3442373  42.6034594  77.9108143  11.4164388
  43.2320070  76.7427492  10.6873763   8.7339144  12.3394751  16.9310617
   9.4653444  12.8287863  17.3076510   8.8370781  11.4521288  17.2748685
  19.7408322  53.3920900  60.6569872  19.0131119  53.0319730  61.1639151
  20.2767256  53.8536970  61.3019476   4.6126585  18.8454794  58.2513571
   4.9232988  18.1350397  58.8126087   4.6218710  19.6183180  58.8160467
  51.5989351  70.8272886  28.4479070  52.1533775  70.4075432  27.7901506
  50.8148956  71.0918474  27.9667401  76.1766386  85.6930161  42.1313715
  76.6848326  85.9959412  42.8838444  75.6140661  85.0036144  42.4841738
  77.4922153  12.4579691  54.0113640  78.4483549  12.4878096  53.9776421
  77.2267124  13.3740114  54.0926361  76.9086981  75.9699106  51.3823891
  76.7847490  76.1385632  50.4483509  77.8585100  75.9655046  51.5010023
  37.4043655  75.4306269  12.9227245  37.0298576  76.1156082  12.3688483
  37.9509878  75.9027147  13.5508728  66.1918068  65.0684738  11.3780439
  66.1211777  65.2854919  10.4484499  66.7749119  65.7375669  11.7365682
  44.4308880  69.7495500  51.7738292  43.9821890  69.0883581  51.2468312
  43.7820843  70.4435770  51.8905256  14.5102337  13.8451187  63.9082692
  14.6253804  14.3606845  63.1100437  13.7313107  13.3146755  63.7405107
  27.2174549  70.7707691  32.5458741  27.0888376  71.6020012  33.0027604
  26.5477467  70.1915073  32.9094386   7.5333003  21.9712965  65.0379143
   7.0315817  22.2516910  64.2724786   7.4993995  21.0151235  65.0093887
  37.1876836  73.1391907  35.6705642  36.8601251  72.2445297  35.5782557
  38.1402111  73.0498743  35.6398177   7.3588332  71.4568377  39.0257168
   7.0907077  72.2683048  38.5945940   7.6571520  71.7332506  39.8922229
  63.6532688  73.9812708  32.2377563  62.9412222  74.2176485  32.8321886
  63.6499071  74.6708059  31.5738535  46.0680246  82.3793983  43.1280136
  46.2763882  82.6869488  42.2458458  46.1428547  81.4266872  43.0734253
  26.7821198   9.7314142  46.0426855  26.3839893  10.5530523  46.3301373
  26.0656147   9.0971254  46.0657597  64.6799108  13.9215921  25.2127123
  64.4034501  14.4528269  25.9594321  64.1700550  13.1152319  25.2905869
  33.0084944  70.9361982   4.7417569  32.4380255  71.5993404   4.3531191
  32.6113057  70.1020622   4.4913748   8.9490775  36.9345800  61.6291795
   8.0353097  36.7198888  61.4416406   9.2319802  36.2595216  62.2460208
  32.8302840  46.6591875  69.8321367  33.1371668  47.1210901  69.0519420
  33.2255200  47.1345846  70.5629012  84.2252847  10.4440378  64.4040108
  84.6489927  10.5501722  63.5522842  83.3519622  10.1111864  64.1972494
  59.9701691  79.4986534  36.3475204  60.6034517  79.6906662  35.6559181
  60.4968214  79.1393423  37.0614982  28.0077314  70.6893539  24.8365164
  27.6366925  70.6199312  23.9568901  27.5992966  71.4714146  25.2077150
  55.3351212  77.3342037  27.0931339  55.0747871  77.5947523  27.9766345
  54.5446968  76.9497585  26.7141080  10.7239657  27.9821276  10.8036029
  10.9751968  28.1711363  11.7076981  11.5003901  27.5749754  10.4193854
  69.5266226  35.4079954  65.1792404  69.4307593  36.3570921  65.2583871
  70.4339865  35.2370397  65.4316006  82.4115276  62.9551411   1.1986754
  82.6136971  62.0562220   0.9392498  81.6382027  63.1849289   0.6835125
  47.5607204  65.3233957  25.2904916  46.6369104  65.3169918  25.5410290
  47.5766230  64.9176645  24.4236803  28.4411597  73.9208794  23.3713722
  29.0264916  74.0479088  24.1180182  29.0222430  73.6807346  22.6496363
  42.9717922  84.6697330  30.2874660  43.8608456  84.5043182  29.9736881
  43.0497408  85.4595280  30.8226180  12.6305370  15.8055471  45.4400253
  12.5258284  15.2230429  44.6877289  13.4927969  16.2026381  45.3172874
  60.5895138  62.2557831  30.4395556  60.1298809  62.9436255  29.9580622
  60.9816027  62.7075672  31.1868095  82.5755092   4.2954897  35.3709602
  83.4526464   4.2879843  34.9878049  82.7270242   4.2994093  36.3160849
  51.5092278  81.8237400  43.3231306  50.5715704  81.6441059  43.2541800
  51.9200230  81.1751842  42.7514076  83.3492088  72.5935793  28.8014102
  84.0740299  73.2182503  28.8268590  82.6357079  73.0357218  29.2614698
  76.9571372   4.2121481  41.6073751  77.5412151   4.9567007  41.4633989
  76.5347310   4.0717291  40.7599735  43.4207821  83.3704567  20.8427835
  42.8440332  83.2304096  20.0917983  43.8094950  84.2315483  20.6889510
  31.5704942  73.7513542  32.7358627  31.0256195  73.4087753  33.4443712
  32.3186183  73.1553555  32.6994419  81.0963345  81.3180447  44.6587133
  81.1769009  80.3653812  44.7052240  81.9975662  81.6371918  44.7052574
  65.8228589  35.6762306  65.6673250  66.2640430  35.3824750  64.8702708
  65.0743289  36.1836902  65.3536079  64.5544120  24.1430162  36.4896727
  65.4898139  24.3457769  36.4775491  64.1238829  24.9930643  36.3985586
  38.4290772  14.6803450  59.9658680  39.2501335  14.4300245  59.5422649
  37.9543476  13.8562082  60.0739431   1.9760855  73.2847309  28.4015250
   2.5406512  73.4987736  29.1442728   2.2317370  73.9058399  27.7195430
  68.1102228  78.0650091  52.2811413  68.6213541  78.7048197  51.7855453
  68.4346771  77.2156572  51.9818592  59.9976015  72.9375410  22.0020080
  59.1009378  73.2180500  21.8188715  60.5289745  73.7188482  21.8489218
  53.2514620  82.8148556  11.3118601  54.1286182  82.8500938  11.6934180
  52.7526855  82.2574234  11.9091189  25.4112033  21.5347997  59.6336362
  26.3572529  21.6804592  59.6349892  25.1444748  21.6847793  60.5406067
  40.7792950  77.7957630  18.5511303  41.4391375  77.6382828  19.2264366
  41.2855339  77.9863930  17.7614403   0.3678090  84.5864170  60.5995021
   0.2291448  83.6394422  60.5840418   0.9933479  84.7484462  59.8933301
  72.1042442  76.2511349  39.4044232  72.8607988  76.8369246  39.3779016
  72.3543787  75.5116367  38.8505220  82.4611970  11.3427328  14.9215114
  83.1053182  11.8857073  15.3759611  82.5016996  11.6346811  14.0108180
  52.8342056  85.5975437  11.5855932  51.9360542  85.6831932  11.9053185
  52.8615570  84.7322941  11.1771572  81.1080456  78.7076902  55.7204914
  81.6558266  78.5550690  56.4904737  80.3679085  78.1108522  55.8309937
  76.2697124  80.2830029   8.9604479  76.7393208  80.9238720   8.4266114
  76.0777330  80.7454777   9.7762251  51.5017697   3.9425444   1.0664139
  52.2870275   3.5229754   0.7149023  51.5340682   3.7622904   2.0059341
  66.3920498  61.4686871  53.4004831  66.5472794  62.4132109  53.4038353
  66.5886688  61.1968279  52.5040102   2.6838522  16.0008310  37.0065522
   2.0081739  15.7210039  37.6241159   3.1550961  16.6959547  37.4658680
  82.0317336   4.8449682  57.9823446  81.4633151   4.0914129  58.1413555
  82.6016685   4.5679258  57.2649574  65.9919497  12.3537706  59.8881340
  66.1681506  11.6386103  59.2768049  66.4962956  12.1300005  60.6703091
   8.7990057  72.8860950   0.3397400   8.9856732  73.6508417   0.8843032
   8.5277092  73.2520056  -0.5021258  23.4514885  20.1260447  13.0481410
  24.2011433  19.6051287  12.7602267  22.9498463  19.5343184  13.6088967
  82.5962396  57.6087514  61.9221601  82.7763696  57.3599569  62.8287420
  83.4391923  57.9120771  61.5850291  38.4211493  71.5852928  45.6126642
  37.9051375  72.0185995  44.9328041  39.1007948  72.2202778  45.8387327
  73.7145015   5.3815054  38.8565922  73.5030815   6.0915731  39.4626737
  72.8684589   4.9863409  38.6461592  63.0202675  70.6634188  18.6334956
  62.5249147  71.0539722  17.9135489  62.4189043  70.0272131  19.0205765
  69.7632858   5.3720640   6.3220704  68.8324329   5.3825163   6.0992789
  69.9302789   6.2380766   6.6940337  17.2391348  15.2798246  28.2229280
  17.1326571  15.0118326  29.1356564  17.5175982  16.1942648  28.2727289
  71.9045734  85.2419949  22.7211595  71.4192104  84.7954178  23.4148598
  71.6764879  86.1657238  22.8257561  76.9098902  82.4752522  60.9127283
  76.6743231  81.6448593  61.3264751  76.2258196  82.6196480  60.2589464
  62.6416298   3.8862299  73.7775755  61.9706007   4.5620989  73.8732672
  62.2362968   3.2238173  73.2179785   8.2763844  35.6371664  25.6839418
   8.2098846  35.8586763  24.7551012   7.3969631  35.3453611  25.9241366
  79.9346563   0.3567575   9.3989938  79.2423126   0.4300856   8.7420964
  80.6132528  -0.1679350   8.9742136  90.6555939  42.3550224  40.1311588
  90.0534153  41.6434002  39.9138975  91.4525700  42.1523428  39.6412826
  53.6831617  66.5257311  43.8922167  54.0521240  65.7379246  44.2915344
  53.4850740  67.0992279  44.6325493  77.3352098  82.4200630  24.2788768
  77.5371552  81.5804386  23.8659835  76.6554546  82.2140789  24.9205422
  44.4865322  62.3951054  42.7463579  44.2944908  62.5976515  41.8307543
  44.6217155  63.2489729  43.1572866  14.8612337   1.4860510  54.2079782
  15.7704144   1.7489313  54.0647268  14.3514662   2.0722746  53.6487675
  71.7413160  22.8942179  18.3535302  71.7372629  22.0868277  17.8394020
  71.9620010  22.6118731  19.2411160  65.7748219  18.1548952  24.1603518
  65.8030411  18.2398867  23.2073498  65.5583259  19.0333628  24.4728518
  50.1147890  79.3572235  54.8743677  49.3248892  79.8954153  54.9257803
  49.8226643  78.5413218  54.4679260  60.9107351  70.2162027  22.2048163
  61.6100550  70.2481174  22.8576303  60.6448698  71.1290121  22.0938039
  81.7428703  61.1451189  71.7301363  81.1094089  61.1578981  72.4476287
  81.7433376  60.2371255  71.4271927  43.0470896  62.5913763  29.1851711
  43.5449409  62.3169327  28.4150720  43.3686638  63.4723425  29.3768096
  28.0094031  40.6482736  71.9184384  28.7491969  40.3958551  72.4709072
  28.2422808  41.5159456  71.5880558  77.0370075   4.1259169  23.1991577
  76.1356088   4.4476484  23.2134366  77.5667068   4.8868441  23.4371448
  38.4570503  82.9067707  32.7433968  39.1738868  83.5042763  32.5304174
  38.3139586  82.4080276  31.9390249  73.6140796   1.1912321  43.9848900
  73.2443162   1.1183523  44.8647738  74.1640493   1.9738649  44.0202761
  52.7367210  77.4192667  46.2198782  53.4770441  77.8727674  46.6229773
  52.1851635  78.1211805  45.8744383  56.9439173  82.9521275  34.3699384
  56.3375664  83.6915874  34.4119954  56.9334698  82.5832844  35.2531624
  26.2136555  76.6975927  15.1678526  25.4481339  76.4130640  15.6671047
  26.4534044  77.5391388  15.5558610  82.6797506  13.3567308  62.7619505
  83.0210420  14.2492079  62.8188324  82.4575302  13.1273150  63.6642933
  21.7163706  86.1491394  48.0011654  21.0408068  85.5519581  47.6798964
  21.7871428  85.9506702  48.9348841  81.4689417  23.1849567  63.8594994
  80.9315748  22.5772420  64.3675861  81.5643115  23.9510290  64.4254253
  89.5760175   9.2074560  12.5583363  89.9476501   8.8034128  13.3424735
  89.8965141  10.1091742  12.5786924   0.2219944   4.1561960  59.2316484
   0.6547670   4.2013144  60.0842381   0.5958443   4.8837256  58.7344885
  85.3031036  18.5171770  25.6650996  84.8300144  19.1769194  25.1579905
  85.3404781  18.8775038  26.5511036  33.6052227  75.0183868  18.5047054
  32.9077172  74.6867085  17.9392791  34.3990612  74.5931196  18.1803620
  73.9443990  22.0048498  15.5869853  73.2380887  21.5161490  16.0095060
  74.2627498  22.6003908  16.2653828  79.1347980  75.3644705  29.0153646
  78.5068655  76.0867262  29.0322423  78.7031364  74.6838284  28.4990025
  59.1600990  13.0121914  69.4091139  60.0572014  12.6790729  69.4307927
  58.6148787  12.2428051  69.5734370  42.1540928  84.5082378  27.4859762
  42.5090361  84.2704487  28.3425403  42.6012182  83.9262676  26.8714786
  67.0025921  60.1346540  17.2995687  67.5733137  59.9085855  16.5651262
  66.1918831  59.6550608  17.1293616  89.9055835   5.3816866   7.4823457
  90.5919477   5.3232836   8.1469679  90.0302383   6.2432646   7.0843786
  11.1004809   6.5665380  69.5224721  11.7840365   6.5811483  68.8525680
  10.7537201   7.4586860  69.5303274  31.9874501  73.1976271  22.0251179
  32.5618458  72.9306316  21.3074732  31.1032534  73.0285978  21.6997671
  29.4628453  55.3962278  33.8072419  30.1361275  55.2742577  33.1378770
  29.3253708  54.5215130  34.1708517  35.4798726  61.1271040  74.0054331
  36.3597706  60.7792226  74.1503204  35.1934174  61.4216558  74.8699630
  34.2173651  50.0653116  73.9443297  33.9554385  50.6135789  73.2047172
  33.8167599  50.4837362  74.7063476  50.7928514  70.1737213  47.9275703
  51.0087204  71.0083103  48.3436155  51.6035843  69.9046278  47.4956751
  57.7257344   0.7528471  11.3795483  57.7762338   1.4570879  10.7332313
  57.7391788   1.2019991  12.2247207   8.4796218  45.8600656  70.0143263
   8.5282639  46.1456625  69.1020206   7.5613860  45.9829179  70.2551228
   9.2124275  56.5517656  54.3903611   9.1697887  56.8095819  55.3112004
   8.2972673  56.4746515  54.1206071  31.0234904  79.3587589  44.6299076
  30.2364373  79.6765327  45.0723982  31.4625835  80.1520443  44.3231058
  66.3690519  78.1893206  62.5164890  65.5396986  78.4596825  62.1223974
  66.1224890  77.8227568  63.3656454  41.7410755  83.8175488  23.2821965
  41.5043545  84.7282887  23.4575391  41.9975853  83.8100338  22.3600388
  79.7609377  76.9619417   3.3812082  80.1588249  76.0922432   3.4205028
  78.9909601  76.8988180   3.9463434  77.1481582   2.2713636  21.0529399
  77.2823593   2.9278158  21.7365241  77.8420707   2.4431299  20.4163790
  24.7259024  57.4924604  70.7587687  24.3160227  57.1695081  71.5612212
  24.0981749  58.1233064  70.4063181  43.6032534  76.7817211   1.5293039
  43.7819672  76.1584187   2.2334233  44.2897797  77.4432087   1.6150232
   8.2793026   2.7032923  21.5453076   7.6236801   3.1108355  22.1112633
   7.9103880   2.7703070  20.6646013  89.3662342  71.5895748   9.7168350
  89.8937593  70.9524775   9.2351145  88.5441447  71.6376686   9.2288923
  23.5312366  67.8280592  17.5414419  23.8054681  67.0488167  17.0579016
  23.9064670  68.5590267  17.0504010  79.6760246  32.6781820   8.7510300
  80.3637144  32.9551195   8.1455433  79.8395130  33.1843065   9.5468527
  23.0803704  61.4593554  38.3675361  23.2579684  61.1080742  39.2400599
  22.8403378  62.3730850  38.5215068  47.7949286  41.9136620  18.7428856
  47.3615885  42.2087240  17.9420173  47.2521162  42.2608089  19.4507539
  38.5440850  43.8749599   8.2223362  39.0472674  44.2255974   8.9572465
  37.6533651  44.1936827   8.3681768  62.1969461  74.7535324   0.8543070
  62.9841518  74.5480347   0.3500194  62.3991680  75.5833387   1.2864608
  21.4990882  32.3172227  56.7534408  21.9864873  32.8777257  56.1496994
  20.7372740  32.8400318  57.0035324  44.4984055  52.2824669  10.9097803
  43.7952662  52.5274801  11.5112758  44.1852331  52.5608206  10.0491548
   9.1155914  28.9316694  38.9201543   8.4250811  29.3020002  39.4699547
   9.8945645  29.4442503  39.1362307  69.6337271  76.9401026  17.1431005
  69.6624279  77.3507261  18.0072737  69.7831917  77.6603460  16.5306091
  19.5579032  28.5441867  55.5575762  19.0799597  28.0783407  54.8714349
  20.4628066  28.5663978  55.2463040   8.9583855  15.9639811   4.6932742
   9.2004471  15.9404730   3.7674838   9.0485554  15.0575899   4.9874994
  69.9011707  67.8465509  15.1961219  69.4867992  68.6747313  15.4382873
  69.3479156  67.1758413  15.5964792   8.5229712  17.6958059  46.7016029
   9.2820387  17.2064184  47.0186996   8.3318358  17.3130011  45.8453560
   9.5827063  69.6950102   9.0516269   9.0216502  70.1747608   8.4422934
   9.1551455  68.8445044   9.1519248  36.7556787  78.9578915  70.0137997
  36.5489793  79.6359825  70.6569910  37.0758724  79.4403601  69.2516088
  72.8304073  13.9177488  49.4072294  72.4946329  13.4175848  48.6633730
  72.5354549  13.4302401  50.1763678   9.7116070   5.4188227  15.7575762
  10.5654030   5.8515619  15.7568538   9.1374426   6.0226511  16.2287068
  75.7007122  66.1526775  26.6736460  74.9293566  66.0669804  27.2339129
  75.4628849  65.6953955  25.8670712  68.7398052  80.5308819  44.2756319
  68.4784365  81.1541080  43.5977650  68.0892420  80.6439304  44.9686146
  40.9937477  77.8919315  31.5242171  41.7020321  77.6647425  32.1266675
  40.3595114  77.1816349  31.6214681   2.6180582   4.5285677   4.2791075
   3.2087021   3.8194441   4.5331022   2.4732189   4.3956827   3.3423069
  64.9360085  63.2162476   5.6564587  64.9595594  62.8410912   6.5367627
  64.8594189  64.1595078   5.8000600   0.6278952  58.6232328  34.6121454
  -0.2536527  58.9858961  34.6991992   0.8636721  58.7835407  33.6983943
  59.4506407  83.9387798  11.1901975  59.8390675  83.3535671  11.8404877
  60.0841618  84.6506214  11.0998440  51.9764996  72.9566717  46.4057541
  51.1529398  72.9279947  45.9187651  52.4554539  72.1816540  46.1121893
  27.9537133  29.5107357  67.1112773  28.4207514  29.8009292  67.8947923
  27.0354537  29.4752161  67.3791793  58.0317211  75.9301615  23.2432699
  57.8099871  76.8591261  23.1793189  58.9786530  75.9189892  23.3826733
  76.9240616  77.8436058  74.1787723  77.7982901  77.8120797  73.7902271
  76.7821883  76.9610875  74.5212131  69.4494057  63.1707287  45.2432108
  69.2281342  62.2412395  45.1855516  70.2718782  63.2515430  44.7602654
  52.3411560  66.7087698  35.0306773  51.4634895  66.9846201  35.2949524
  52.4759674  67.1231031  34.1783953  82.9649278  22.9497122  19.9302459
  82.7884885  22.0553755  19.6382475  82.1546575  23.2261347  20.3583646
  62.9459521  27.8154921  27.7056694  62.8474947  28.3567022  26.9223189
  63.2827326  28.4158491  28.3707857  76.6987658  83.7743282   9.1663724
  76.8626833  84.7173786   9.1620648  77.3423338  83.4221649   9.7812182
  46.1919975  85.4155636  11.3119805  46.5391684  85.6767368  12.1649134
  46.2850857  84.4630241  11.2969732  66.3082457  62.6830196  18.2688391
  66.6542864  63.1680012  17.5196540  66.3045788  61.7698145  17.9820001
  58.7630510  83.8217640   8.6301088  58.8783455  83.8831902   9.5783520
  59.6373749  83.9753819   8.2720757  70.0548029  43.8576603  26.5687227
  69.6007633  43.7336206  27.4022055  69.4817114  43.4482098  25.9205341
  49.2461252  70.7667255  51.9918442  49.7443485  70.0254440  51.6476059
  49.9124432  71.4008236  52.2567511   2.2348670  44.5740072  67.2337494
   3.0492238  44.7670404  66.7692081   2.4372200  43.8010351  67.7608160
  68.6386439   7.6677488  48.7076902  67.7764126   8.0663561  48.8255978
  69.2453262   8.2831549  49.1193295   1.3598709  37.3407148  20.5282354
   2.2422819  37.0009779  20.6770706   1.1472015  37.8152250  21.3318825
  53.2065058  63.4888458  24.2580056  52.3992109  64.0023041  24.2874813
  53.2632208  63.0818844  25.1225257  54.1894865  63.4621239  29.2127776
  53.5552311  63.9587927  28.6957932  54.9365854  63.3439827  28.6261678
   8.7152987   6.7263674   3.4696043   9.5687847   6.8738436   3.8770995
   8.9178591   6.2989973   2.6374063  32.7130059  72.8402273  70.4023293
  33.6071805  73.1456319  70.5553389  32.2854212  73.5677663  69.9505771
  49.3114138  70.1763964  59.4825459  49.8933935  69.8039150  60.1449633
  48.4302187  69.9743032  59.7970009  78.8273382   6.2157360  71.3059694
  78.8635159   7.1552291  71.1263118  79.0023947   5.8032241  70.4601443
  83.1688949  17.8720354  37.2758913  83.8724109  18.3978628  36.8953633
  83.5279581  16.9857096  37.3174286  80.4670334  84.6202469  41.3384247
  79.9043655  84.9562454  40.6407595  79.8638105  84.4045162  42.0496368
  86.1316013  79.5123911  44.4058180  86.5633202  79.7285175  45.2323389
  85.5020809  80.2209282  44.2719793  74.3653461  11.4538836  50.5899096
  74.9841567  12.0763754  50.2080584  74.6395275  10.6030535  50.2476263
  13.2408122  68.3768503  71.4630279  12.8068236  68.9568941  72.0886790
  12.8879431  67.5084535  71.6569183  61.4822626  84.4248676  36.2931395
  61.2124729  85.0036240  37.0062256  61.6005611  85.0078583  35.5432296
   6.7256622  37.4035048  58.2073498   6.2701349  37.8239893  58.9366770
   6.4033108  37.8585123  57.4293423  89.0890880  43.3084528  52.4471948
  88.7878222  43.4575788  51.5509627  89.1272755  44.1824762  52.8355954
  49.9784708  83.6190891  35.6604338  50.1566505  83.5891724  36.6004300
  49.7903109  82.7110195  35.4233003  89.1039486  61.8849317  62.8920517
  89.7889180  61.6254751  62.2758267  88.9385624  62.8063337  62.6923165
  87.2070619  39.1346334  27.9897022  87.9462119  38.9109110  28.5552430
  87.2799465  40.0806402  27.8632927  55.6835318  70.8573341   9.2430300
  55.3988791  70.0474930   8.8195240  55.8020878  70.6180620  10.1622272
  28.0463295   6.4150499  22.4655008  27.6368504   6.2755369  21.6116309
  28.9264851   6.7304777  22.2603822  84.5101929  79.5465088   6.2093085
  85.1804447  79.8100901   5.5788183  83.7742519  80.1335239   6.0359836
  32.2144556  83.8241768  31.8193889  32.5487280  84.5724678  31.3248539
  32.9222560  83.6011791  32.4239731  58.0551052  71.2491703  42.9125929
  57.4707174  71.3033533  43.6687565  57.6772642  71.8539333  42.2740602
  86.3786793  69.7937059  52.2321224  86.4321327  70.2989960  51.4209175
  85.9456921  70.3807735  52.8518867  89.1976615  41.4166426  28.6744952
  89.7251245  42.1150183  29.0621662  89.3339511  40.6651472  29.2514801
  61.0470104  82.2718716  12.7772462  61.1056614  81.8663311  11.9121873
  61.3762522  81.6033459  13.3780003  31.8583706  51.2261716  62.5289640
  32.6115683  50.7081739  62.2450421  31.9988326  51.3591711  63.4664140
  12.9374199  24.2080759  27.9187751  13.1461363  24.2306494  26.9848800
  13.7799912  24.3326067  28.3555818  60.6386706  40.6782507  11.7810452
  60.7851359  41.6235136  11.7456114  59.6888229  40.5803846  11.7143774
   9.5223646  53.1422972  10.8722305   8.9221363  53.8311647  11.1575592
   8.9815502  52.5586485  10.3401518  21.8951062  51.7173044  68.7174556
  22.4010113  52.4775068  68.4304235  21.0527447  51.8081323  68.2720265
   1.1369400  31.3775801  32.5004864   1.3521318  30.4784273  32.2526050
   1.9489937  31.7252707  32.8691411   9.4727402   8.1064390  21.3813376
   8.7673359   7.6525473  20.9202266   9.2604427   9.0352224  21.2890601
  76.2332153  84.8225403  69.0662432  75.7453728  85.0354576  69.8617983
  75.7499981  85.2593422  68.3648539  61.8884945  77.5180578  49.3594694
  62.3517275  78.2871246  49.6914053  61.9285393  76.8860435  50.0772333
  24.4113522  14.2413687  25.6010079  23.7715797  14.1099714  24.9012589
  23.9380722  14.0198206  26.4029717  59.6198559  77.3184204   6.3802695
  59.6937656  77.1812296   5.4358399  59.0410376  76.6172647   6.6795731
   9.4049605  75.8339739  37.5301790   9.1487559  75.1655531  36.8947268
   8.8776358  75.6419277  38.3055949  10.9919481  26.5719103  35.6188893
  11.0477524  25.6857943  35.9765387  11.5958433  26.5689253  34.8762369
  77.5934574  10.8116983  23.2415867  76.9024583  10.3725218  22.7457237
  77.9922935  11.4146017  22.6141572  16.6903477  35.3021883  30.1634836
  16.2379007  35.3878855  31.0026383  16.4331846  34.4388651  29.8397923
  52.1230841  79.1432095  42.2908163  52.5652742  78.5050249  41.7309713
  52.0783091  78.7194967  43.1479597  78.2244464  22.0403170  34.2397356
  78.2858106  22.9473852  34.5392084  77.3067304  21.8047213  34.3758225
  68.3000990  25.1023459  27.9113007  67.4057576  25.2895140  27.6260757
  68.2666298  24.1995405  28.2276034  81.3735076  33.7979006  35.0039458
  81.2278053  32.8519701  35.0188923  80.9617587  34.0908407  34.1910005
  45.5922508  84.9277973  44.3174601  45.5039454  84.0864277  43.8696384
  45.3412914  85.5765820  43.6599493  73.5754939  24.0880178  45.2532864
  74.0050336  24.9038385  44.9960661  74.2099258  23.6524271  45.8224821
   8.6313780  77.4259710  41.2128639   9.1390952  78.1246519  41.6255331
   9.2835482  76.8915176  40.7598019  47.1163511  70.9630823  41.5855169
  47.1899605  70.7638550  40.6521797  46.2165785  71.2709284  41.6944790
  45.6938820  31.3614439  23.2238984  46.6025906  31.1836313  23.4665394
  45.3785400  30.5362486  22.8553176   3.3026438  17.5807261  34.7853231
   3.1565790  17.0534109  35.5707121   4.2466383  17.5302767  34.6351051
  72.2572252  16.9755148  26.2637258  71.6898652  17.7464365  26.2590599
  71.6566583  16.2367415  26.3625288  88.4583569  82.4814034  12.7824438
  88.2790756  81.8050098  12.1293163  88.2895184  82.0542145  13.6222243
  56.8134117  78.6400175  64.1247320  56.4924335  79.0901756  64.9061155
  56.0214901  78.3368731  63.6806631  19.4111947  80.5883543  66.2035445
  18.6308030  80.6521837  66.7541317  19.2177085  79.8747579  65.5956242
  51.8396739  37.8882734  69.2287305  51.8556193  38.8448564  69.2592642
  52.7463702  37.6282922  69.3915973   0.3315430   6.6502165  23.7022257
  -0.3141470   6.8722509  23.0313873   0.3286486   5.6934237  23.7300873
  84.6617889  38.3505774  29.0770698  84.8377705  37.4176621  29.1992760
  85.5232716  38.7388039  28.9242172  64.5593166  82.9238701  41.8002796
  63.6279154  83.1411171  41.8392563  64.5817280  82.0220947  41.4800787
  46.3455658  11.9364332  10.9831655  45.9600525  11.2322783  10.4618490
  47.2545319  11.6668676  11.1148596  63.8743874   2.4861216  29.4475055
  64.0407344   3.3952784  29.6964693  63.9369437   2.4840616  28.4923553
  19.1018515   2.7272104  30.7182932  18.9303951   1.9573664  30.1759124
  19.9208431   3.0844664  30.3750062  59.7365904  54.5637083  19.2780340
  60.5459404  54.1478205  18.9810205  59.9478054  55.4963970  19.3194842
  70.8556959  15.1551699  37.1648788  71.3983032  15.9217142  36.9799113
  71.4051315  14.6008944  37.7190757  70.4425049  81.4800644   9.7651184
  70.3727150  80.8147812   9.0804625  69.6863699  81.3222218  10.3304303
   3.5052853   1.7324518  32.6807714   3.2295065   2.2065424  31.8962908
   3.9744120   0.9681200  32.3461795  43.5684776  74.2284584   0.5643163
  44.4314051  73.8412142   0.4172399  43.7431765  75.1606512   0.6936564
  86.7788383   9.3064474  11.5767729  87.6332637   9.2646193  12.0062459
  86.9795772   9.5112394  10.6635380  50.2996349  60.8140612  15.6793797
  51.0070610  60.3122807  16.0843468  50.7001972  61.2118006  14.9063456
  85.6991502  20.0574659  31.7031288  85.8811065  20.8554815  31.2068486
  85.3628656  20.3693460  32.5432920  89.3380376  31.0398077  27.9446340
  89.2163536  31.8847822  27.5116801  89.8452398  31.2440847  28.7302852
   3.6007147   8.4477877   1.9009705   3.9010315   7.7084612   2.4295831
   4.3929176   8.9568304   1.7291497  69.1647192  20.2768873  45.1037884
  70.0071212  20.4424833  44.6805000  69.3744179  20.2060865  46.0350466
  71.4730787  78.3855534  34.4473743  70.9154558  79.0663242  34.8239923
  70.9510946  77.5857687  34.5114684  13.2512550  19.9964594  62.3472977
  12.6645927  20.4665731  62.9397869  13.9565830  19.6785902  62.9109526
  64.5578432  85.7483292  65.6754827  65.2684212  85.1727676  65.3925705
  64.9099398  86.2061310  66.4388180  80.2346059  18.1662821  61.8900967
  79.7011634  18.8684820  61.5178299  80.3374645  18.4061502  62.8110266
  46.4325857  38.5133338  15.2944577  47.0505047  39.0111566  15.8297873
  45.8639669  38.0766344  15.9286475  42.0509338  42.6246929  26.3627005
  41.5600252  43.1651402  26.9816971  42.1556139  43.1802511  25.5902839
  40.0991488  13.5210919   3.6362156  40.8525133  14.1104126   3.5990700
  39.3701959  14.0807974   3.9037716  16.4100838  37.4571109   4.6769956
  16.9808066  37.1772456   3.9613256  15.6442070  37.8302908   4.2406461
   4.7699389  20.9644771  14.7033346   4.7108823  20.8709192  13.7525499
   5.1197785  21.8455172  14.8360384  19.6141160  34.6091938   0.2399747
  19.8433661  33.9034510   0.8446261  20.4548097  34.9167514  -0.0989542
   6.5307587   6.2334114  28.6384249   6.7797762   5.3539002  28.9224720
   6.1781985   6.1096478  27.7571678   9.3464845  19.4179344  17.0527041
   8.4439552  19.2294478  16.7955196   9.5854563  18.6962950  17.6343930
  90.8019923  65.9219925  67.5067738  90.4697751  65.9511321  68.4040001
  90.0663422  65.5941312  66.9895116  18.9847732  12.4754953  10.5248320
  18.0948687  12.7266586  10.7722592  18.9857709  12.5086331   9.5682061
   1.4861301   1.2345306  66.2293223   2.1871642   0.6806079  65.8858750
   0.8082942   0.6183712  66.5070239  35.0976300  37.8182626  28.2610869
  34.7801399  36.9423008  28.4804583  34.4198847  38.4082460  28.5909581
  71.1703319   3.0352108  71.2571088  70.8621831   2.1409456  71.1102537
  70.3700323   3.5540287  71.3382277  14.9585581  15.6306148   3.0685982
  15.4698718  15.8066857   3.8584015  15.5665660  15.7955456   2.3479342
  75.9976195  65.3651397  66.5212933  76.7955016  65.7021754  66.1138329
  75.7106350  64.6611564  65.9396765  59.9593782  21.8463302  13.4788299
  59.5161724  21.8533301  12.6304483  60.1873064  20.9278178  13.6224103
  74.0872096  49.7363358  69.1583875  74.6589421  49.3120997  69.7982148
  74.4833134  50.5960475  69.0161536  49.1971588  45.2756548   8.2468510
  48.8664150  44.4058132   8.4709376  48.5215378  45.8768845   8.5603601
  76.7584561  61.7118471  65.5608717  76.0918425  61.8772213  64.8941562
  76.9488381  60.7770495  65.4825136  33.1856823   7.1592849  25.2090335
  33.8518906   7.2981858  25.8821630  33.1269908   7.9989642  24.7532630
  34.5653152   2.5056171  13.9144921  33.8912487   3.0675295  14.2967498
  35.1296568   2.2730099  14.6518147  26.8796349  48.7174082  31.5404844
  27.7981019  48.7578058  31.8069792  26.9019175  48.8152599  30.5885625
  65.4657601  53.4040492  61.4254091  64.8480700  52.9526727  60.8501277
  65.4416727  52.9046350  62.2416422  45.1984882  35.2347398  15.2038550
  44.8508310  36.0347056  15.5980909  46.0973167  35.1789117  15.5282366
  87.6479478   4.3275873  72.2460066  88.2372518   4.5405523  72.9696089
  88.0727692   3.5957614  71.7985830  12.7511862  84.3931545   4.8535982
  12.5681141  85.3191815   5.0123119  12.9424265  84.0348328   5.7203531
  21.1958265  29.7892761  37.6623702  21.8464446  30.3439641  37.2319627
  21.1877632  28.9839768  37.1450138  48.0699587  50.8126497  13.2123864
  48.7038136  51.5098763  13.3807325  47.4297905  50.8951473  13.9192152
   6.8028617  40.2162933  29.1433620   6.2514752  40.3422356  29.9155951
   7.6945263  40.3623581  29.4593239  10.8489335  41.4537573  15.4534924
   9.9445748  41.2264967  15.6696427  10.8669651  41.4809275  14.4968486
  23.8466573   2.0367233  14.7004056  23.2177067   2.7491635  14.5860374
  23.7123370   1.7408825  15.6007767  69.6294880  14.7087765  47.4916506
  70.5566454  14.6398199  47.7193785  69.2200565  13.9599693  47.9251099
  37.5988722  38.9461088   4.6501246  38.1428313  38.6804867   3.9086506
  37.9381609  38.4411430   5.3891265  49.6233606  47.1911526   4.4012973
  50.0030422  46.4512968   3.9272860  48.6779404  47.0533276   4.3427995
  71.4844655  77.3754566  71.9215665  71.2049292  78.2905929  71.8967471
  71.2956523  77.0915191  72.8159713   8.0486715   2.8966066  48.5141182
   7.1727419   2.8937137  48.9000893   7.9137987   3.1999075  47.6163149
  30.9193134  10.2317190  46.0560703  30.7433271  11.1708498  45.9986830
  30.4215693   9.9410212  46.8202543  50.9607601  69.7739983  24.9110055
  50.0605774  69.6474552  25.2108240  50.8828735  69.8988628  23.9651871
  51.7210293  18.7142396  47.7037716  50.8874369  18.5613883  47.2588158
  52.3651123  18.7587619  46.9970846  40.9636831  15.6626081  19.1647410
  40.0574350  15.5821776  18.8672900  41.4329863  14.9756157  18.6914229
  84.8794857  22.0168734   5.9854090  85.1631991  22.4124265   5.1612276
  84.1417549  22.5569344   6.2688166  49.8556423  42.9732561  17.0940161
  49.3526268  42.6230907  17.8292692  50.2858829  42.2081852  16.7121851
  73.5999011  60.9716623  70.1724560  72.7034234  60.9442906  70.5068332
  73.5006236  61.1293368  69.2335657  29.2510414  22.3940015   7.1588576
  29.0611434  23.2627177   6.8045950  28.5874772  22.2610974   7.8357989
   1.8092613  10.8251214  29.8315430   1.0800423  10.3220141  30.1939702
   2.0832540  10.3283107  29.0606070  17.8736770  57.7770996  36.1090946
  17.5791490  57.1526194  35.4461432  17.1805024  57.7704096  36.7691684
  37.0550728  35.3584623   1.8943618  37.8973675  34.9925804   2.1643612
  36.6227436  34.6442676   1.4261222  33.4155369   7.0990795   6.5013003
  33.0168366   6.7088103   7.2790921  32.6978827   7.1639580   5.8712238
  12.4010694  20.1808691   2.6973337  13.0287480  20.6913090   3.2089016
  11.5641916  20.6254053   2.8324491  45.7987499  36.3087034  26.8481278
  44.8484135  36.4230394  26.8523407  45.9498358  35.5391192  27.3968983
  31.5022230  34.2349434  25.1280212  31.7023277  34.0744138  24.2058396
  31.6512990  35.1731181  25.2456617  12.3328808   9.9129478  46.7040894
  12.7342394   9.6932832  45.8633206  11.4239243   9.6255294  46.6179535
  10.1629591  29.6920204  19.1699815  10.8811808  29.1166592  18.9066386
  10.4029906  30.5501437  18.8203502  42.4633551  37.6413798   5.4935056
  43.1254435  37.5508332   6.1788332  42.7040720  38.4450293   5.0326020
  40.3937340   1.1743616   7.0449018  40.7222414   1.3438657   6.1619616
  39.5240688   0.7983415   6.9088018  17.4048054  36.3423133  49.9393225
  16.7427921  36.9538593  50.2617836  16.9027352  35.6539607  49.5030546
  52.7902889  25.2811217  20.6036639  52.9715443  24.3464661  20.5046964
  51.9580841  25.4131103  20.1495147   0.8327693  17.7469194  51.9859886
   1.6939816  17.3427296  52.0917034   1.0206915  18.6354613  51.6836500
  14.7996877  50.1673870  69.5543105  14.6708225  51.0179095  69.1345039
  14.1192637  50.1264285  70.2263049  69.2264671  85.7730365  47.3053646
  68.7848688  85.1874002  46.6903448  69.0944017  86.6478335  46.9399595
  29.2716527   1.6031767   8.9220977  28.4520960   1.3486090   9.3460673
  29.1010904   1.4946675   7.9864877  25.7085419  40.0565147   8.0196697
  26.5547204  40.4857683   8.1459993  25.0729322  40.6640387   8.3980161
  40.7977413  36.4841782  67.3825446  40.9985577  37.2402869  66.8309978
  40.4665946  36.8629282  68.1968674  81.3232754  63.8177841  65.0771049
  81.3188170  64.4529002  65.7932339  81.7090462  64.2908614  64.3398068
  66.7539810  67.1445744  73.3427843  65.8006547  67.1846311  73.2666336
  67.0744871  67.7039497  72.6352495  38.6539459  23.1120110  18.2728398
  39.3136072  22.5224590  17.9074526  39.1561270  23.7438297  18.7874734
  78.9649819  83.8000076  57.6562247  79.3217610  84.6313016  57.3433564
  78.2168959  83.6298530  57.0838175  11.0301781   8.0184978  30.6499028
  10.3023732   7.9724765  30.0298905  10.8220363   7.3601729  31.3128638
  31.9232011  31.7536402  39.4747496  31.5947914  31.0137868  38.9638686
  32.8714681  31.7313671  39.3461871  76.8218473  28.1545591  40.4287243
  76.7872194  29.0355253  40.0559902  77.5543586  28.1835246  41.0442066
   7.2356919  78.9388735   2.5560534   7.4996141  79.7966779   2.2232631
   8.0276016  78.4045715   2.4957630   9.4999051  22.0209980   0.2665956
   9.9698853  22.0981240   1.0968976   9.5384759  21.0882068   0.0552934
  47.7456379  52.4509430   3.7531841  48.1893921  53.2670307   3.9840823
  46.8400717  52.7104616   3.5833910  81.6816873  74.1996540  16.0928321
  81.9823666  75.0102604  16.5036130  81.4905424  74.4462980  15.1879227
  45.6247054  78.7075560  61.9299147  46.4068125  79.1099851  61.5523026
  45.9080778  78.3925049  62.7882120  43.5737371   6.2052906  41.1270809
  42.8195620   6.7904061  41.0557318  43.3357477   5.5914462  41.8219090
  47.0849991  20.0688767   4.8980191  46.3632011  20.0740671   4.2693585
  47.2946644  20.9935164   5.0296098  53.2813883  45.6166983   1.4007401
  53.2883167  44.7124100   1.0869686  52.8436422  46.1080599   0.7056324
  49.4585466  38.8345218  10.0957143  50.3589582  38.5136414  10.1459777
  49.2788506  38.8978195   9.1576660  19.2949656   7.1822540  65.1322839
  20.0537137   6.7490808  65.5232999  19.3823413   7.0171396  64.1934893
  24.9818993  50.5349207  16.0781515  24.9004340  50.4107428  15.1325417
  24.7393942  49.6880770  16.4526951  11.4153937  22.9872266  68.4716747
  10.6033257  23.2108060  68.0169329  11.7262152  22.1959726  68.0317393
  23.9799241  17.6763336  39.1091869  23.4691552  18.3939306  38.7344787
  24.0913228  17.9164688  40.0290558  43.1704712  13.3526433  13.4061038
  42.8658009  14.0633249  12.8418851  43.9195633  13.7222648  13.8735104
  27.8155211  20.5105535  67.8321723  28.7347010  20.3537838  67.6159135
  27.8262023  20.7613651  68.7558660  38.4101367  21.9361448  23.2047081
  38.5570979  21.5391493  22.3462033  39.1408300  22.5444460  23.3155441
  16.2644080  31.0907642  45.2377698  17.1617488  30.9678165  44.9280975
  16.1852149  30.4969970  45.9843633  55.2646063  80.1369255  59.8807797
  54.4465397  79.6447961  59.8114631  55.8559392  79.5529192  60.3556440
  89.8949956  68.2226293  63.6551807  89.1197394  68.2533853  64.2157719
  89.5996712  68.5809367  62.8181455  36.9241166  28.6159492  26.3547254
  36.0734367  28.5948992  25.9163952  36.9278622  29.4464660  26.8306041
  20.8020902   0.9393811  14.4516945  20.7774639   0.4228894  13.6461759
  20.9251213   1.8409157  14.1544902  36.7538881  23.9568615   4.2120567
  37.3999619  23.6029720   4.8232692  37.0403671  24.8565960   4.0550888
  20.0132465  65.0184917  57.9177713  20.5153584  64.8112059  57.1296406
  19.6663404  64.1753769  58.2094002  12.4338320  10.3929226  54.1029570
  12.6678923   9.8838321  54.8790214  13.1764868  10.2802650  53.5096571
  63.4441042  53.1977415   1.4234605  63.8233662  52.9458618   2.2654513
  63.7535715  52.5295687   0.8118996  52.7280140  80.4126072   1.9201763
  53.2215166  79.9541283   2.6002350  53.3956909  80.8592987   1.3996843
   5.1344299  34.0720844  34.7416663   5.1945233  34.1614890  33.7905478
   5.2682042  34.9594975  35.0745797  20.1318288  36.9903755  37.8913069
  19.5590436  37.6626563  38.2603431  20.5406404  37.4124479  37.1356893
  26.6031647  45.3970337  40.6313658  27.5182033  45.6381702  40.7755423
  26.4350915  45.6299973  39.7182870  42.7880001  16.7141712   5.7921922
  41.9254303  16.4869606   6.1394417  43.2782602  15.8922923   5.8120120
  51.2744999  54.7049856   1.0481695  51.6710091  54.5241880   1.9004157
  51.9504595  55.1808500   0.5656154  28.7990999  31.1885214   4.3836045
  29.1705513  31.7018485   5.1010650  28.1726265  30.6022215   4.8078892
  45.7430077  70.9250212  26.1235738  45.6770086  70.4017162  25.3248072
  45.8367538  70.2805424  26.8250680   2.7710349  58.0951123  70.4998890
   3.2304389  57.2583513  70.4290811   3.3127839  58.6163955  71.0923464
  19.2796397  18.8761044  37.4530506  19.1514766  18.6400545  36.5343094
  18.8695085  19.7367382  37.5386810  52.6664351  82.6546638  68.0149219
  53.0140089  82.4680822  68.8870523  52.5820707  83.6078041  67.9895828
  86.5731524  64.2274730  67.7220640  86.1228322  63.4970586  67.2978709
  86.0326909  64.4312756  68.4853474   7.0768503  15.1239769  64.7870264
   7.1859363  14.2044488  64.5445332   7.6895217  15.2551452  65.5106697
  77.8295659  83.8424604  65.2599994  78.1351517  84.0047424  64.3675229
  76.8752669  83.8267152  65.1872644  26.5746832  65.1909304  30.1246643
  25.9939861  65.6749916  30.7117820  27.2051525  64.7672272  30.7070851
  32.0005540  11.2074844  54.3779108  32.0324305  11.3949768  55.3160271
  31.5391186  11.9559518  53.9996168  27.2326878  12.9804699  48.2853982
  27.4282292  13.4635631  47.4825213  26.3485745  12.6393692  48.1503794
  33.5738887  57.5506263  67.8345487  34.1108318  58.3388667  67.9157916
  32.7054182  57.8758137  67.5973902  40.8102894   3.1337410  13.5413277
  40.3232336   3.9515892  13.4406579  40.8508492   2.9940289  14.4874072
  37.5908232  65.1131248  11.3753140  36.8910909  64.8961496  11.9913721
  38.1554699  64.3402052  11.3722920   6.9557595  58.0139923  13.9860117
   6.5010864  57.9170370  14.8227322   6.7552155  58.9072514  13.7065458
  28.1184077  45.1170349  19.1981208  28.1666255  45.2652979  18.2537031
  27.2935462  44.6483231  19.3251777  56.0463218  21.5562669  56.5235207
  55.7875354  20.7936756  56.0061071  55.5586750  21.4668314  57.3423216
  35.9808874  44.9552774  13.5532200  36.7224503  44.3536234  13.4873939
  35.2372360  44.4568062  13.2144809  23.8209009  48.1472778  17.2013700
  23.7489867  47.2675943  16.8309486  24.1680765  48.0084753  18.0825257
  31.0706067  42.4925232   4.2401338  30.4673767  42.3393583   4.9673793
  31.9227505  42.2100401   4.5722252  90.0383948  82.4063699  64.2161200
  90.1772498  83.2103317  63.7155232  90.7137774  81.8069189  63.8987121
  31.8495345  74.5085096   1.2386118  32.6508069  74.4895744   1.7619051
  31.1692739  74.7860527   1.8521656  41.2481356  30.7450151  22.9310226
  40.8392906  30.2783442  23.6599231  41.7018604  31.4808154  23.3420753
  16.6948009  23.3695579  38.0105853  17.6516771  23.3667564  38.0353165
  16.4599240  22.4856901  37.7280211  30.3002191  64.2869997  35.3376698
  31.0613847  64.2979288  35.9179616  29.6291614  63.8159752  35.8316827
  33.8712502  32.0054102  31.6056943  34.3831754  32.1795344  30.8158565
  34.2664981  31.2173057  31.9783926   9.9573773  52.8214073  43.4655428
  10.6172645  52.4449301  42.8832674  10.4634845  53.2489109  44.1564369
   5.8425033  58.6015987  16.5143490   5.8678746  57.9120636  17.1777701
   5.9765148  59.4119453  17.0058918  31.7654133  39.5093417   1.1921607
  32.4305391  38.8276505   1.0965789  31.2617636  39.2462397   1.9624501
  44.4467889  78.1693380  50.2634070  44.4551586  78.4318678  49.3429515
  45.3148995  77.7951090  50.4136393  21.6034106  13.7984220  63.8480673
  21.4111641  13.0179588  64.3678281  22.5140742  13.6862699  63.5754022
  78.1057460  35.1478473  65.4353723  78.0365796  35.7856885  66.1457298
  78.0546100  35.6726018  64.6364674  25.3709388  41.5749598  23.3874607
  25.3379893  40.7165337  23.8096571  25.9630251  41.4542007  22.6451111
  35.4436205  60.8699172  63.8003943  35.7826696  60.9489934  62.9087529
  35.7045733  61.6850274  64.2290327  38.6062670  45.6454515  12.7726507
  38.7815952  45.4856730  11.8453097  37.6513481  45.6629610  12.8363168
  17.5780896   0.8748952  67.0306501  17.2475604   0.4020397  67.7944503
  16.8221024   0.9469883  66.4479712  80.2204723   9.8248712  49.1878459
  81.1150641   9.8608057  49.5264385  80.0275440  10.7248155  48.9249608
   2.2614149  31.9914571  49.6914193   2.1656707  32.2464315  48.7737844
   3.0082301  31.3927356  49.6969769  32.0518426   6.1159889   8.6090252
  31.6879586   5.2519504   8.4160111  31.3521460   6.5713970   9.0772841
  18.8744950  62.4809742  58.6580372  18.7603939  62.5441885  59.6063089
  19.1556799  61.5780115  58.5102940  25.0278234  61.9440842  18.3448279
  25.1182771  62.0844221  19.2873538  25.5585098  61.1677361  18.1662524
  29.3913678   8.1504718  59.8357246  29.7608737   7.5424711  60.4760632
  29.9483088   8.0526296  59.0634081  32.3052096  24.4221163  27.5892806
  31.9006968  25.2274966  27.2668505  31.5803075  23.8007808  27.6577711
  88.9561890  79.8851316  68.3575997  88.8334702  78.9806645  68.6458895
  88.3914612  79.9703949  67.5894562  11.5599162  84.0978162  40.0604627
  11.3969524  84.7189348  39.3506143  11.9625432  84.6239345  40.7513521
  84.3464516  70.2286236  65.5296216  84.4777726  70.4954712  66.4394454
  83.4513472  70.5006235  65.3270558   1.9858817   3.2443849  52.0498345
   2.6426152   2.9920475  51.4007900   1.4815239   2.4454538  52.2033403
  45.8287430  23.5488486   3.9702845  46.7732906  23.6597133   4.0787470
  45.5004025  24.4338131   3.8113448  45.6488276  45.6452084   7.0803386
  45.0559616  46.1292601   7.6551735  46.0546112  46.3179445   6.5335298
  57.1036131  76.3816834  30.6638074  57.3667459  75.7042993  30.0407934
  57.4846930  77.1879728  30.3160906  77.3419331  47.6125993  69.1085759
  77.8420638  47.9485472  68.3647749  76.6557501  47.0752977  68.7127355
  13.0315951   3.9424697  58.6731253  12.5486306   3.6257307  59.4364426
  12.3961047   4.4704429  58.1897745  16.8579844  28.3366863  42.9023359
  17.4526814  27.9811851  42.2418902  16.1098746  28.6612646  42.4011228
   9.4807294  19.7140543  48.8432119   9.7919587  19.1273490  49.5325181
   9.3102077  19.1384450  48.0976746  50.4624580  45.4637868  64.3073389
  51.2630104  45.0193078  64.5862368  50.5183052  45.4806738  63.3519194
  18.7834460  48.7081085  59.5020566  17.8999526  48.5727392  59.8446081
  18.6713655  48.7282317  58.5516546  36.5697408  47.8867388   6.4526564
  36.6934323  48.6945629   6.9510120  36.2995052  48.1809425   5.5827999
   5.4960688  30.7627916  20.1845741   5.9967478  30.8662820  19.3753517
   6.1348780  30.4444838  20.8224154  27.3033810  20.8612680  30.6254077
  26.8182111  20.4697871  31.3517570  27.7121782  21.6402340  31.0026741
  44.2479897  36.6230226   7.7239412  44.8881149  35.9634519   7.4566567
  44.6282101  37.0226002   8.5062474  50.5584574  20.4573274  10.6951451
  50.6404066  19.5092571  10.5917954  50.8364964  20.6250191  11.5955925
  13.0485610  72.6503015  31.5783501  13.0412654  72.9262305  30.6618118
  13.6913518  73.2235850  31.9959617  41.9837427  32.1504641   9.4080055
  42.9391432  32.1422744   9.4660962  41.7977715  32.5993514   8.5832947
  35.3285122  51.8703794   9.9415416  34.6715331  51.3620615  10.4171717
  35.9544492  52.1409416  10.6132782  30.5392885  47.6866198   4.8140600
  31.0431290  48.0841112   4.1038644  31.1521244  47.6446629   5.5481601
  41.1557423  66.1867182  72.5176329  40.6614409  65.8004181  73.2405924
  41.5997790  65.4445093  72.1075280  67.4480055  63.1591289  73.3559124
  66.6829775  62.5942640  73.4649591  67.1804021  63.8003223  72.6975121
  17.1763352   7.2058431  66.8314895  17.7484921   7.0798914  67.5884584
  17.7568177   7.1188060  66.0753820  19.9175906  39.8517919  17.5475669
  20.3291273  40.0814962  18.3806980  20.1206422  40.5870962  16.9693565
  85.3919167   7.0205251  59.0469537  86.1970062   6.8873159  58.5466335
  85.2974815   6.2217657  59.5658884  16.7625598   2.0016567  63.0321095
  16.3241795   1.2441532  62.6444981  16.3422421   2.1110813  63.8850996
  45.3924636   5.9288637  33.4020779  45.5156211   5.1983253  34.0081951
  44.4442824   6.0558693  33.3695767  57.8029776  12.9853928  14.4717669
  56.9587040  13.0577266  14.0265644  58.3529758  12.4916899  13.8635004
   6.1935834  18.5118858  71.9614011   5.9656218  19.3142454  71.4918414
   6.5038875  18.8138954  72.8150595  14.3918037  33.4300423  22.8050971
  14.5191491  33.1428599  23.7092757  15.2784514  33.5389638  22.4612594
  60.7915449  52.9295444   1.7528546  61.7192888  53.0994606   1.5896025
  60.5000782  53.6754465   2.2771695  77.7915144  69.2359591  27.9957247
  78.6284304  68.9474058  28.3597755  77.3105192  69.5831728  28.7469387
  41.2892948  76.7604392  72.0799651  41.7231892  75.9117382  71.9923540
  41.6416441  77.1269863  72.8909672  46.7118643  73.1256287  73.8332952
  47.2613250  72.4995725  74.3048636  47.0752238  73.9816229  74.0601736
  49.9838114  39.3649745  12.8634536  49.8161554  39.4782996  11.9278896
  49.7298098  38.4600043  13.0444038  34.5657587  53.7767363   0.5031935
  34.9294329  52.9081392   0.6749754  35.2163219  54.3830824   0.8572321
   3.8157661  75.8308713  69.2953995   4.7215373  75.5333345  69.2100791
   3.6221177  76.2520378  68.4579328  57.8098154  12.4630511  21.2987614
  58.7470627  12.3904204  21.1184144  57.4545193  12.9231226  20.5382800
  37.6667643  65.4644823  21.6458988  38.1750011  66.2433767  21.8722796
  38.0239439  64.7745609  22.2050619  19.1771996  62.2405910  25.1848316
  20.0356245  61.8732595  25.3955555  18.7141538  61.5290022  24.7427225
  13.3655841  56.9831674  66.0582731  12.4280936  56.7973559  66.0052535
  13.4135110  57.8833501  66.3801530  10.4118407  35.6658196  36.7316580
   9.6165574  36.1349058  36.4792395  11.0352433  36.3559294  36.9582605
  11.8831853   7.3080246  55.4769871  12.0825413   7.6869003  54.6208677
  11.8845013   6.3626901  55.3267262  89.1304635  85.0855653  58.4938762
  89.8985575  85.4643266  58.0663190  89.4652890  84.3106239  58.9450893
  48.8838053  57.1016264  23.0224943  49.1216516  56.3344955  22.5017524
  49.4833708  57.7868509  22.7271628  28.7016845  33.5469890  12.9940701
  28.0161738  33.9097667  13.5550499  29.3860936  33.2678366  13.6022556
  27.5174665  70.5105400  12.3843360  26.8081403  70.5184555  11.7416656
  28.0941653  71.2248325  12.1133506  61.2059306  85.2139728  60.0887034
  61.0073064  84.6254461  60.8170006  61.7534660  85.8972709  60.4754040
  42.8732824  37.4959850  30.1182103  43.4702682  37.0377660  30.7097125
  42.0191908  37.0965743  30.2832127  37.4530315  28.6534572  33.1393766
  37.1857905  28.0972099  33.8710880  36.7000771  29.2238593  32.9846740
  36.5827799  51.4779615  33.8700914  37.0184851  51.4777613  34.7223783
  37.2912025  51.6046715  33.2389688  66.6584109  69.0389125  54.8371205
  67.4039506  69.6257441  54.7105095  66.0286687  69.5565383  55.3388367
  56.8116045  48.6653566  19.3994331  57.0273352  48.6068726  18.4686959
  56.8172312  49.6037626  19.5880926  16.2328708  54.5912313  30.2914739
  16.2091494  53.8457060  29.6915889  16.7526114  54.2844009  31.0344124
  37.1472287  20.8523393  51.1746788  36.3957143  20.5188370  50.6845427
  37.8893471  20.7406974  50.5805206  64.3903255  35.2710915  31.0963130
  64.1788340  35.0180531  31.9949079  63.7074232  35.8976245  30.8568811
  79.8392172  49.2938940  71.0937763  79.3792517  48.5617773  70.6830851
  79.7308488  50.0198022  70.4793326  33.2191952  71.8247478  64.8107818
  34.0097912  71.8169706  64.2712173  32.6963738  71.0942905  64.4801471
  89.0430832  68.8426542   2.4837069  89.9509811  68.5449028   2.5411490
  88.5927010  68.1469536   2.0047602  57.9136944  43.9054775   9.8960841
  57.3244905  44.5111322  10.3458095  58.7753868  44.3172264   9.9607313
  85.1645393  79.4835646  16.1252236  86.0765023  79.6842546  15.9148026
  85.1724405  79.2876203  17.0621204  32.8400496  28.2548801  62.5342998
  32.5437955  28.7652437  63.2879517  32.0385197  28.0536167  62.0513162
  23.5953406  80.9563530   1.9895603  23.5375193  81.5963421   2.6989985
  23.6059455  81.4841784   1.1911118  12.9109478  51.6256618  24.6160388
  12.2468710  51.6281271  25.3054047  13.6804128  52.0235443  25.0232840
  42.4131775  40.2538776  29.5060635  42.5498438  39.3164515  29.6431088
  41.4855433  40.3305626  29.2827868  26.0880232  18.2808614  10.9914589
  25.4260588  17.7535355  10.5442846  26.8980360  17.7799010  10.8958149
  21.8073654  16.5229928   2.4923542  21.6567349  17.0891488   3.2493284
  22.6653099  16.1304462   2.6538053  40.9599972  13.7724435  15.2852607
  41.5259266  14.0214753  14.5545495  40.2785110  13.2311630  14.8867333
  77.3722790  74.6200626  64.2441616  77.1475981  73.8804357  64.8086974
  77.8245686  75.2341335  64.8225937  82.7914238  29.3847799  29.8584247
  83.6785030  29.0601373  30.0130868  82.6681423  30.0680304  30.5173659
  67.7951740  79.3994682  69.8429382  67.2039817  79.0752189  70.5223373
  68.3168195  78.6361258  69.5950982  19.9852252  15.7404304   8.9224887
  19.7159648  16.5240359   9.4017524  19.1927052  15.2059460   8.8727671
  50.7225370  43.9553595   6.2037605  50.9690952  43.3077526   6.8641019
  50.2672720  44.6382666   6.6962993  73.2065819  84.5627134  55.9889529
  74.0346526  84.4598691  55.5199632  73.2990502  84.0071075  56.7628953
  37.1023396  25.8219997  36.7921588  36.9964198  25.7049219  35.8480689
  37.5778750  25.0421373  37.0783589  61.5376437   7.0667593  64.1706238
  61.2430362   6.2375251  63.7940476  60.8539788   7.3011009  64.7982535
  42.2348527  22.9545919  71.0213313  42.9488305  22.3760168  70.7535372
  42.6531581  23.6070243  71.5831051   2.6273373  23.0537836  72.1977202
   1.7869571  23.3139221  72.5749782   2.5729040  23.3253852  71.2814779
  40.3249931  53.3907938  19.5475519  39.7486162  53.9894152  19.0725052
  39.8254800  52.5766850  19.6103370  55.5309963  42.7178764   2.3391767
  55.6197309  42.5464439   3.2767096  54.6955729  43.1779671   2.2578417
   4.5997957   1.4176647  62.9184315   5.1949552   2.1654073  62.8645882
   3.9682368   1.6624443  63.5947785  39.4949041  85.0591342  71.8364227
  39.4000445  84.1217964  71.6672183  40.4384993  85.2152174  71.7977095
  62.3335791  43.7218571   4.2771730  61.9941139  43.0148220   3.7284517
  61.5571737  44.2188215   4.5349634  60.3974533  38.2226086   4.7775874
  60.6914997  38.2951689   5.6856090  60.4086399  39.1218042   4.4496280
  31.3519600  13.1853143  65.2556989  31.2379292  12.2425691  65.1354495
  32.2656420  13.3478920  65.0212220  57.9062251   2.8530828  59.5224473
  57.7239779   2.6067583  58.6156151  57.1942309   3.4484426  59.7566292
  79.2599200  46.5442901  52.0913336  78.7928532  45.8089079  52.4879381
  78.6301802  46.9263207  51.4800141  16.8539981  75.6527151   8.3169377
  17.3781661  76.1122251   8.9729321  16.1377982  76.2556083   8.1174123
  70.3851393  26.2650243  73.6707913  71.0894278  26.7805139  74.0638240
  69.7956446  26.0701982  74.3993363  80.0634357   0.5237173  12.3857653
  79.8361608   0.5329966  11.4559853  79.7864553   1.3812136  12.7086031
  33.8470364  86.1997509  23.3777380  34.3141389  86.1401272  24.2110991
  33.2993984  85.4150677  23.3534431  73.3541436  22.4969188  61.0183964
  72.7427037  22.5389234  61.7536566  72.9668732  23.0646364  60.3521011
  37.5983286  39.1118765  28.0748796  37.2420168  39.5626879  27.3093462
  36.8841815  38.5501003  28.3759308  29.5300341  58.5913038  18.2707119
  30.0701284  59.0849590  18.8878298  30.0039911  57.7697659  18.1415892
  14.4168070  37.7535955  67.7089510  14.2554883  36.9166891  68.1446091
  15.2485684  38.0567113  68.0729959  52.1961641  30.6976056  12.9453969
  52.0521975  29.8132396  13.2821500  51.4277554  31.1911201  13.2321405
  38.8894510  21.0285854  20.6258321  39.7784495  21.0632706  20.9789777
  39.0094256  20.8611131  19.6910644  67.2290920  59.8310428  65.3408370
  67.3980211  58.8965564  65.2207116  67.0266675  60.1527135  64.4623247
  57.1452332  71.2408495  23.0758500  57.5080967  71.7512178  23.7997890
  57.4267435  70.3429222  23.2510853  84.7532795  53.8980978  58.7685678
  84.4988249  52.9774414  58.8308320  83.9639758  54.3445413  58.4621069
  40.8015013  12.5788462  23.3128595  40.0747728  12.5359821  23.9343596
  40.5551672  13.2751131  22.7039552  83.0709171  35.5717468  35.6182647
  83.2601738  35.1601839  36.4614916  82.5599098  34.9175024  35.1417494
  48.3152771  59.4180012  19.9254048  48.1504440  60.3602934  19.9593842
  47.5249004  59.0507126  19.5296371  21.8635777  27.8635494  60.6144819
  21.9026259  28.8163129  60.6978807  21.4734105  27.7142994  59.7532449
  42.7192572  80.1110829  19.3262565  42.2811011  79.9694390  18.4870982
  42.0312480  79.9857999  19.9798441   8.4879684  46.3335276   7.2833729
   7.8679305  46.3875628   6.5561414   8.4978443  45.4064274   7.5213212
   3.6897234  17.1545927  69.2002735   3.7798837  16.3983242  68.6204794
   2.7581528  17.3720972  69.1671184  15.0506592  28.4367275  29.3349910
  14.4275975  29.0967727  29.6389079  15.6310391  28.2930636  30.0824881
  27.6471785  82.9014353  43.3272457  26.9989089  83.1816293  42.6811266
  28.0030755  82.0870377  42.9718256  21.4504528  33.1768394  21.4406919
  21.5046716  33.9236259  20.8443689  21.0269594  33.5265803  22.2246337
  90.1002816  52.5056314   4.3755254  90.0329323  52.4982595   3.4207264
  89.2386834  52.2192574   4.6786264  36.8502283  27.7582264   7.5965744
  36.1415339  27.1647072   7.8450084  36.8165493  27.7844477   6.6403270
  20.1706624  16.5177655  46.3008451  20.8530831  16.9705331  45.8053303
  19.9762142  15.7370186  45.7823324  28.6994675  24.8498718  62.7919433
  28.1603173  24.1132919  63.0800423  28.3462456  25.6041662  63.2636533
   4.3244165  25.2465510   8.8349360   4.7334957  25.1816630   7.9719901
   3.5358185  24.7082543   8.7672496  42.1201658  62.5781393   3.3283108
  42.5448513  63.0911732   2.6407987  42.5980520  62.8048038   4.1261092
  15.1512706  49.0398932  26.3386083  15.8364844  49.7079897  26.3577676
  14.8046923  49.0777636  25.4471588  61.8881868  58.5159938  60.2964661
  61.3345669  58.6106007  61.0715697  62.3109578  59.3691652  60.1985154
  48.3553457  12.0360100   8.1280589  48.3001661  11.7499089   9.0398335
  47.5869894  11.6488075   7.7086151  17.0924119  16.0281555  66.5539006
  16.7764977  15.4389469  65.8688727  18.0051306  15.7725517  66.6875020
  90.4441066  28.5911075  70.9505332  89.6458311  29.1008703  70.8122242
  90.9401197  29.0934888  71.5969196  60.5354713  70.4763072  53.6443422
  60.8235549  71.0172980  54.3795750  61.3323568  70.0423257  53.3396075
  76.7305802  74.2557805  46.7904756  76.4020966  74.1022770  45.9046027
  76.4010857  75.1244347  47.0209262  13.9079034  31.6016030  27.1890640
  13.5612881  30.9400678  26.5903473  13.5196948  31.3844800  28.0366373
  60.1230526  61.9118500  21.0125709  60.3912210  62.1992874  20.1398158
  60.9238911  61.9539309  21.5351820  57.4669170  54.2733717  17.1230114
  58.3359814  53.8856554  17.0198607  57.5899744  54.9685335  17.7694178
  63.9329289  73.8481276  50.9891126  63.6803411  72.9497950  50.7759735
  63.1798600  74.2029898  51.4615438  41.0665369  23.7896132   3.7087715
  41.2650633  24.7107506   3.5404739  41.7517567  23.5033965   4.3127471
  16.5163064  44.7593975  29.1672516  16.5207100  44.5086384  28.2434916
  15.5885971  44.8058701  29.3983960  34.1732717  42.5633335  28.7479877
  34.7974253  43.2778978  28.6212540  34.6259832  41.9496679  29.3265224
  15.4517678  17.7780954  67.3582462  16.0001067  18.5585014  67.2774575
  16.0319069  17.0527450  67.1268616  66.7263842  61.8531847   1.5863599
  67.3219681  61.7285252   2.3252591  66.8678284  62.7601767   1.3150936
  45.2717113  14.5876765  43.5673332  45.0612926  15.4313719  43.1671667
  46.2237406  14.6001339  43.6659050  28.8235950  28.4008121   7.2035480
  28.6238098  27.9871035   6.3638079  29.7783756  28.4675813   7.2165108
  82.8548261   1.9390368  22.0032597  82.3425266   2.7039503  21.7411900
  83.7657949   2.2129416  21.8967414  27.6519087   7.4541132  64.0922603
  28.2028512   6.9431583  63.4992883  28.0105094   8.3405105  64.0482828
  84.7291346  18.4868471  44.4842956  84.1608162  17.9209940  43.9617488
  85.4322214  17.9100505  44.7829649  10.0883751   1.4102625  16.1053705
   9.2530708   1.7802500  15.8197165  10.4176979   2.0338224  16.7526269
  56.9219971  65.2814817   3.9096445  57.7456522  65.3585148   3.4280974
  56.3506126  64.7798347   3.3281752  44.8572063  60.8442354  10.9700680
  44.9597263  59.9401093  11.2671852  45.7374048  61.1102057  10.7041013
   5.5955725  16.0298800  30.2822733   4.9950914  15.3789114  30.6454325
   5.5168848  16.7820143  30.8690763   9.1221579  32.8128886   1.2155232
   8.8618811  32.9099798   0.2995209   8.5702571  33.4356308   1.6886336
  32.1527076  51.9873142  16.4504671  32.0535207  51.0833311  16.7491424
  31.4102912  52.1282721  15.8629465  49.0941833  66.1016028  69.5006890
  48.6721252  66.8835156  69.1447226  49.2505227  65.5453651  68.7375454
  69.1711472  65.8949845  72.4216916  68.4504484  66.1011856  73.0169295
  69.9609374  66.1051099  72.9199979  63.2646751  54.1164255  15.4953134
  63.8255835  54.6540642  14.9362445  63.0037355  53.3830214  14.9383020
   5.2963550  72.6311104  46.1117909   5.7167012  71.7853348  45.9562251
   6.0206515  73.2269661  46.3030598  24.3757609   7.2755662  70.0617725
  24.0501669   8.1582586  70.2380398  23.8267401   6.7057602  70.6004128
  80.6789874  83.7755077  64.3269310  79.9988459  83.8576286  63.6584291
  80.8268689  82.8329127  64.4036290  64.4207430  13.6839700  40.3684330
  65.0556850  14.3129492  40.7111645  64.0531778  13.2661402  41.1472416
  21.9797448  30.6861393  61.1829123  22.8562335  31.0312311  61.3529489
  21.6561011  31.2062255  60.4473874  62.1897411  64.3658781  19.6233177
  63.0107594  63.8813114  19.7090983  62.1013641  64.8360300  20.4523993
  31.3118914   3.5796873  64.6620277  30.4740218   3.4819023  64.2096469
  31.9369343   3.7850324  63.9667675  72.8310154  38.8510944  69.3042067
  72.7456234  38.9790024  70.2489713  72.5210618  39.6722801  68.9223507
  52.1793440   2.7388755  49.4949362  51.9474677   2.1785251  48.7543485
  52.7151373   3.4331838  49.1114137  49.1273689  60.1124763   4.3702528
  48.9816332  59.2516756   4.7626987  48.7726068  60.7303143   5.0095105
  57.8080559  77.6507568   9.4444448  58.2037783  77.1661425  10.1688647
  58.4994745  78.2412481   9.1452950  53.0806112  39.9304342   8.6987245
  52.8011370  39.3707609   9.4232196  52.8385735  39.4422221   7.9117709
   8.1587827  35.3770661   8.0833560   8.9921594  34.9437428   7.8991139
   7.5007200  34.6929789   7.9600263  59.5394850  51.3797617  12.1078634
  59.7875166  51.0914230  11.2294710  59.7695494  50.6440449  12.6753318
  19.1471127  26.6582529  71.6671077  18.9118270  27.4938909  72.0703221
  19.1232470  26.8312923  70.7259813  51.7288589  29.7690749  10.6476736
  52.5462008  29.2963266  10.4905546  51.7988062  30.0743484  11.5521884
  47.7803373  28.5475254   8.5858959  47.8814173  27.8065300   9.1833407
  48.4645844  28.4203982   7.9287225  52.0606518  72.4881172   2.1939623
  51.4415312  73.2064724   2.0640247  51.5931606  71.8670988   2.7525511
  25.6067562  31.6428161  24.3304038  24.8448348  31.7524815  23.7614751
  25.9759736  30.7971573  24.0758991  86.5125370  46.8205214   1.7388055
  85.5733299  46.8364620   1.9228248  86.5902519  47.1867800   0.8578707
  63.9821005  74.5396137   4.0667579  64.2339659  75.1068878   3.3380634
  64.8105907  74.3038321   4.4841844  71.1027690   2.3316168   7.2209662
  71.9816133   2.0574831   6.9588244  70.5354186   2.0257734   6.5132892
  13.3459449  60.2950478  16.2187421  13.9067328  60.0515890  16.9552720
  13.8551891  60.0616360  15.4425836  14.2159442  15.8335153  68.9063374
  14.6386841  16.5164081  68.3855859  14.3453864  15.0315658  68.4000215
  36.1192966  57.2499323  27.3959017  36.6927505  57.8593111  26.9310999
  35.2339888  57.5521612  27.1931243   9.3030480  23.1755916  57.4807463
   9.3825153  23.5690347  58.3497224   8.8555053  23.8401166  56.9569692
  84.2726229  82.4336379  64.3745444  83.8544224  83.2573192  64.1237614
  85.2095507  82.6295393  64.3697533  78.9997387  57.1545982  18.0215812
  78.6056185  57.7459431  17.3803234  78.2877350  56.9494963  18.6275637
  45.6583261  81.2405109  17.5266874  45.9727240  81.9968796  18.0219531
  44.7613382  81.1090946  17.8338897  21.8025521   8.8889066  64.5698771
  21.2064007   9.1477386  63.8671396  22.5217465   9.5184175  64.5178608
  90.2864594  18.0543081  45.1234338  89.8211498  17.4426881  45.6940863
  89.6030374  18.4334604  44.5707962  25.5013347  43.1955910   1.7735672
  25.1956940  43.7938356   1.0917179  25.6139374  42.3578882   1.3243380
  57.4666119  24.7012901  26.4510393  57.9630995  24.9099445  27.2423649
  58.1155252  24.3334532  25.8511758  38.5108355  27.7655641  66.0326061
  38.9916352  27.3760263  65.3023127  38.2712773  27.0218364  66.5855203
   2.2049551   9.6040129  14.6987665   1.5211229   9.9926924  14.1532958
   2.9907398  10.1114153  14.4955266  35.0572419  50.0183821  16.2749732
  35.3517199  49.9735785  15.3653002  34.3043709  49.4284487  16.3123357
  31.2402081  11.1461937  34.3808198  30.9503627  11.2269294  35.2895021
  31.9222760  11.8111837  34.2869973  63.8831615  70.9539700  15.5689836
  63.0700922  71.4498234  15.6652868  64.5717430  71.5741682  15.8086598
  43.1819916  53.4687328  34.1115808  43.8504171  53.8024712  33.5132027
  43.1507158  54.1127968  34.8189950  27.6831463   5.5497161  66.0151992
  27.5942734   6.3459245  65.4913792  26.9518880   5.5858032  66.6317901
  38.6162305  53.7657261   0.7079768  38.2675815  53.6404467  -0.1746222
  38.7738156  52.8787088   1.0313905  73.6376762  30.1602864  17.6916683
  73.3425665  29.7403312  16.8837214  74.5501280  30.3936982  17.5208199
  40.3501463  83.1836700  16.2679780  40.9868670  83.4399414  16.9351673
  39.6318889  83.8081169  16.3699543  12.7632121  25.5393116  68.0662278
  12.1594838  24.8743717  68.3972910  13.0452469  26.0165445  68.8465700
  29.8110414  43.9336014   1.9643103  29.9924397  43.5863829   2.8376743
  30.2504778  43.3262825   1.3690865  30.1015067   7.2715169  10.0199962
  29.2955709   6.7621481  10.1051152  30.5281997   7.1889973  10.8728480
  30.5488089  28.3108083  61.1487553  30.3411654  29.1333620  60.7054529
  30.3394011  27.6329366  60.5062065  42.9431534  43.2918596   2.2087760
  42.1835375  43.3572483   2.7875167  43.4554052  44.0784550   2.3961163
  59.9024868  39.2088652   0.0619855  59.1036034  39.1129637   0.5804661
  60.0516272  40.1536274   0.0243624  58.1807470  46.5922451   7.4219865
  57.9437208  47.4864435   7.6678818  58.8066006  46.3174820   8.0920935
  45.8387852  43.4538984  17.5309050  46.0708141  44.3783045  17.6195860
  44.8839092  43.4393215  17.5959742  75.2691337  21.4941858  11.0715568
  74.3576738  21.2571692  11.2426972  75.3952142  22.3173689  11.5434694
  90.8453317  48.5802650  10.5924082  90.6631480  49.1901064  11.3073456
  90.1007675  47.9787254  10.5951118  45.5951432  17.8833095  54.3830702
  46.0488204  18.5961334  53.9333031  44.8177794  18.2947532  54.7607598
  26.8321351  30.2975885  71.9750654  26.3044480  29.7925321  72.5936874
  27.7322510  30.0204650  72.1460191   5.4800943   9.1281215  51.6500065
   6.1336902   9.8065654  51.4804241   4.7511414   9.3473951  51.0696790
  26.8505553  30.4827777  48.0284998  27.0209530  30.8909504  48.8773773
  26.7900637  29.5469944  48.2205293  54.6260023  64.5176458   6.5314245
  54.6627378  63.6916971   6.0490453  53.9237261  65.0113106   6.1079443
   6.1409903  60.0245953  28.3436990   6.8171006  60.7000780  28.2905126
   5.3426695  60.5020285  28.5694647  66.0432100  56.7436409  16.5274704
  65.6066990  56.5345860  15.7016468  66.5150404  55.9434271  16.7582607
  50.1668545   5.4703402  14.7734165  50.3473672   5.5844378  13.8403416
  50.4284593   4.5685743  14.9594617  80.0101395  12.1522895  38.2833597
  80.7526119  12.7440635  38.1618306  80.3910072  11.3682500  38.6788962
  91.1915158  71.4250081  65.6338487  91.6858338  70.6505506  65.9023616
  90.3006838  71.2594383  65.9424577  65.1669291  21.4410726  65.5036191
  65.9620169  21.7183439  65.9588030  64.4710044  21.9704477  65.8930800
   4.3056353  66.7739487   1.9310614   3.8118514  66.5987206   2.7321237
   3.6882075  66.5881062   1.2236196   8.4766906  63.9902163  35.3414488
   8.1017846  64.5719433  36.0027170   9.3121499  63.7098074  35.7150936
  15.4658059   2.1698991  74.1140028  15.9915713   2.0647375  73.3210717
  14.7534350   1.5383379  74.0145403   6.5238483  83.6198299  63.0070004
   6.8191821  83.2357185  63.8325140   7.3193938  83.9736192  62.6092896
  68.3861903  31.0850517  72.4878805  68.1443003  32.0039980  72.6030408
  68.5020903  30.9844820  71.5430609  11.0691857  50.6897449  13.9015293
  11.6798329  50.1058435  13.4516406  11.2548375  50.5599737  14.8315430
  20.7531098   4.0045253  51.9162223  20.5068949   4.4137565  51.0866806
  20.7925585   4.7303764  52.5389645  52.3565388  60.9958696  22.2885418
  52.5408602  61.5972567  23.0100632  53.2013464  60.8762503  21.8546915
  55.9262753  44.8029232   7.2071540  56.3349342  44.0953732   7.7057570
  56.6027164  45.4778051   7.1506298  62.7703190  58.8838005  19.2953706
  62.0156050  59.4401455  19.1027033  63.1819963  58.7353659  18.4440649
  69.8188065  84.9148576  32.1214745  69.2775796  84.3775003  31.5430710
  70.7019995  84.5596187  32.0214388  73.3621262  62.7180450  72.3708989
  72.6407383  63.1770341  71.9405970  73.6684512  62.0882695  71.7183820
   6.3984191  81.2053871  28.7012792   6.9288999  80.7840443  29.3775129
   7.0370913  81.5806484  28.0950499  37.6465845  51.7219734   6.2150002
  37.3767567  52.2133875   5.4391545  38.4761190  51.3153648   5.9644562
  62.9409170  33.0027390   5.8483642  63.2283926  32.0986032   5.9753734
  63.6271000  33.3990526   5.3114069  82.8316466  74.9504232  20.1574850
  83.6901025  75.1676273  20.5209541  82.4149660  74.4136429  20.8316350
  55.0742865  52.0131922  22.6665330  55.9293127  51.6677952  22.4098825
  54.7197628  52.3957348  21.8639088  31.8427372  52.8422308  11.2709463
  30.9174585  52.6871014  11.0811377  32.1459818  52.0257044  11.6678858
  19.1537503  42.7318994  63.0553863  18.7393645  42.3224775  62.2958503
  18.7165288  42.3359148  63.8092182  54.7342157  47.1684265   7.7467799
  54.9787426  46.2484217   7.6466119  55.4266500  47.5423288   8.2917261
  20.4211930  23.8511936  71.1559561  21.0636881  23.9547340  70.4540214
  19.7514990  24.5083467  70.9665159  27.4734143  34.5351831  72.7265943
  28.0872325  34.3917743  73.4469382  26.8666247  33.7966959  72.7783683
  60.0541830  56.6681290  11.8989360  59.8536873  55.8659792  12.3812103
  60.8176088  57.0324516  12.3469090  20.4051570  32.2274009  59.7137747
  20.0437859  31.3506214  59.5837626  20.0073413  32.7554838  59.0216026
  10.1932410  35.7799808  69.9539233  10.5007628  35.9600059  69.0655229
  10.7740620  35.0893108  70.2730769  71.4377880  76.5702915   6.6608047
  71.5926409  77.2828579   6.0407251  72.3070049  76.3525343   6.9973707
  38.4124613  36.9574881   6.4770639  37.9598737  36.5760994   7.2293532
  38.8867188  36.2238908   6.0857201   9.1122821  10.5678598  49.4983933
   9.1948536  11.3888732  49.0132639   8.5063437  10.7706825  50.2110884
  79.9948863  35.9468071  55.9675715  80.7925871  35.6181757  55.5529532
  79.2833499  35.5741588  55.4469225  38.2785784  76.7475288  58.0028245
  38.7306361  76.0275047  58.4426424  37.3499070  76.5823548  58.1656716
  47.8373098  34.9088597  15.2674639  48.4240389  34.7240376  16.0008240
  47.8744173  34.1201353  14.7263837  51.4678144  11.3086867  41.4171743
  50.5958509  11.2208796  41.8021393  51.9912291  10.6367362  41.8539238
  58.9214849  45.5028725  12.7556491  59.1088915  45.4738951  13.6938763
  58.4258080  46.3128471  12.6353168  44.0758276  35.3392196  23.9008546
  43.9132071  34.4190311  24.1083121  43.2598686  35.6428838  23.5030699
   5.3961376  16.7550317  59.8142788   5.7898143  16.9190637  60.6712172
   5.5387405  15.8211748  59.6599898  72.1039820  50.3232908  16.7265868
  71.4135551  49.6678257  16.8261397  72.2833443  50.3413534  15.7865155
  68.9585829  30.7108903  13.3279896  69.5696926  31.3612032  13.6742091
  68.1129360  30.9515500  13.7064099  73.8344669  60.5519819  27.9065943
  73.5075140  60.9886885  28.6931157  74.4296265  59.8787117  28.2363367
  35.4322433  61.5837097   6.8940479  35.7923150  61.0839605   6.1613619
  34.7935081  62.1722031   6.4916503  20.2786950  17.0645420  69.1707448
  19.4599942  17.4780742  69.4445026  20.3936461  16.3347856  69.7794161
  55.4487324  53.2065439  18.9245951  56.1234283  53.4106874  18.2770288
  54.7144508  53.7751818  18.6928523  66.1348438  67.3733997   1.5800048
  66.2827063  66.7112112   2.2551903  65.2458334  67.2035027   1.2685132
  31.1021852  23.2182598  19.1112947  31.3990903  23.4913278  19.9793458
  30.1493526  23.3024931  19.1465902  67.4077629  85.4478090  49.4029686
  67.9505442  85.5095165  48.6169574  66.9812106  84.5937603  49.3330405
  55.0132418  50.8273315  10.6431055  54.2822313  50.9957266  11.2376606
  55.7850552  51.1323881  11.1200523  27.6890397  68.0574942  33.7226915
  27.9476738  67.1879673  34.0280890  28.0709195  68.1274462  32.8477597
  31.6066718  42.8754997  26.2989068  31.0756302  42.1598196  26.6482401
  32.3067021  42.9901171  26.9415975  20.8175782  23.0986444  51.0228059
  21.0745123  23.7432043  50.3634498  20.5438498  23.6223642  51.7758152
   0.1540717  66.1528015  13.6073506   0.3844317  65.9154606  14.5055890
   0.9727248  66.0654545  13.1190801  17.5869572  54.6440697  42.3513412
  16.6557026  54.7294378  42.5555706  17.6071393  54.3773937  41.4322615
  66.7751980  56.7824602   2.3956026  66.4718914  57.5970554   1.9947694
  65.9721565  56.3198233   2.6350260  64.3764161  32.2800653  59.7518012
  63.7585710  32.1973138  59.0254054  65.0556038  31.6323905  59.5635078
  26.5134696  16.1602727  58.4262476  26.9213513  16.8167297  57.8615115
  27.1470049  16.0233347  59.1306016  88.9085002  19.9395696  72.4099480
  88.7897296  20.8044521  72.0173896  88.4533019  19.3424884  71.8162096
  47.6966988  85.5277936  71.7539275  48.2135926  86.3333528  71.7653066
  47.2649418  85.5323045  70.8996451  70.3251982  65.4097176   0.7422332
  70.4788923  66.2941265   1.0745446  70.2476025  65.5200529  -0.2054150
  15.5812626  11.2112307  12.9787064  15.1455813  10.4288649  12.6405907
  14.8814611  11.7136740  13.3959115  82.6748465  54.1696363  51.6491124
  83.4317874  54.7313325  51.4824769  82.9172991  53.3232908  51.2734148
  37.7080107   3.3120257  23.3103180  37.2215295   2.5454989  23.6136413
  38.4171891   3.4123096  23.9453292  74.7658873  81.6841030  46.0848856
  74.7625685  81.8678379  47.0242786  74.0354490  82.1963596  45.7380629
  78.8144064  51.6703749  19.4623804  78.1559086  51.2387514  18.9180291
  79.1386414  50.9789944  20.0395250  28.6398625  47.9279327  -0.0964858
  28.9604831  47.3235130   0.5729249  28.4681273  48.7414360   0.3778079
  51.7366600  74.6794748  29.0836811  51.4298296  75.5674410  28.9003801
  51.1464214  74.3580246  29.7652364  18.4795073  70.3101865  66.5699378
  18.5531596  69.3813745  66.3505826  17.9232148  70.3289930  67.3486665
  34.3201852  34.7247934   4.1805038  34.8942947  35.4860091   4.0957895
  33.4397197  35.0716519   4.0366220  20.3912858  84.5235153  13.3324647
  20.8717087  84.7780121  14.1202819  20.9123591  83.8163590  12.9521406
   5.1765783  62.2813277  71.9710677   5.2061374  62.4501174  72.9128042
   5.2316577  63.1488888  71.5703989  33.2841492   9.9831319   1.1576570
  33.3813000   9.1737461   1.6593429  33.6983347  10.6531715   1.7014667
  67.4165392  50.7593584   1.2390776  68.0129910  51.4800072   1.0362493
  67.3549700  50.7610321   2.1942939  37.2066140  32.8753042  17.0200145
  37.3557353  33.6269426  16.4464021  38.0572867  32.7125335  17.4275577
  82.4068471   3.9880823  18.6651647  82.1508905   4.2900156  19.5366895
  82.9665347   4.6859907  18.3247030  38.0820492   8.5657922  70.3794527
  38.6333159   8.1833450  71.0621474  38.3823804   8.1528703  69.5698047
  61.4425039  54.6347189  26.2817454  61.2567806  53.9047718  25.6910515
  60.6101704  54.8031473  26.7234254  54.4503880  20.0842166  28.6849117
  54.5446348  19.7830153  29.5885873  53.8744736  20.8463860  28.7453127
  73.2064438  66.6020393   7.8003365  73.4260988  65.7102060   7.5308663
  72.9428148  66.5173244   8.7166083  80.1185131  77.1774483  23.2874298
  80.0404644  77.2498322  22.3361683  80.4979610  78.0126095  23.5608506
  25.9412125  49.3905775  68.5954747  25.0949505  49.6971838  68.2697931
  25.9205988  49.5819418  69.5331246  47.8068590  60.5560446  28.0995679
  47.8575468  61.3315296  27.5407457  48.1337738  59.8433828  27.5505042
  80.4083558  13.6875795  15.1182055  79.6523353  13.1218218  15.2750003
  80.2399560  14.4652819  15.6502318  61.5716934  39.0448642  19.0833139
  60.8901310  39.6882510  18.8890052  62.3889685  39.5412874  19.0402138
  42.6560095  35.2258483  71.0928065  43.2936171  35.8895151  70.8296785
  43.1422213  34.4018356  71.0639248  58.4666967  65.2559090  12.1942043
  58.5866165  64.5323324  12.8092563  58.6981153  64.8866749  11.3419473
  60.4222725  84.7223299  63.3644006  61.3498972  84.4862764  63.3690057
  60.1121734  84.4920366  64.2402074  53.4541750  51.7241096  15.1273036
  52.6993895  51.1614037  15.3001952  53.1416798  52.6088524  15.3165376
  48.9552259  31.9041848   4.5433092  48.3539343  31.9674635   3.8012317
  49.6668053  32.5067806   4.3270588  40.7229662  53.2772064  23.5469604
  41.2585449  54.0189314  23.2654762  39.9215055  53.6756134  23.8863206
  46.3119173  49.3014193  15.5213618  45.7165575  48.7268734  15.0400376
  47.1331024  48.8116789  15.5665290   6.4629037  79.6235697  70.6904328
   6.9324023  78.9707820  71.2097303   6.4752586  80.4135435  71.2308243
  30.0031352  33.0559516   1.2261124  29.2287874  33.1315017   0.6685188
  29.8527074  33.6853123   1.9314530  26.1115149  21.1385290  65.7389448
  25.8908299  20.2085296  65.6876395  26.6862658  21.2066022  66.5013466
  54.9838352  34.1882849  13.3296609  55.5565643  34.2550802  14.0936971
  54.2733431  34.8043299  13.5083306  51.2533808  42.4656630  19.4050288
  50.6211185  42.8213263  20.0295138  51.1057711  42.9668617  18.6030078
  89.0461826  33.6724186  26.5254188  88.2797909  34.0210128  26.9807816
  88.7227249  33.4409022  25.6547832  63.7684298  56.3075209   2.7527991
  63.7115383  55.4551888   3.1846914  63.2964945  56.9029951   3.3349609
  49.2870951  51.8299150   8.6513925  49.8924732  51.2688971   9.1361666
  48.4298515  51.4234972   8.7786424  90.7068272  36.1072008  35.3278324
  90.5389376  35.2402536  34.9584458  90.9934850  35.9340660  36.2245390
  67.1938419  72.1952438   8.0395210  67.0009041  72.8643751   7.3828101
  67.0924664  71.3655710   7.5730455   2.9778644  34.8661733  15.1907313
   3.5199475  34.3295121  15.7689822   2.4735363  34.2332125  14.6796083
  21.6839293  33.6045019  54.4587765  20.8689622  34.0852968  54.3142316
  22.3615531  34.2804185  54.4726071  63.4881306  45.8320713  14.0224481
  62.9130697  45.8568001  14.7872519  62.9350805  46.1231279  13.2974303
  84.1003704  54.5953321  34.8476601  83.8013554  54.0962267  34.0875840
  83.9298916  55.5084801  34.6167302  85.4225491  49.3282871  72.2915501
  85.3818892  50.0858723  71.7079032  84.5832919  49.3352048  72.7518025
  33.2958031  52.6200676  26.3702893  33.2044101  51.7453384  25.9924912
  33.1403065  53.2151747  25.6368732  42.2435331  37.2348666   2.2104298
  42.5704718  37.3428583   1.3173014  42.9697514  36.8290782   2.6839012
   3.1986388  35.1600718  42.0457554   3.2228335  34.2067981  42.1289253
   3.4408625  35.3272533  41.1349249  32.4212170  34.9524426  11.0369372
  31.5132642  34.7498822  10.8114910  32.5009179  35.8943892  10.8865428
  71.5286589  70.4812384  24.2589784  71.5869474  69.6527958  23.7830377
  72.3165846  70.5013800  24.8021126  60.0237560  45.1497030   5.4604012
  59.9907351  44.8843956   6.3795060  59.1058350  45.2294397   5.2009964
  33.2923436  69.2823696  46.3030291  32.9955578  70.1724243  46.1134386
  34.2024970  69.3873167  46.5802240  48.8242388  37.1119118  17.6383603
  49.7584343  37.1571493  17.8419781  48.6030436  36.1854506  17.7330852
  82.0398590   4.9939608  14.9566531  81.3223335   5.4192614  14.4870722
  82.6603290   5.7002806  15.1365197  -0.0770467  61.2613051  67.6768873
  -0.3878157  61.7338197  66.9046286   0.8267171  61.0265009  67.4664006
   4.1508329  84.8670292  34.8717022   4.7395799  84.3065739  34.3662381
   3.5412103  84.2588043  35.2896094  27.9628829  40.3743211  64.2628000
  28.9089659  40.4955904  64.1824767  27.5862673  41.0431139  63.6908743
  24.6991324  26.0931611   8.5394889  25.6555271  26.0606599   8.5615599
  24.4246817  25.1943564   8.7213069  78.6263990  39.9978471  41.7938614
  78.0734348  40.3500843  41.0964441  78.0690527  40.0125599  42.5719261
  52.0452404  80.8943653  12.9957604  52.4117613  80.2665138  13.6184144
  51.4813519  80.3681469  12.4288774  50.2679634  26.2383509  14.3523216
  49.4540167  26.5233374  14.7676575  50.7377100  27.0507050  14.1635096
  90.2723883  75.5860178  55.6208775  90.7278346  75.4451911  54.7908351
  90.7060288  76.3476102  56.0058031  42.0685816  83.4695816  37.1380973
  41.6358137  82.8876591  36.5133476  41.7911673  83.1486511  37.9961610
  49.9664783  28.5399318   3.7395266  50.4554272  29.3565059   3.8413709
  49.9981833  28.1322479   4.6049857  58.5842705  85.0266743   1.7478415
  59.0657949  85.0347137   2.5750664  59.1913700  85.4079914   1.1136015
  73.5684776  83.5866642  16.3239741  73.8502216  84.4774628  16.1158001
  72.8405237  83.7022591  16.9346750  12.3013171  23.0669904   7.5988656
  11.8791159  22.4126315   8.1554568  12.1343573  23.9000607   8.0397135
  41.5285873  39.5416164  17.5188398  42.3611546  39.8723578  17.1816790
  40.9180307  40.2700853  17.4057412  57.8486538  74.1064692  28.9591146
  57.1638203  73.4418392  28.8849711  58.4973907  73.7175179  29.5457053
  42.2465018  72.4095193  73.5619247  43.0249766  72.3416463  74.1147380
  41.6494683  71.7453519  73.9064120  37.1364621  21.9550602  70.2483973
  36.5140608  21.4602701  70.7813424  36.8997840  21.7434732  69.3453768
   9.9731665   1.7613863  38.5509992  10.3793507   2.3157763  39.2172527
   9.1274481   2.1750902  38.3782482  53.2899427  61.7510653   0.2011391
  53.3081961  60.8775997   0.5922277  53.4079981  62.3471498   0.9407219
  14.3817643  25.3468696  74.1018658  14.0619734  26.2009470  74.3925784
  15.2730445  25.5160801  73.7965575  14.2840823  47.7369928  23.7992525
  13.5014590  48.2702923  23.6602664  13.9699515  46.9715405  24.2805433
  24.8348789  18.4175657  26.3222814  24.4406872  17.7401899  26.8718266
  25.5049210  18.8164495  26.8774009  70.0166988  82.7268982   3.4417483
  70.2281809  83.4895420   3.9801496  70.4749680  82.0006752   3.8646191
  60.4981184  77.2646666  34.4263840  59.8584461  76.8183184  33.8715672
  60.2160597  78.1793642  34.4289351  54.1335917  22.3138213  20.3452945
  53.8965940  21.4243102  20.0829363  54.4216776  22.2267962  21.2539554
   6.9559864  23.5241787  62.7696059   6.7211035  23.0960933  61.9463167
   7.9122380  23.4889785  62.7935633   7.4327305  44.8944608  64.3941471
   7.2489146  44.0592710  63.9641521   8.3611086  45.0527517  64.2230043
  57.7669355   6.2997221  17.1284485  58.5271951   6.8073629  17.4122298
  57.8391549   5.4731440  17.6057220  40.5743722  15.0679437  54.0700314
  41.4949301  15.2042429  54.2941472  40.1303938  14.9952690  54.9149177
   3.3938178  65.7229519  27.9557323   3.6346491  66.4058590  28.5817289
   4.2304858  65.3777456  27.6442099  63.0829811  85.5050945  24.9834824
  63.1361151  86.1342049  25.7029438  62.2029114  85.1351738  25.0532818
  59.8883486  79.5491648  19.3543458  59.3174887  78.9480972  18.8757312
  59.3341017  80.3062820  19.5435917  45.5887250  51.0283987  68.2294402
  45.8737162  50.2373449  67.7720157  44.9187449  51.4062826  67.6597336
  60.9796190  57.4142361   3.2401490  61.1504364  58.2634830   3.6473814
  60.5054045  57.6253128   2.4359104  40.4057196   3.6227743  70.9054351
  40.5560235   3.2468692  71.7728091  41.0322836   3.1737606  70.3379515
  51.4604378  85.5915833  21.7543387  51.7387581  85.2168083  20.9186840
  51.9156742  86.4321709  21.8033242  35.2568579  73.9362717   8.2644343
  35.6202245  73.8433313   9.1450930  35.9751272  73.6897516   7.6817268
  37.0200133  69.5261574  13.6244941  36.5263247  70.2809191  13.3038104
  37.1998763  69.0070200  12.8406703  70.3778839  57.3142481  10.4898012
  70.9690142  56.6013622  10.7318604  69.6541119  57.2471571  11.1126029
  37.0612982   3.6948864  47.7082631  36.5952471   4.4336454  48.0997536
  36.3734940   3.0653707  47.4917767  70.5559083  14.8059534  26.3690877
  69.7279188  15.2808928  26.2976789  70.3058502  13.8825392  26.3374305
  58.9568043  59.9360323  29.7127676  58.6513901  59.2458439  29.1240478
  59.8648739  60.0891399  29.4516039  12.9078035  14.5384573  56.1314917
  12.3139029  15.2725386  56.2884474  12.3316555  13.8085531  55.9045076
  60.1583672  64.6062899  17.5260258  60.9149408  64.4792557  18.0984688
  59.5200729  63.9588785  17.8254712   2.9566228  73.6996786  70.9788117
   3.6805761  73.5762731  71.5927229   3.2127607  74.4595186  70.4560593
  31.3966775  84.7130108  11.1795259  31.2327027  84.9737167  10.2732277
  32.3145556  84.9382401  11.3312066   8.5634097  60.7386684  21.1074996
   8.5790881  60.2163076  20.3055477   7.9012068  61.4100075  20.9431481
  45.3905153  37.4296784  10.2273655  45.1660347  38.3498263  10.3658116
  46.3358641  37.3893881  10.3720200  68.6710215  47.8667879  22.1915388
  69.4933462  47.5018454  22.5183773  68.9258623  48.6816549  21.7587805
  79.7566625  26.5435766  10.7002270  79.2746660  26.0077929  11.3301826
  80.4358503  26.9725012  11.2207675  77.7435875  51.7820454  38.3017254
  77.1555567  51.4675283  37.6150489  77.3687029  52.6200247  38.5728097
  62.0563889  65.6125164  22.4752378  61.4187145  66.3202333  22.5687265
  62.3444510  65.4299831  23.3696270  64.0201759  59.3263054   8.1477529
  64.0175629  59.1691399   7.2035480  63.0963087  59.4293976   8.3759582
  66.6732454  69.4310808  30.4728389  67.4974918  69.4690371  29.9876475
  66.9014215  69.7220230  31.3557434   7.6684964  61.0221052  13.6450231
   7.9180789  61.3105631  14.5229375   8.4974736  60.9499121  13.1719303
  73.0402517  54.9234200  31.6409445  72.3732996  55.5991602  31.5193558
  72.6611090  54.3259144  32.2855186   0.4090793  80.0678389  67.0345489
  -0.4764693  80.3524702  67.2604135   0.4914291  80.2598302  66.1004237
  41.8895531  62.2718763  12.0458245  42.7869177  62.5791883  12.1743679
  41.4092875  63.0484343  11.7585254   2.5503569  13.3691954  23.2954216
   1.8513088  13.6307596  22.6961327   2.2582512  13.6774706  24.1532516
  36.1957795  80.9176915  72.1564404  36.7520482  80.9154980  72.9354068
  35.5527742  81.6068642  72.3232416  63.1530857  65.6580925  37.5107503
  64.0712929  65.4700708  37.3164058  63.1843853  66.2711191  38.2452250
  76.4967414  10.1826834  32.7638340  76.8462345  10.5643820  33.5690594
  75.7879135   9.6105932  33.0579567  18.0729227   4.1937613   5.5702597
  17.6864319   4.9448275   6.0205501  18.4411316   4.5600485   4.7662148
  74.3567249  16.8113016  16.3035548  74.1619846  15.8762335  16.2406290
  73.6532041  17.2360300  15.8127391  56.4798212  71.8820715  28.8044071
  56.1890316  71.0366058  28.4625578  55.6722212  72.3272705  29.0609574
  67.8669643  49.3420267  19.4774842  67.6545763  48.4236431  19.6439075
  67.1649599  49.8316717  19.9060512  38.8591461  22.1437620   2.9909691
  39.1382008  22.9106497   3.4912258  38.2102947  21.7162680   3.5499591
  76.7018747  43.0292845  20.6507945  77.4175167  43.5637426  20.9949398
  75.9297037  43.5909414  20.7180786  71.7328882  49.8251295  21.9951153
  72.5299931  50.3457403  21.8960381  71.0383272  50.4718971  22.1196437
  47.2404766  76.5763092   3.5030329  47.8560305  77.1213627   3.0128887
  47.5610018  76.6043901   4.4045365  78.8802147  84.8449707   1.9618297
  79.4672394  85.2266026   2.6145124  79.2258263  85.1483536   1.1223385
  10.6443366  71.5782595  15.4248357   9.9854716  70.8846521  15.3925300
  11.0910090  71.5238428  14.5799971   6.3083391   0.9266638  51.5116501
   6.6177206   0.1895594  50.9851599   6.9053631   0.9542250  52.2593403
  59.0398502  68.8730669  23.4873104  59.4760799  68.9223814  24.3378997
  59.6360683  69.3195295  22.8861189  42.7522400  20.3102867  72.6230063
  43.4243277  20.3234474  71.9415696  43.2257680  20.5107776  73.4303499
   5.0416716  43.7062597  35.4707980   5.7813891  43.1003284  35.5143213
   4.8231753  43.8836050  36.3856983   7.2733363  63.9414835  32.8763843
   7.8079280  64.0505743  33.6628628   6.8338069  64.7846937  32.7666783
  81.1345100  55.2254438  37.4961853  80.3488350  54.9003649  37.9358220
  80.8046150  55.6787586  36.7203569  47.9620266  77.6673079  11.8995488
  47.2517490  77.0268726  11.9393396  47.5236654  78.5008144  11.7282844
  24.6120766  26.6941492  72.1617553  24.9563054  25.8051530  72.0755779
  24.1947201  26.8721334  71.3189236  19.0357809   3.8461660  58.2258224
  19.0575581   3.4711813  59.1062450  18.1175213   3.7857698  57.9624128
  80.7072926  74.7482967  13.4325027  80.9694099  74.8756838  12.5207472
  80.4463959  75.6196451  13.7306893  35.1086664  73.4645748  26.2829185
  34.3655372  73.1388474  26.7907524  35.3439689  72.7359676  25.7084632
  86.5678501  44.5291328  46.0433149  86.4106083  44.1685534  45.1706791
  86.2562561  43.8507891  46.6424751  20.0716095  15.0783991  38.2955098
  19.7566013  15.8899569  37.8975487  19.7965889  15.1377939  39.2104220
  56.1732340  71.7712307  45.1032019  55.3546095  71.3849688  44.7919226
  56.0701895  71.8171453  46.0537291  50.4522705  16.2321591  27.5192213
  51.2548447  16.7139292  27.7192235  50.6527138  15.7571828  26.7127156
  44.6223497  80.8746624  23.9839077  45.2034950  80.1239300  23.8618207
  43.7762833  80.5798912  23.6469936  58.7984467  75.6702089  32.7855468
  58.1903076  75.5727530  32.0528150  59.4825077  75.0222588  32.6168680
  22.4824933  34.6089403  73.3350724  22.4072245  33.7416593  73.7330557
  21.9534329  35.1764480  73.8956633  83.0942249  70.6291103  21.9606519
  83.1069756  69.7781515  21.5225410  84.0120411  70.8997869  21.9849253
  72.6955128  61.0345459  30.3910184  71.8233967  60.6499481  30.3030992
  72.5461483  61.8667984  30.8396554  80.6800289  18.1704799  64.6427671
  80.1756353  18.0576984  65.4484347  81.5706201  17.9115907  64.8795280
  19.9708545  43.9386463  14.3070769  19.3183434  44.6376657  14.3498349
  20.6827354  44.3071795  13.7839711  25.9990653  44.0460539  27.7299571
  26.1952265  44.7520638  28.3458281  26.7317732  44.0549707  27.1140981
  19.0664792  35.0376916   5.9868056  18.5727489  35.3198314   6.7567796
  18.4506369  34.4969082   5.4923141  69.1755152  26.1624742   9.3808872
  68.9844322  26.6182828   8.5611588  69.0935421  25.2339292   9.1633576
  38.2318667   5.6669036  70.1355565  37.7166394   5.6475250  70.9420267
  39.0277365   5.1793710  70.3480214  54.4601701  33.7449877  67.4392209
  55.3876971  33.8849454  67.6298532  54.4030331  32.8219633  67.1922556
  53.6847925  38.6812258  12.9344189  53.1583595  39.2797923  13.4643412
  54.5869827  38.9700222  13.0718327  23.0076197  76.4846910   4.9561220
  23.7927798  76.3082416   4.4378382  23.1108931  75.9437955   5.7390642
  89.9731968  74.5360987  63.2686994  89.3558501  75.2476327  63.0988977
  90.5714510  74.8900001  63.9267847  31.7669085  16.0052864  48.3785412
  32.1479395  15.2865736  48.8830206  31.4479807  16.6194049  49.0398857
  19.3645453  70.0778580  21.6858792  18.6047435  69.9653721  22.2570896
  19.0039492  70.4386282  20.8759117   3.7124566  14.6228544  31.8175528
   3.6597184  13.6875764  32.0142910   2.8091863  14.9327318  31.8832466
  21.9475293  40.4951954  33.4921694  22.7284646  40.0881386  33.1171012
  21.3117862  40.4980850  32.7765894   3.3382995  29.0028267  50.4667566
   3.5577399  28.1675200  50.0540325   2.9472835  28.7599020  51.3059971
  81.7288970  62.3539214  67.4902407  81.8741511  62.8195946  66.6666624
  82.6071452  62.1233337  67.7931259  36.2585425  26.8974972  11.6962457
  37.1295404  27.2035122  11.9491243  36.3275003  25.9428477  11.7073715
  53.1420135   0.9873924  18.7175596  53.4576654   1.4268626  19.5071566
  53.9150095   0.5484996  18.3624732  27.0638064  10.1466838  53.0700753
  26.5883473  10.0116149  53.8897869  27.6508645  10.8805505  53.2518241
  45.4862690  82.6086712  10.6630075  44.6039677  82.9466248  10.8165038
  45.5410433  81.8249416  11.2098265  47.1429920  21.4704180   9.3444908
  46.3852739  20.9036732   9.4890362  47.7404118  20.9413838   8.8158667
  67.6169395  67.4778461  11.5346766  68.4302807  67.0464420  11.7965937
  67.2963953  67.8915358  12.3361409  55.0759935  10.0325382  18.0834687
  55.3997278   9.4166875  18.7408543  54.4467354  10.5779111  18.5555220
  42.8664494  27.4281311  13.8730967  42.8587103  28.2767963  13.4304500
  42.1009636  27.4505234  14.4473481  15.0991276  10.7596103  55.3069720
  15.9313897  10.6375114  55.7637713  15.0106886  11.7087308  55.2199039
  14.1610439  50.9224378  45.9192822  14.4518430  50.9985023  45.0105021
  14.7006900  51.5523909  46.3969610  62.4218348  17.7815525  60.4580185
  61.9078711  17.2207443  61.0390291  63.2037238  17.9994146  60.9653780
  57.2908805  60.5385559  65.5938521  58.1696008  60.9130149  65.5316982
  56.9683121  60.5336802  64.6926538  55.1097584  15.3014028  27.2195244
  55.7535982  14.6394026  26.9676161  55.4469919  15.6639862  28.0386925
  29.2189625  26.7887012  40.8115170  28.8602427  27.4628393  41.3886568
  30.1481370  27.0063821  40.7375309   3.7317237  31.5558004   5.3546929
   4.2776831  31.0929990   5.9902781   4.0489348  32.4585843   5.3788614
   3.6584003  50.7095175  47.0575688   3.9220388  51.3543420  47.7140186
   3.0952031  51.1965888  46.4560649  20.1526403  37.2273707   4.5869642
  19.5708859  37.1437526   5.3424776  20.6057739  36.3855696   4.5392638
  68.5296202  63.7099361  41.7885303  69.2735243  64.3122292  41.7795897
  67.9006767  64.0970755  41.1796093  76.8206290  45.6770277   7.0370060
  77.3287801  46.4862347   7.0935774  77.3850421  45.0117493   7.4308062
  43.1376532   6.9561473  65.2460847  42.8145579   7.8179590  65.5089865
  43.8431624   6.7659942  65.8644167  65.9395266  32.4338722  10.7084358
  66.8382740  32.1140623  10.6296396  65.9981298  33.3665109  10.5011177
  86.8413447  70.2268498  46.5210078  86.5090035  69.8086588  45.7267163
  86.5771912  71.1431067  46.4377615  31.8124274  29.4052497  56.1299476
  31.9054535  30.1660625  56.7033050  30.9796885  29.5453970  55.6792364
  26.3467884  19.1342044  28.9330077  26.7835569  19.6561515  29.6060872
  25.9468627  18.4095693  29.4138336  48.6918068  47.3406124  19.3293238
  48.8809967  46.9270277  20.1715732  48.6224222  48.2737637  19.5309353
  73.8626385   8.4243023  19.9374580  74.5946598   7.9083091  20.2752900
  73.7975740   8.1730813  19.0161073  68.8557053  49.6088171   7.7659881
  68.3882093  48.9480114   7.2550946  69.5486116  49.9170828   7.1819627
  81.1756358  28.5675669   1.8070157  81.7274151  27.9477477   2.2840856
  81.7547301  28.9420414   1.1432013  52.4417019  43.4276628  10.8984864
  52.5326729  44.3654585  11.0672975  53.2331610  43.0393028  11.2713099
  10.4272377   4.6225125  22.8069758  10.0456023   3.7654287  22.6172543
  11.0791373   4.7521988  22.1181798  21.7470121  33.8768506  12.4422848
  21.5472794  32.9653239  12.6554883  21.7297125  33.9084268  11.4857626
   2.4533328  60.3298521  13.0695057   2.8970297  59.9857378  13.8447165
   1.6253432  60.6767416  13.4016538  39.8038650  24.6944165  20.2043939
  39.5180273  24.4323635  21.0795283  39.9568868  25.6366968  20.2745605
  70.2521038  55.4263926  16.7545152  69.7116566  54.7819710  16.2974942
  70.4222727  56.1036921  16.0998905  32.2326735  22.8591529  69.3244604
  31.8184737  23.6124698  68.9035264  33.1614712  23.0872909  69.3634531
  32.9899430  14.1174698  16.1705422  33.7246895  14.6284032  16.5101421
  32.2144556  14.5341980  16.5462947  67.8678130  57.6784675  52.1564624
  67.3012780  57.7758472  51.3910959  68.3312200  56.8541651  52.0081065
  31.9498444  35.7220483   3.2949823  32.1586466  36.4261603   2.6810956
  31.0771894  35.4277325   3.0340505  25.8177260   7.3431007  74.2741338
  26.1703471   7.2838298  73.3862271  25.4647854   6.4709751  74.4503878
  84.4672726  78.6566584  65.8120588  83.7444876  78.5194318  66.4244178
  84.5311307  79.6078579  65.7262013  58.2758904  31.5834188  13.3452594
  58.6641026  30.7762694  13.6829507  58.2020426  32.1524692  14.1113913
  80.8348607  39.3499120  49.5043776  81.3719653  38.8559158  50.1238272
  81.4095782  40.0495939  49.1939328  46.3916520  15.5804769  55.8856723
  46.2743453  14.8430912  55.2867291  46.4317540  16.3482133  55.3154025
  11.8466813  68.4845846  23.3110068  11.6415794  67.5523703  23.2393286
  12.0578582  68.7528150  22.4167559  57.9583216  14.8557842  18.9501178
  58.1706381  15.7851768  19.0360260  57.0152426  14.8396206  18.7871087
  13.4691334  63.4649658  29.7298193  13.5394728  63.9987326  30.5212593
  12.6395869  63.7319326  29.3338227  71.4999390  46.7531157   1.5754782
  72.0655107  46.2700510   0.9729734  70.6782770  46.8626976   1.0968396
  76.6442441  72.6293080  65.9135721  77.5127266  72.3869317  66.2348584
  76.0719012  71.9236796  66.2148062  72.9157828  82.1729009  57.7174303
  73.3785342  81.7711418  56.9821200  72.1870659  81.5783422  57.8954694
  64.5384979  23.5857272  12.5091112  65.3810930  23.8064599  12.9060233
  64.0953970  23.0522132  13.1688499  29.1099811  29.9799609  20.5661321
  29.8252130  30.2477980  19.9891245  29.0682888  29.0284991  20.4701304
  15.6376219  31.6403794  36.9217706  16.5263546  31.4161634  36.6458821
  15.3167880  30.8521128  37.3598695  47.5129747  14.4101620   0.7640447
  46.9220066  14.4685948   0.0133290  48.0152512  13.6096907   0.6117343
  86.6844224  83.6359994  64.3937013  87.0543097  84.2732875  63.7827322
  87.3744820  83.4977453  65.0424955  38.1751375  58.5268943  64.1696558
  38.6817061  57.9560213  64.7473446  38.1604831  58.0664282  63.3306155
  25.4860142  23.1562892  57.3776338  24.5295886  23.1507198  57.4157188
  25.7614688  22.8039114  58.2239113  59.4733953  21.8703175  10.6400728
  59.3736219  22.5944996  10.0221419  58.6239481  21.4291930  10.6312704
  37.9841232  27.8131509  17.9681110  38.6535382  27.1727157  17.7273691
  38.4119964  28.3757186  18.6136138  40.7987738  44.4455576   3.8969848
  41.3245344  45.1598167   4.2570496  40.2106142  44.1978836   4.6103966
   4.6261747  49.1690873  50.8689639   4.4268901  50.0108956  50.4592345
   5.5116088  48.9611529  50.5706379  33.3422494  69.2855930  15.8624899
  33.9897227  68.9814997  16.4985216  33.8055778  69.9445248  15.3454161
   9.9591625  74.2319870   7.8014123   9.6162897  75.1076460   7.9799926
   9.2852956  73.6386490   8.1332034  57.3205757  28.0965161  26.0433745
  58.0876923  27.6506639  26.4025187  57.6783752  28.7074280  25.3991723
  18.4906510  85.6101430  21.8347836  19.3368033  85.8163438  21.4376259
  17.9371384  86.3618204  21.6230321   7.7692488  50.2926485  69.7130713
   8.3880619  49.9733202  69.0563086   6.9074324  50.1221601  69.3330220
  45.6979275  26.1943674  20.9868979  44.8116922  26.0060430  21.2956858
  45.7866907  25.6792355  20.1850295  62.3724747  14.9903774  14.4181359
  62.5194454  14.8948944  13.4771192  61.4944172  14.6368504  14.5604992
  51.9481897  66.6546059   3.0949521  52.2671556  67.5217581   2.8448725
  51.0011435  66.7007494   2.9637882  40.3953436  29.0686266  51.9834373
  40.8527115  29.8305170  51.6276738  41.0035542  28.7023870  52.6254461
  48.2065010  39.7981334   2.9135874  47.5124216  39.1441202   2.8314310
  47.7430058  40.6209803   3.0695578  30.1413373  10.8189766  72.1235012
  30.1013497   9.8638240  72.0753223  29.4969729  11.0522691  72.7917821
   7.8191093   7.2511140  51.5978596   7.0742491   7.8483192  51.6668842
   8.4012083   7.5107090  52.3120043  50.7561016  33.5576940   3.3304882
  50.9576464  33.1916046   2.4693315  50.5061626  34.4644308   3.1527501
  48.1505871  38.6113596  22.8620958  47.3529530  39.1387773  22.9050469
  48.8251305  39.2211556  22.5631452  25.3950099  12.0060293  45.9766052
  24.5008544  12.3201219  46.1110065  25.3711346  11.5733615  45.1231048
  66.9199324  84.4361305  17.0769286  66.8090153  84.7054386  16.1651134
  67.3537445  85.1798153  17.4952340  50.7513523  60.7449484  20.0164390
  51.2483644  60.7823038  20.8336377  50.0633717  60.1008081  20.1837587
  56.8003627   1.3432383  22.0374370  57.5441262   0.7505583  21.9289374
  56.4922305   1.1801886  22.9288960   9.4240672  68.4878867  67.7015910
   9.0678937  69.3342011  67.4311749  10.2677018  68.6997049  68.1011430
  60.8403758  23.6616079  53.3650443  61.1525420  24.2581407  52.6846549
  60.8468226  24.1867010  54.1653344  86.1863612  56.4281015  73.4632086
  85.8819817  56.8348174  74.2744840  87.0257281  56.0305505  73.6948377
  70.6174755  61.7479801  15.5627394  71.3806820  61.1731863  15.5047262
  70.9298849  62.5940180  15.2420282  68.2995844  17.2576046  36.5890765
  69.0876007  17.6831377  36.9269967  68.0451107  17.7890956  35.8347607
  86.8536185  79.6957271  47.1511481  87.7585076  79.9363654  46.9524047
  86.8166445  79.6717565  48.1073353  72.1276855  55.2790833   6.8205220
  72.2218943  56.1961126   7.0782262  71.2777615  55.2396297   6.3819951
  57.3615170  63.1924438  24.0084362  57.9861736  63.9000416  24.1676354
  57.4464464  62.6216507  24.7721219  52.7057150  16.1646692  70.2831814
  51.9966296  15.9519474  69.6764040  52.5456599  15.6061260  71.0438675
  82.4599552  57.3178244   2.6966110  81.8295002  56.9294310   3.3031717
  83.3040333  56.9528866   2.9622915  74.9780512  50.6592226   1.4866580
  74.1662169  50.1942444   1.2842768  74.7816133  51.1471701   2.2863764
  77.7047157  45.1007557  28.5920024  77.5293732  44.6463394  29.4160104
  77.4123049  44.4904995  27.9150128  84.4528580  27.3815727   7.9574633
  85.1455021  27.8422451   7.4839091  83.8295841  28.0673790   8.1971002
  59.6096706  57.9237747   0.9901962  58.7485123  57.7715826   0.6009939
  60.0949526  58.4025812   0.3182737  25.6201609  71.6061258   1.8742144
  25.7085665  70.8808374   2.4925819  24.9761828  72.1879482   2.2779469
  31.8719292   0.6995875   9.1748822  30.9317923   0.8590467   9.2582244
  32.0933628   1.0236590   8.3018541  78.7509251  80.7218552  13.3528447
  78.5596991  79.9212217  12.8643322  79.2132092  80.4205608  14.1349864
  17.8454787  69.0011232  55.4523442  18.3087594  68.2861989  55.0159023
  18.0528123  68.8897555  56.3801584  79.5547722  84.4566934  46.7372248
  79.1695498  84.2230098  47.5817535  79.0562771  83.9480941  46.0976455
  69.5581888  54.8486047  54.3655202  69.7010897  54.1207855  54.9705741
  68.9608406  55.4336696  54.8314664  78.9445162  54.8531866  39.0783906
  79.0292215  55.7990074  38.9580560  78.0147982  54.6758747  38.9354753
  44.0942049  59.0449953  19.4772756  44.1602421  59.4690800  20.3328586
  43.3723593  58.4236956  19.5729911  12.0743397  36.0927669  55.6790099
  11.3489417  35.7834474  56.2215528  12.1239785  35.4603139  54.9622319
  29.2779025  33.8313150   5.8192295  29.1588648  33.3211637   6.6203576
  28.3882674  34.0341377   5.5300218  30.7295493  24.6113864  72.7985774
  30.0224188  24.7631923  72.1715591  31.1057118  25.4784671  72.9499171
  71.0032511  84.8555183   5.2465874  70.4520369  85.2896976   5.8976495
  71.7824316  84.5868206   5.7333267  34.8304391  34.2802334  12.4024773
  34.6842051  33.3472538  12.2462869  33.9947152  34.6933103  12.1853006
   2.7174766  83.8273971  55.0895605   2.1382053  83.9557855  54.3384311
   3.2174403  84.6415298  55.1483652  43.0770520   4.3426172  56.4106057
  42.1467188   4.5659534  56.3818095  43.5277871   5.1765672  56.2779722
  87.7765560  66.5580130  27.8239417  87.7460861  65.6060457  27.9191065
  86.9480324  66.7830467  27.4006939  84.5442125   3.7575602   8.8998121
  84.5344612   3.2202505   8.1077051  84.9013587   4.5985292   8.6143982
  18.7703827  24.0216152  64.6157983  18.3792285  24.8161642  64.2525945
  19.3579892  24.3363563  65.3027365  57.9190588  52.1195602  22.9902911
  58.4929895  51.5521908  22.4755764  57.9504395  52.9637337  22.5401592
  29.3921144  80.0798695  52.5551483  29.6973188  79.2012804  52.3289606
  30.0285585  80.3969281  53.1959650  89.0843678  50.9165812  35.5353045
  88.9615917  51.8508148  35.7037187  88.6910629  50.7747126  34.6742487
  35.4469899   0.7609359  68.1967250  34.6768740   0.9733717  68.7240062
  35.2027873  -0.0361784  67.7264032  34.7130728  45.0793266  25.3612924
  34.4874597  45.4397631  26.2188554  35.1074004  44.2289305  25.5551195
  90.5979633  19.1604686  26.1213303  89.9586678  18.9708018  26.8080354
  91.4474392  19.0197086  26.5394258   3.0730111  67.1432130  51.1474750
   2.2470338  67.0132296  50.6815383   3.2768209  68.0697029  51.0197542
  79.6570015  59.4034910  12.6472390  80.5702019  59.5348930  12.9022396
  79.2467546  59.0126801  13.4187293  10.8558825  26.1674635  43.3397124
  10.2418069  25.5588905  42.9288790  11.5769557  26.2388221  42.7142546
  45.8664131  62.9096460   0.8058140  45.9514189  62.0712757   0.3517890
  46.7648411  63.1537580   1.0282207  43.2205486  61.1718035   8.8061816
  42.6530933  61.9220829   8.6292273  43.6049080  61.3589287   9.6626163
  52.1305350  20.7210104  65.2950213  51.4709071  20.1943962  65.7464520
  52.9514960  20.2497331  65.4369936  37.7169895  60.7681322   0.6648140
  38.3439231  60.2805138   1.1990565  36.8622351  60.4254627   0.9259709
  22.7787617  22.9449550  57.1786496  22.1427277  22.3927728  57.6333902
  22.3042468  23.2802812  56.4179776  52.2263575  23.8838434   0.8651166
  52.7611876  23.2519126   0.3846467  52.8004980  24.6400023   0.9868450
  29.9879578  20.3242151  51.1318586  29.1146163  20.4409591  50.7578513
  30.2107886  21.1824552  51.4924142  66.7999983  49.2174387  15.3244770
  66.2152100  48.4599781  15.3471375  66.8313742  49.4682693  14.4012594
   4.4647196   6.3931123  45.8398721   4.8521331   5.8959381  46.5602634
   4.0167407   7.1234838  46.2666056  57.4023390  58.6422825  22.3127413
  57.7215576  58.7538910  21.4172649  57.4092770  57.6954746  22.4532294
  21.5774754  18.2523862  63.7430463  20.8911303  18.9023582  63.8937089
  21.5730980  17.7119152  64.5330492  44.6541957  21.2520687  64.8600117
  43.7624911  21.5840427  64.7556743  45.0950888  21.4893238  64.0441952
   6.7266233  69.9508350  60.1983354   5.7910258  69.9093764  60.0003991
   6.7737014  69.8701065  61.1509619  85.1402326  16.9223396  72.9842349
  84.3523116  16.9190780  72.4407265  85.0796909  17.7334062  73.4889514
  36.6329956  55.5704641  19.5164275  35.8417416  55.8109999  19.0344620
  36.5528941  54.6263647  19.6524322  54.9893713  41.8494606   5.0940889
  55.5684471  41.7248344   5.8459991  54.4875336  42.6364994   5.3061211
  60.4634190  33.2251978   7.5630051  61.2914610  33.0409646   7.1195680
  59.8519468  32.5812244   7.2057492  22.8285122  84.8154640  44.4757700
  22.9033422  85.6559944  44.0239429  23.4132028  84.2311859  43.9930868
  75.0659469  69.4591856  46.4331961  75.5786983  68.9151430  45.8354187
  75.7021359  69.7752714  47.0747471  66.6841046  78.7163544  26.8402004
  67.3809925  78.0613947  26.8803525  66.0160128  78.3211899  26.2800837
  77.4214963  50.9488821   8.1516612  77.8680698  51.3102102   7.3859942
  76.8351392  51.6486454   8.4393245  32.5091141  14.5017599  36.2691975
  31.8581500  14.5159411  35.5675745  32.7653725  15.4177355  36.3767099
  87.1103258  45.0477314  28.2386398  87.7674008  44.4030857  28.5011625
  86.3146386  44.7794676  28.6981511  65.3782503  57.4532747  53.4282923
  65.1096336  56.8715382  52.7171993  66.2678257  57.7199984  53.1964588
  13.6945820  63.2590961  47.8540373  13.4691918  62.3740721  48.1406784
  14.2195070  63.1286764  47.0643044  88.9102138  53.6591911  24.8552394
  88.7033413  54.2006540  24.0934944  89.8445202  53.4702015  24.7681355
  73.5989443  72.3787069  52.4834108  72.9988126  72.4445724  51.7406225
  74.4421605  72.6701927  52.1366358  15.0626707  48.1030941  35.1759696
  15.6596184  47.3694801  35.0286770  14.5569527  47.8490973  35.9479594
  73.8696066  64.0239525  42.6033783  74.5546011  64.2365932  43.2372570
  74.3446556  63.7144375  41.8321705  59.2209307  67.8003359   7.0947862
  58.9442650  68.7150097   7.0394993  58.4065548  67.3101950   7.2078609
   1.0512497  72.8066301  12.0750868   0.7819916  72.9926968  11.1755824
   0.2508685  72.9072237  12.5903571  61.5860287  69.0305996  32.5683618
  62.2401730  69.7254610  32.4942255  62.0785467  68.2698822  32.8765297
  72.3920052   8.3219035   7.7859047  73.3445447   8.2611878   7.8581073
  72.2404127   8.6790450   6.9108608   8.0082548  73.8305616  65.3039551
   8.3931369  73.2155514  65.9283495   8.7568355  74.1836786  64.8231602
  15.4402971  69.3005466  21.2836003  15.0804138  69.5529461  22.1339011
  16.1036646  68.6421394  21.4901805  66.9975320  62.3194933  38.0243611
  67.8730646  62.1227551  37.6912427  66.4872090  61.5317583  37.8365493
  48.5196158  26.5010237   0.7137800  48.7654611  25.6907915   0.2673203
  49.3523439  26.8867468   0.9858342  22.9765463  29.5628047  19.8344886
  23.9190459  29.7275376  19.8064148  22.8627896  28.7406754  19.3576288
  14.2759097  74.3592787   9.6927619  13.7612343  74.2396593   8.8946193
  14.7502136  75.1785946   9.5513594   6.8465537  66.0004616   2.4454273
   6.9363385  65.2580738   1.8479069   5.9164262  66.2239647   2.4116567
  76.6801814  82.0695019  36.2538695  76.6565100  81.1631870  36.5608835
  75.8974329  82.1587372  35.7102013  68.7539903  66.0824013  16.7890978
  68.8361255  65.7251692  17.6733327  67.8564111  65.8747959  16.5293217
  37.1321845   7.3224545  20.8293629  37.7054858   7.9892480  20.4512835
  37.0513630   7.5703388  21.7503715  70.0011484  51.5963507  23.2060456
  69.2108408  52.1091890  23.3752728  70.4583851  51.5765142  24.0467429
  89.6835323  76.2867069  22.8161502  90.3162155  76.4384747  22.1140718
  88.9131259  75.9326601  22.3719025  66.0612197  33.2331173  69.0375480
  66.4876671  33.6218111  69.8012829  65.4370035  33.8982479  68.7473980
   4.5491222  33.2382250  16.9757199   4.2156741  32.4046040  17.3075640
   5.3268945  33.0010867  16.4706767  82.7327923  76.9595003  37.6719427
  83.1107376  76.4980125  38.4205532  83.4646795  77.4511003  37.2992420
  79.3379251  73.7678337  34.5007586  79.0517584  73.2922792  35.2806234
  80.1350454  74.2209387  34.7755790  15.6327999  84.6962643  13.2237899
  15.8562708  83.8814449  13.6736250  15.3016365  85.2688026  13.9157248
  86.1021946  39.1127324  50.0586700  86.5034411  39.9773717  49.9713182
  86.4720920  38.6030960  49.3377781  66.3291971  52.8586674  51.9466400
  66.0509626  52.4788380  52.7800322  66.1144511  52.1907806  51.2954521
  13.1789851  67.5141144  43.1978369  12.8087592  67.1521854  42.3927450
  14.1020679  67.6615047  42.9918575  78.2863251  65.6577587  36.8529725
  78.1003789  64.7205019  36.9095683  79.0900449  65.7116890  36.3359070
  33.5416985  84.4282913  27.6549125  33.1980300  85.1355362  27.1090794
  33.9787936  84.8757267  28.3794689  28.5372782  55.6365442  62.1994543
  29.1436172  54.8970366  62.1580887  29.0831017  56.3797283  62.4563313
  15.4224324  63.1674242  25.4018283  16.1544657  63.7123013  25.1129222
  15.7197428  62.2694683  25.2551579  83.1976727  53.3981562   1.6779238
  83.4171800  52.8616190   0.9162293  83.8583509  54.0907764   1.6814280
  23.5467577  44.0313721  67.6839924  24.0050268  43.5898781  66.9689369
  24.2344737  44.2410231  68.3159161  12.5785327  50.6754637  37.6397753
  11.7315316  51.1210632  37.6235414  12.7728009  50.4967117  36.7197013
  90.0699609  14.8958528  18.6439335  89.4207732  14.4808936  19.2119086
  90.0625685  14.3674779  17.8458118  87.8549773  52.5499630  43.0353355
  88.5106442  52.2118139  42.4254274  87.0299969  52.1675014  42.7364016
  33.8917091  32.6343798  26.1477113  34.3836304  33.4418940  25.9988117
  34.2041638  32.0351385  25.4698420   0.8211166  85.4246235  32.8363347
   0.1336914  84.7730446  32.9746056   1.3044369  85.1049042  32.0744896
  18.2856381  57.3859596   4.9706015  18.8375354  58.0069923   5.4459548
  18.9046288  56.8158436   4.5144793   6.2420005  81.5975571  43.7962484
   5.4708338  81.4468098  44.3428802   6.4585608  82.5193214  43.9365530
  25.6205392  71.8654060  49.7030687  25.8777666  72.1282148  48.8193321
  24.7473955  72.2398996  49.8197174  57.6482073  84.4362640  71.9479942
  57.7172438  85.1972485  71.3714743  58.4531061  83.9427185  71.7905760
  68.7437478  74.7495461  27.8634620  68.9862529  74.5970249  28.7767863
  69.0039626  73.9480209  27.4095035  72.8846899  76.6219187  27.9198694
  73.8109068  76.5511560  28.1508398  72.6015262  75.7174587  27.7856922
  39.5793971   8.4364008  35.5975294  38.7236240   8.3020185  36.0047483
  40.2084478   8.2416033  36.2922096   4.7236151  67.5559139  69.7311449
   5.6143093  67.8613997  69.9031162   4.6361497  67.5965595  68.7788153
  45.9437546  19.3524622  46.6339111  46.0648736  19.2730307  47.5800896
  45.2693614  20.0244116  46.5343523  44.3910202   5.6338762  16.9857717
  44.6436449   6.0843920  16.1798906  44.1347822   4.7570776  16.6997659
  83.9981625  59.1844893  43.9413643  83.5470585  59.3407106  44.7710228
  83.3062676  59.2251873  43.2811689  23.0218077  47.8019476  63.6483049
  22.7006102  47.5561762  64.5158625  22.5048375  47.2711802  63.0422831
   5.1563305  66.5872955   9.0191090   5.7357025  66.7532301   8.2754517
   5.2834296  65.6599808   9.2195076  75.1918336  19.4974302  51.8959808
  75.5324479  18.6177515  52.0584440  74.3252155  19.4975542  52.3024368
  32.4132530  11.4318823  30.8269334  31.6849772  10.8214163  30.9417391
  33.1839135  10.9420084  31.1138797  48.4327277  10.9464907  34.4834948
  48.5167214   9.9930548  34.4715691  47.8121075  11.1410593  33.7812090
  10.7500100  73.1352663  53.0001163  10.3018355  73.6235905  53.6907005
  10.5457342  72.2183609  53.1839275   5.3799868  73.2115602  16.1456406
   5.1845390  72.6099825  16.8640673   5.8766133  73.9201212  16.5549505
  77.2165413  15.3659431  69.7573722  76.8543382  15.4328434  68.8738761
  76.5783639  14.8392908  70.2386180  20.9766936  79.8538685  31.2170124
  20.5033898  79.9638891  30.3923225  21.8935633  79.7648001  30.9569192
  42.8692436  54.0819693  30.1812625  43.4760141  53.9616537  30.9117341
  42.3329067  54.8325729  30.4365516   6.9152915  60.9565926  10.6908405
   5.9894848  60.8044291  10.5012095   6.9202662  61.3399887  11.5678895
  20.1841378  49.8109722   7.8251839  19.3060744  50.1295662   8.0343091
  20.1409602  49.5817280   6.8968445  25.8082175  65.3866673  35.7818675
  26.6560984  65.6887722  36.1075449  25.2417064  66.1561012  35.8390617
  86.4445806  62.1036911  23.0587769  87.1661935  61.6669559  22.6062608
  85.9032658  62.4627066  22.3556995  18.8572574  44.3741608  42.4591446
  18.8841510  45.3215694  42.5930214  19.2536533  44.0091324  43.2502556
  69.1961924  76.2843943  14.0667510  69.8388687  75.9517336  13.4402263
  69.6325818  76.2171316  14.9160290  88.1282658  68.2236052  30.1550364
  87.9167280  69.0892649  29.8055840  88.1258748  67.6491117  29.3894100
  25.8265758  73.6786556   5.3853184  25.2146411  73.3324146   4.7357920
  25.2925539  74.2507982   5.9364116  66.6562263  83.4460163  27.9048395
  66.9816629  82.5667858  28.0978966  66.4149896  83.4142017  26.9790840
  68.2469193  43.2638264  19.8832297  68.1387178  43.2093048  18.9337289
  69.1943399  43.3008623  20.0145912  24.8878431  74.7279882  20.4847670
  24.7774696  75.6003571  20.1065850  25.3832817  74.8769903  21.2901044
  52.5015899  16.5768694  22.4093318  51.8819567  15.8679174  22.5815845
  52.6378676  16.5510248  21.4622355   9.5849317  74.9589348  40.3314638
   8.7245762  74.6636343  40.6294918  10.1166236  74.9889421  41.1268520
  76.3031275  36.8193094  58.6190543  77.0237775  37.0539609  59.2037222
  75.6874688  36.3436548  59.1766808  78.6390332  81.7882538  32.7637863
  78.9514974  81.7397308  31.8603253  79.1881851  81.1661339  33.2408857
  13.8009858  61.0730457  31.3210821  13.4680510  61.7769384  30.7643747
  14.5639670  60.7365417  30.8511281   5.5432600  75.4360485  22.6371551
   5.5525964  75.5998325  21.6941166   5.6828642  74.4925213  22.7177763
  30.0706196  59.6876669  13.1861305  30.1168633  59.9955082  14.0912962
  29.6089172  60.3843212  12.7195084  49.2685958   7.3794054  44.6903753
  48.8930413   6.8380522  45.3847265  49.0555092   6.9135927  43.8817692
  61.0775273  60.5381052  71.6393084  60.8403281  59.6458379  71.3866774
  61.9097201  60.4426614  72.1025336   5.4994420  18.5841743  67.3321733
   6.3001898  18.9651577  67.6925728   5.0716523  18.1716911  68.0825624
  28.5011053  31.4312148  17.3872054  27.5571108  31.2883329  17.3187125
  28.5848546  32.3305607  17.7040577  55.2804061  18.7637877  43.1813812
  55.0995442  19.2526983  42.3785877  55.9596750  19.2727255  43.6238813
  64.2626943  29.1013558   2.8941848  65.1117735  28.6628420   2.8394010
  64.4571208  30.0223477   2.7203729  23.8859940  80.5005646  30.5394650
  23.3774805  81.2934971  30.7094765  23.9306235  80.4447079  29.5849395
  76.7711183   3.6497568  45.9322023  76.3835641   4.3292593  46.4838409
  76.2514802   3.6684107  45.1285505  10.7408762  42.4585295  31.3692141
  10.6703150  43.2374382  30.8173490  11.5946710  42.5423384  31.7937613
  59.2671510  10.2179312  71.4322519  59.5202752   9.6551107  72.1639538
  59.9208900  10.9171175  71.4305830  87.0933194  73.1261873  17.0461750
  86.2536714  73.3334017  16.6359496  87.4034990  72.3507643  16.5784788
  34.1776752  69.1149950  35.1442647  33.5850239  68.5152483  35.5973721
  33.6117530  69.6071243  34.5494771  14.8901108  52.1254293  71.7938173
  14.9527911  53.0803339  71.8152795  14.0591792  51.9498006  71.3522909
  19.4034192  19.0946268   2.1264172  19.4989594  18.5668348   2.9192221
  18.6382386  18.7266420   1.6844729  19.8055851  50.3105688  19.0496731
  20.1682448  50.9558916  19.6565211  18.8579822  50.4320669  19.1089833
  13.1133008  68.3849192  28.5941148  12.1624780  68.2747269  28.5993981
  13.3719885  68.1901264  27.6933551  88.9067776  85.1464081  36.6406608
  89.8371101  85.1990509  36.4217067  88.7434626  84.2120361  36.7691541
  43.5906553  73.4485292  52.7231741  43.2114649  73.3558273  51.8491840
  43.3648920  72.6326656  53.1699753  38.7621888  12.2570967  19.5385075
  38.7016949  12.3691057  20.4872060  38.8612541  13.1462549  19.1981876
  10.2148676  61.6728401  12.9569900  10.0273705  62.6077127  13.0412281
  10.6664073  61.4449406  13.7696445  27.6051760  79.7330856  15.3165388
  28.5058165  79.9873114  15.5176544  27.5759125  79.6911144  14.3607068
  42.0807370  14.9928164  48.6464882  42.7354809  15.5315374  48.2022858
  42.0174452  15.3682970  49.5246935  24.9910855  69.7352934  66.3702774
  24.2343211  69.1499376  66.3402987  24.8636317  70.3295994  65.6308270
  83.4396902  81.4245796  46.1904097  83.1897239  82.1736908  46.7313194
  84.2225281  81.7168713  45.7235432  34.0689278  58.1994295   5.2719426
  33.5698557  58.8069344   5.8179212  33.4389043  57.5197935   5.0323611
  21.0877642   7.1104406  28.9925981  21.7057988   7.1160006  28.2616854
  20.2265438   7.1654295  28.5784626  69.9828264   1.1209272   4.9930879
  70.6233093   1.2301134   4.2901725  69.1508814   0.9840178   4.5399255
  79.0624908  44.0870619  45.4487658  79.6360604  44.7941113  45.7442808
  79.6308020  43.3177853  45.4105043  50.7967636   3.7355780  36.4256215
  51.1516186   3.9965414  35.5757928  51.0458108   4.4455217  37.0173907
  84.2290673  61.7735720  32.3103309  84.0371368  62.6832819  32.0826864
  84.0638468  61.7222834  33.2517695   1.9583960  48.2655668  48.6260748
   2.3032627  48.7772417  47.8943014   2.6724643  47.6732922  48.8617611
   2.2900838  77.0441103  33.4872222   1.4719388  77.5154352  33.6444545
   2.5704738  77.3339987  32.6191330  36.8438831  24.0375589  11.6194558
  37.5373885  24.2478155  10.9940970  36.8928089  23.0869841  11.7207181
  35.7826075   1.2154936  23.1997609  35.1497495   1.6893171  23.7394071
  36.1486509   0.5530809  23.7858105  12.7377522  75.3546810  49.6792889
  12.9375637  76.2875080  49.7576332  11.8920219  75.2533865  50.1159954
   7.4642366  62.6805878  65.2744818   7.1315527  62.0322990  65.8951855
   6.6868782  63.1619692  64.9912500  72.9607121  60.8277321  54.2366934
  72.7565829  60.1562023  53.5858393  73.7410334  61.2637568  53.8943338
  83.6885330   7.4105238  15.5131125  84.5120689   7.3033690  15.0371552
  83.1562778   7.9703306  14.9478209  22.6538291   6.5399527  42.3371696
  22.9241308   5.7488798  42.8034163  23.3667251   7.1611094  42.4860668
  74.2429393  25.0001128  19.3947628  73.4014731  24.7824271  19.7957351
  74.1622477  25.9232266  19.1548088  35.3663945  80.5882740  26.5326905
  35.2272582  79.9158955  25.8657694  34.5339131  81.0587502  26.5758038
  86.5534765  60.9212875  35.6545568  86.1366526  61.3716507  36.3891768
  86.3798133  61.4832783  34.8994112  79.4267634  76.7505741  52.5020266
  80.3534082  76.5975380  52.6868057  79.2631189  77.6392031  52.8179312
  89.0432823  80.8374310  33.7221909  89.2869020  80.6206512  34.6221280
  88.5030682  81.6234779  33.8030243  44.6940708  64.1089439  10.0476789
  44.0612841  64.1750288  10.7628322  44.5962143  64.9295378   9.5646876
  39.3586206  58.0047369  32.4289417  39.1013622  58.1467676  31.5179658
  39.0220094  58.7700605  32.8949881  74.9529858  65.0311033  72.4573872
  74.5086081  64.1905824  72.3465096  75.4406388  65.1534883  71.6428650
  11.2655294  83.7392139  33.8697314  10.8519709  83.7148762  33.0068231
  11.1930513  84.6533012  34.1443729  38.2079950   0.5017828  45.8202934
  37.2972741   0.4638552  46.1124945  38.2618841  -0.1478220  45.1193333
  10.1914620  58.7408924  28.7012386  10.5829287  57.9787731  29.1280365
   9.7050184  58.3774662  27.9612875  54.0100670  79.1917562  51.4124012
  54.6071720  78.7600231  52.0233917  54.5073080  79.2566156  50.5970669
  68.3498539  14.9794904  58.9388952  68.1557305  14.5691673  59.7816191
  67.5003655  15.2833883  58.6191342  13.2525957  73.9264536  43.5986567
  13.1338072  74.0144920  44.5443678  13.9112568  74.5849133  43.3776712
  44.5392510   9.1633104  54.2864895  45.3625044   9.5800280  54.0318727
  43.9421460   9.8931669  54.4508123  24.4123788  26.6092578  66.3109258
  24.1043301  25.7204620  66.1337695  24.1693659  27.1070282  65.5302862
  44.5583984  10.6939577  12.6282084  45.2357944  11.0539030  12.0556641
  43.9229604  11.4035296  12.7229095  88.0891655  71.0068321  15.0480938
  88.1784842  70.5036688  14.2387235  88.6406562  71.7774677  14.9131310
  37.3368454  67.6130819  31.4161563  37.8688097  68.0333471  32.0918965
  36.9569421  66.8495560  31.8508124  30.6411702  15.2181314  17.1960437
  30.5550485  14.7359346  18.0184150  30.7081178  16.1352037  17.4620044
  73.1069584  32.7518026  62.4065063  72.1962078  32.5232784  62.2206518
  73.2464011  33.5770599  61.9420323  36.7836261  84.9610806  61.5692234
  36.7898417  84.1532040  62.0825624  36.0455036  84.8575783  60.9686470
  68.0751845  56.8576693  13.0126166  67.4202939  56.3948225  12.4900007
  67.8157803  57.7776312  12.9616106  13.9989710  64.2698765  41.0699272
  13.6045551  63.6349916  41.6679192  14.9314749  64.2546368  41.2854195
  22.5903841  25.7593988  38.5543704  23.2420942  25.8547663  39.2489266
  22.9093352  26.3209986  37.8478980  69.5539585  79.6154356  13.0130553
  69.2927877  78.7727118  13.3843172  69.6195165  79.4526196  12.0720851
  -0.1956724  59.8773670  38.4728122   0.4336355  60.4226208  38.0006909
   0.3382727  59.1998196  38.8876224  81.5240095  37.7677131  58.3786297
  80.8948807  37.0485449  58.4354162  80.9970609  38.5572219  58.5020638
  74.5453528  19.3671715  30.8181238  75.0539068  19.3810117  30.0073147
  74.2517678  18.4599066  30.9012508   6.7537934   9.2509329  26.9070721
   6.7840552   8.9119411  27.8017235   7.5022119   9.8449963  26.8505955
   3.9756820  33.8472152  37.2565770   4.2326900  33.6826754  36.3493252
   3.4442145  33.0880976  37.4963927   7.5970381  45.1824713   2.3244539
   8.5033840  44.8746538   2.3202918   7.2701579  44.9766350   1.4486617
  89.4770446  35.3075480  16.3847303  88.9494940  36.0943890  16.5218532
  90.3067290  35.4960275  16.8232858  28.3477402  38.3215714  10.9606695
  28.3017778  39.2776275  10.9694266  28.5387826  38.0826497  11.8676698
  12.4781215  54.5624113  57.4104357  12.5424266  53.6078072  57.3817587
  12.9640996  54.8116970  58.1965113  85.4964987  33.2900858  24.7685146
  85.4426972  33.8234615  25.5615139  86.4216874  33.3164334  24.5244575
  20.8550167  30.6134582   9.8376215  20.4713464  31.3159442   9.3127018
  20.4369187  29.8160219   9.5127803   8.7812799  25.7730269  10.8581865
   8.0348611  25.9393072  10.2824771   9.3866956  26.4925408  10.6792903
  85.5201779  42.3547125  17.1814740  85.4225276  43.3069038  17.1869683
  84.6270130  42.0218372  17.2691202  67.2838107  24.6817470  19.1128457
  66.4972869  24.2038155  18.8498056  67.0397154  25.6042790  19.0381122
  63.0610989  82.4688880  55.4771206  63.2315301  81.6596239  54.9951706
  62.4159621  82.2217505  56.1396572  14.8531556  31.7753029   4.2837587
  15.3820300  30.9775257   4.2924970  14.3648136  31.7299342   3.4617513
  50.4169790  53.8161659   5.4159606  51.0864774  53.5334682   6.0389274
  49.6190587  53.8909149   5.9393823  41.7579122  33.2562677  73.5135259
  41.7367322  32.3902074  73.1064298  41.1474628  33.1907217  74.2478877
  29.9085259  64.5171309  69.1185904  29.2288280  65.1885033  69.1777468
  29.4621754  63.7565565  68.7463903  35.0631499  27.6268148  36.6781020
  35.8735275  27.1232271  36.7550421  34.7322559  27.4161935  35.8049583
  61.4313332  61.5044451  18.5509181  62.3527852  61.7336798  18.6717844
  61.3716546  61.2260771  17.6370358  79.0693893  41.4884961  71.9563242
  78.8757362  40.9395150  72.7161596  79.2936935  42.3415518  72.3280989
  71.1398808  45.4173851  20.5792809  71.2879697  45.7429123  19.6913993
  70.7539026  44.5502853  20.4552078  20.2095866  38.0909324  33.0598736
  19.2678678  38.2244277  32.9522896  20.5966783  38.4671974  32.2694206
  32.2064877  29.0357661  10.6279171  31.5080285  29.6161056  10.9305608
  31.8074274  28.5294008   9.9204028  53.1975959  70.6534402  45.6859753
  53.5430144  69.7976797  45.9401271  52.6597332  70.4751246  44.9145219
  42.0297356   1.2898199  62.1633849  42.5037892   0.6273262  62.6659891
  41.3485570   1.6008035  62.7596376  88.5278011  50.7053757   8.8700831
  88.9347287  51.2331963   9.5571387  87.6604182  50.4919624   9.2140800
  40.4400511  83.2476349  44.6253252  40.1817722  83.0900467  45.5334473
  41.3074274  82.8497712  44.5505190  53.0982874  70.2503722  50.4161308
  52.2129773  70.0185316  50.6966803  53.1872104  69.8519866  49.5503280
  48.0437742  83.2104223  68.5142085  47.4790035  83.6109178  69.1751692
  47.8005539  82.2846572  68.5204718   2.2939990  23.6985517  19.0514708
   2.1802364  24.3555260  18.3646822   1.7627068  24.0193796  19.7801888
  10.1076317  59.6445179   7.8445512  10.9783888  60.0077677   8.0059922
  10.0415015  58.9039707   8.4474152  81.7054240  51.3727999  16.2646055
  82.5040058  51.3809109  16.7922735  81.7447958  50.5463791  15.7832408
  76.8785874  60.5207539  48.6191177  77.1571664  60.8720016  47.7733946
  77.6930789  60.3930998  49.1054773  90.3894937  14.7041476  44.6287346
  90.0926810  14.7780573  43.7217236  89.5837998  14.7086287  45.1455212
  23.2033472  78.5895269  67.1089790  24.0928553  78.8837640  67.3050198
  22.6968752  78.8231843  67.8868750   7.1508825  54.8258686  10.7273304
   7.1688414  55.7761192  10.8410478   6.4211768  54.6701479  10.1277351
  12.8068101  82.0392799  25.9887409  12.7085233  81.5102386  25.1971054
  13.1685972  81.4351845  26.6371369   2.4807647  43.3444254  22.3129437
   3.0212453  44.0697328  22.6260636   2.8087739  43.1642572  21.4319298
  10.0709915  37.2648263   6.0334122  10.9073770  36.8096733   5.9358096
  10.0640118  37.9077578   5.3243124  15.6528997  35.2699518  44.3630648
  16.5855002  35.2441120  44.5771217  15.6211317  35.1419282  43.4149981
  51.1443098   5.6211034  66.8153510  51.2860645   6.5533821  66.9796554
  51.9595851   5.2025262  67.0916668  75.4878227  34.8467231  62.6928425
  75.2975456  34.8002958  61.7558956  75.0322751  35.6339908  62.9910374
   1.8593636  47.4921179  19.5910335   1.2594952  46.9084215  19.1266096
   2.0146760  47.0578861  20.4298162  88.4189800  56.1954403   9.4267899
  88.4307156  57.1521521   9.3985772  87.6451901  55.9503365   8.9194393
   9.2654127  37.6424217   9.6917552   8.8947356  37.0030022   9.0835011
   8.6255437  37.6966739  10.4015839  44.2302990  72.4640799  40.9144115
  44.3052435  73.0279398  40.1445580  43.4839535  71.8959761  40.7234573
  25.4971965  74.8994391  60.7533750  25.0485890  75.0895088  61.5773032
  25.0212620  75.4098480  60.0982413  81.1391739  64.5934963  31.7212272
  80.5334810  64.1911316  32.3436975  81.9979582  64.5123863  32.1361256
  88.7038978  60.9891653   7.6952386  88.5307363  60.3870201   6.9715905
  89.2281135  61.6884232   7.3047620  14.2313051  56.4034653  31.2233663
  13.8703346  57.0450068  30.6115198  14.8248434  55.8730602  30.6917500
  29.2262125  63.9792871  22.0894647  28.5282326  64.4694662  22.5239539
  29.8640442  63.8060808  22.7818537   1.5488838  36.2328029  11.4274275
   0.8395580  35.9927154  10.8312345   1.1900154  36.0781288  12.3012245
  83.7955455  18.7955546  30.3284669  84.3131909  19.2482769  30.9942889
  82.9369584  19.2171288  30.3650045   4.1008309  54.7711420   4.0903297
   3.6529386  55.2272701   4.8027691   3.3942604  54.3991327   3.5625029
  90.1402949  43.3054590  30.1919103  90.8096565  42.8971910  30.7410049
  89.3536843  43.3108521  30.7372952   7.9811358  11.3250256  56.6598415
   8.0621445  10.7006502  55.9388542   7.4790961  10.8568060  57.3268938
  16.8342471  79.6786690  55.7886505  16.2828255  79.6333838  55.0075483
  17.6653147  79.2883444  55.5180883  83.3535931  39.3954444  26.6386127
  82.4573449  39.7193027  26.7285347  83.5881487  39.0930462  27.5159788
   3.1044653  62.1760035   4.9372536   3.7144995  62.5136375   4.2814395
   2.6796028  61.4328098   4.5090106   2.3352391  50.7912493   0.2324923
   3.0868867  51.0797310   0.7502131   2.2001277  49.8802662   0.4934405
  56.2304698   9.1698066  72.3874695  56.4663921   8.3481065  72.8180267
  56.1636586   8.9435474  71.4597977  32.4704051  29.3548512  35.7159233
  33.3918643  29.6105099  35.7581496  32.0184922  30.1385713  35.4032087
  57.6059905  45.8554840   0.8815315  57.1973578  46.2490845   1.6524604
  57.6540700  44.9216986   1.0863783  89.7792121  58.7877369  23.2555008
  89.0486192  58.8742065  22.6431370  90.5534489  59.0070105  22.7371311
  88.4394676  37.8821611  33.2775402  88.3912692  37.1330023  32.6836777
  87.9746962  37.5950313  34.0635276  71.3743714  47.7656794   6.2942046
  71.0679809  47.1172380   5.6602609  72.0873634  48.2205820   5.8459461
  56.8174695  63.1714790  71.9447144  57.6080726  62.7923684  72.3287127
  56.9315146  64.1164653  72.0458307  81.4835540  28.8512778  24.5670152
  81.7653874  28.7276411  25.4733896  80.5512050  29.0579462  24.6321726
  26.1235356  53.1478310  23.2386804  26.5938711  52.3656845  23.5272312
  25.2340746  53.0289745  23.5717893  65.5778049  74.9470298  57.2722134
  64.9148415  75.2114527  57.9100153  66.0902499  74.2762415  57.7235184
  14.1344631  38.9695978  12.8486729  15.0641561  39.1183019  12.6760757
  13.7611401  39.8478746  12.9227710  89.9465629  24.8541045  36.8019748
  90.7917202  25.0740170  37.1938682  89.4464350  24.4600248  37.5166821
  61.5285204  61.2849240  63.5577390  60.8988904  61.9393806  63.2552776
  62.3572229  61.5463679  63.1563268  75.7524589  29.5571184  12.4131060
  76.1156217  30.3402305  11.9994879  75.5747966  28.9620399  11.6847181
  50.9734858  19.5037071  71.4974454  51.5372760  20.1625387  71.9028017
  50.7491524  18.9079086  72.2122401  68.9346162  59.7299528  22.2387505
  68.1066839  59.8180580  21.7665243  69.5464627  60.2848482  21.7550445
  27.7502346  58.4154272  23.7043667  28.3380055  57.7401876  23.3655286
  27.4739957  58.0854511  24.5593739  86.9788809  23.4089748  66.7311362
  86.6492243  24.2917816  66.5631894  87.9188533  23.4677545  66.5601644
  83.9988778  38.5130167  42.5068903  83.0553446  38.4934831  42.6668739
  84.3565253  39.0084934  43.2436562  52.3653408  16.9737791  51.0106087
  53.1301543  16.6390776  51.4788628  51.6180059  16.6795706  51.5313435
   1.8486831  55.3562784  59.1227913   1.1398165  55.9646511  59.3316507
   2.0935251  54.9752283  59.9660492  80.3926638  73.2969427  18.5555029
  81.0091833  73.8012314  19.0863812  80.6200091  73.5157347  17.6518011
  28.8203120  37.2563720  19.4218159  29.7209668  37.5617838  19.3133044
  28.3575797  37.5985408  18.6569428  28.2161093  73.2801390  58.4417248
  28.1827450  73.2137918  59.3960381  29.1269827  73.0869246  58.2199001
  86.6892678  72.4207783  23.2029772  86.3993604  71.5216064  23.3568716
  87.4907736  72.3291492  22.6877832   8.7181437  76.5241051  49.7303629
   9.2818713  75.7570314  49.8305464   9.2440605  77.2525930  50.0604391
  88.7844943  37.6644397  45.0550222  88.4876961  38.1918907  45.7965994
  88.4042711  36.7995667  45.2088404  14.2040120  84.8074214  59.8157463
  14.0458380  84.9658268  60.7464025  13.9183448  83.9048307  59.6744785
  13.4203482  57.4164867   2.3968868  13.2762182  58.2084417   2.9148284
  14.3150818  57.1508837   2.6093459  83.0623791  58.2833290  39.0605783
  83.4574310  58.7261772  38.3095431  82.8340010  57.4134779  38.7328005
  24.5824099  59.0079260  65.3116751  25.2059388  59.4937992  65.8514643
  23.8711381  59.6278858  65.1505232  22.2022505  15.6815330  72.9783179
  22.1311779  16.6305915  72.8760067  21.3451858  15.4113189  73.3079496
  89.0458360  40.3403234  39.2342210  89.1327531  39.4755173  39.6352100
  88.2436112  40.2840853  38.7150812  87.0229552  47.5755119  45.3704596
  86.8627272  46.8882561  46.0171700  86.7293254  47.1975183  44.5415211
  14.5313466  73.2760143  35.5093741  13.8026452  73.1962299  36.1248922
  14.7911048  74.1956949  35.5636430  31.7075109  77.7060032  50.3546572
  32.6228428  77.9855013  50.3714800  31.3076138  78.2368374  49.6657944
   8.2990855  50.8499765  65.0920725   8.9231610  50.1467180  64.9126625
   7.6657152  50.7964993  64.3763781  21.5787888  64.1351175  35.9724951
  20.9489989  63.5243559  35.5896497  21.4583993  64.9452066  35.4770255
  54.2085711  56.1145210  18.5159791  54.5262209  56.2546206  19.4080007
  54.2746440  56.9742727  18.1004095  11.6066086  66.5354776  26.1811042
  12.2569740  67.2238159  26.0416365  12.1170759  65.7263422  26.2118816
  31.7572069  66.7568588  34.1705227  32.0524049  66.7060518  35.0796485
  31.2618685  65.9492397  34.0340495  56.4501306  17.2530722  45.8102894
  56.8409964  17.9079699  45.2318764  56.2713667  17.7270197  46.6224766
   8.2698590  41.4803934  37.8555751   7.9359174  41.7987251  37.0168996
   7.8097832  40.6532097  37.9981565  10.9584510  42.7247000  49.2005110
  11.2864804  43.4835339  49.6830082  10.3010070  42.3387432  49.7793293
   9.7917698  72.4512403  71.4519218  10.6876658  72.1164053  71.4133680
   9.6677207  72.6985185  72.3682720  63.2706293  15.9540454  58.5974130
  62.9694093  16.5816442  59.2543909  62.5052042  15.4074613  58.4196505
  73.7145189  52.4175739  25.2982140  74.2220429  51.6412973  25.0614619
  72.8123204  52.1039629  25.3608060  19.3195844  85.7298660  34.2821717
  18.5275960  85.5345249  34.7829986  19.9415100  86.0532093  34.9340081
  44.7999048  56.6053486  22.2409296  45.0108242  57.3752737  21.7127633
  44.8919916  55.8682346  21.6372609  73.3096162  44.0893507  24.5240617
  74.1130487  43.7094498  24.1685271  72.7064017  44.1123295  23.7812042
  54.8787161   2.0283579  10.5933392  54.1480729   2.5570082  10.2725244
  55.6582376   2.4594568  10.2430117  35.1822639  79.7295856  34.1250348
  36.0543299  79.5425510  33.7775421  34.6538377  78.9750957  33.8647556
  15.9031725  20.4780054  38.3331203  15.3364205  20.5570459  39.1004372
  16.3205171  19.6221304  38.4307575  21.2376428  60.2253723  41.8079138
  21.1122870  59.6066141  42.5273991  21.9325233  59.8370218  41.2763500
  12.8104174  25.8851457  41.3881016  12.2697473  25.9595490  40.6017351
  13.4558725  26.5867496  41.3022423  25.5630867  84.9534528  69.0286169
  25.9378718  85.5855005  69.6420375  24.7048460  84.7427194  69.3963734
   5.5416173  64.2561579  27.2344398   6.3637775  63.8201761  27.0103812
   5.4443479  64.9394321  26.5711856  91.0861842  41.3951159  11.4153218
  91.5429333  42.1253204  11.8329442  90.7876119  40.8510971  12.1441090
  18.9891636  44.5648050  52.0633125  18.4521973  44.9880028  51.3933849
  19.4463730  43.8649940  51.5969896   5.1802829   2.1489231  66.0768626
   5.9716872   1.8122951  65.6566373   4.7650794   2.6911203  65.4061446
  20.0078511  63.1520081  22.5250006  20.9456468  63.3413410  22.4946165
  19.8572266  62.8297949  23.4136629  46.6521560  77.1191900  58.1703291
  46.2532590  77.4952810  58.9549742  47.4589609  77.6196282  58.0484400
   3.5106757  62.9918289  12.3786128   4.3211803  63.4802198  12.2344244
   3.7594041  62.2857332  12.9750979  29.7455497  80.1772587  73.7573893
  30.4039439  80.1262825  73.0644605  29.4445141  81.0856240  73.7353868
  41.5139818  58.8206148   8.9340985  42.1501637  59.5274448   8.8250142
  40.9800291  59.0920734   9.6807134  82.6711384  54.0103102   7.9234648
  83.1164876  54.8458481   8.0640632  82.7463499  53.8542461   6.9820726
  18.7405106   9.9908518  24.8987317  18.8220426  10.2137445  25.8260417
  17.9057332   9.5266317  24.8364782  27.7835584  34.5580554  20.4612088
  27.5392604  33.6374903  20.3657699  26.9566727  35.0343323  20.3860044
  20.1787686  25.3724337  25.1078629  19.7018075  24.7969031  24.5099497
  20.9928274  25.5750418  24.6468949  68.3766667  20.4625177   6.5463084
  68.4790865  21.3082647   6.1098981  68.8932315  20.5426478   7.3481631
  47.7904223  78.7260001  67.3284105  47.4234699  77.8440254  67.3892257
  48.6780213  78.6406438  67.6764259  66.9610683  70.7920504  32.9851961
  66.3469712  71.2533760  33.5564184  67.6284901  71.4449024  32.7741075
  86.5980024   6.0775606  67.5090185  85.8309765   5.8100120  67.0027361
  86.2655706   6.2065498  68.3973214  63.7645967  32.9161827  66.3291136
  64.4236473  32.3312418  65.9553180  63.4654314  32.4661724  67.1191904
  69.5738853  47.4845163  73.7987249  68.9844866  48.2075254  73.5840060
  70.1527626  47.4139062  73.0396817  83.2026736  40.2782774  17.1910059
  82.6592079  39.7872233  16.5747738  83.8781158  39.6567893  17.4625993
  78.2078464  26.3919775  69.7119004  78.8959928  27.0291225  69.5202434
  77.6005335  26.8603555  70.2846322   5.1432854  83.3135128   6.7266375
   5.8792454  83.3558846   6.1160642   5.5431741  83.4105968   7.5908685
  24.7229648  60.7535648   2.3497526  24.5925856  60.3873491   3.2244632
  25.1263571  61.6075563   2.5053239   2.5179243  44.0997124  29.6323586
   1.7575940  44.6724892  29.5320749   3.0487770  44.5223331  30.3075027
   8.3766443  50.2249289  16.2173617   9.0025651  50.5143166  16.8812215
   7.6138693  49.9348783  16.7176378   4.6334875  41.8349123  14.7847497
   4.3644974  42.3346329  14.0139329   5.3037155  41.2342262  14.4588637
  34.7128367  65.3992844   1.7546234  35.5410886  65.7222748   2.1094579
  34.6955347  65.7231951   0.8540600  35.9914351  81.8636513  47.1996975
  36.4899373  82.4693966  47.7481508  36.5370774  81.0785961  47.1528053
  72.4041839  34.8988144  65.3168330  72.7349181  35.5910675  64.7444395
  73.1611402  34.3336526  65.4712329   9.7141198  22.6461307  62.3396168
   9.4280246  22.1323196  61.5843818  10.2567080  22.0431844  62.8478381
  25.0358653  46.5301752  38.4853363  24.5349193  47.3456192  38.5036945
  25.1549959  46.3431787  37.5541687  31.4196014  59.0354776   3.6960617
  31.5055966  59.5081854   4.5239422  30.4780388  58.8939762   3.5977355
  13.1187642  23.3999753  16.3889110  13.9829504  23.0862880  16.6553962
  12.5338125  22.6608443  16.5554881  53.9902822  21.5311551  25.6314182
  54.3539993  21.0060310  26.3442898  53.7976972  22.3787093  26.0324121
  57.3100773  56.1493349  19.0827000  56.6663329  56.1333942  19.7909153
  57.9649440  56.7862511  19.3685746  37.3877361   2.0529245  33.1042290
  37.8482380   2.8909658  33.0611801  37.2853460   1.8837236  34.0407753
  85.9433601  48.9559603  35.7639217  86.5614716  49.6513891  35.5390906
  85.1507179  49.4186687  36.0356784  10.9351996   7.3439161  46.3821766
  10.9666995   6.4011995  46.5450499  10.6221703   7.7188722  47.2053740
   5.7490110  73.2176018  31.6934705   5.4876614  72.3222637  31.9086361
   6.7058551  73.1986809  31.7114496  15.8020616  69.6152592  10.8821881
  14.9592865  69.2066574  11.0796881  15.6433249  70.5535650  10.9852326
  82.6050396  36.0165159  60.5409512  82.6959271  36.8416444  61.0175345
  81.6848226  35.9915344  60.2786407  21.5638280  58.9133978   1.2435305
  21.6894341  59.0547562   0.3051955  20.6649899  59.1971493   1.4102866
  82.4525712  79.3126202  29.5914888  83.1751201  78.6852503  29.5677328
  82.0268140  79.2199707  28.7392092  53.5553333  10.4734301  27.0747447
  53.8767382   9.5730948  27.1230102  54.3436285  11.0030722  26.9551444
   0.6789330  12.3571372   6.5792817   1.5896878  12.6434314   6.5100491
   0.2856264  12.9600883   7.2101474  34.9896550  67.6323032   9.0791720
  34.6220660  66.7535019   9.1730714  35.8942389  67.5469828   9.3803072
  21.9979835  50.2166510  16.9844544  21.1444616  49.9643135  17.3366749
  22.5705123  49.4781160  17.1918428  11.7370605  49.8576498  41.0386944
  11.9257021  50.7870722  40.9090185  10.7822454  49.7998905  41.0037088
  86.5947313  15.7072584  58.6533007  86.5520449  16.5509788  59.1033528
  86.5874739  15.0593463  59.3578503  41.9189310  55.3031731  18.1452107
  41.5447044  56.1683035  18.3117676  41.3099909  54.6942949  18.5631692
  29.2027760  65.9279776   9.9865401  28.4873176  66.5284348  10.1958346
  29.4977307  65.6013298  10.8365607  81.9900582  46.6388369  14.5901799
  81.2265376  46.1119270  14.8260450  82.7309940  46.0390472  14.6767628
  30.9094644  45.3967571  38.9125323  30.9335303  44.9506807  39.7590971
  31.5692997  46.0862589  38.9862776   2.5248680  46.7963791  22.2510147
   2.2501537  46.2511301  22.9882169   3.3438361  46.4007950  21.9526267
  10.0402474  51.7845488  37.7542520   9.6450126  51.5145922  38.5831952
  10.1210308  52.7356386  37.8259349  71.9475976  70.8643579   8.9550328
  72.5420729  70.3798103   9.5277864  71.0791532  70.7128572   9.3279701
   2.3460652  20.4244757  26.4894295   3.0101374  19.7354650  26.4669323
   2.3300168  20.7708788  25.5972528  15.4080582  65.5095148  38.3927751
  16.3526130  65.4030514  38.2800174  15.3134620  65.9067583  39.2585015
   6.9848543  56.5269899   6.4476484   7.6090735  56.5081835   7.1730649
   6.8779671  55.6086445   6.1997753  16.8367755  18.0670726  28.0154467
  16.6495085  18.9697909  27.7580333  15.9814620  17.6373780  28.0214238
  78.0590013  45.9224463  20.1614094  77.5967542  46.3439703  20.8858943
  78.8125578  45.4987097  20.5723023  90.4721394  36.5799689   6.0922056
  90.3707971  37.2750282   6.7424786  90.8274403  35.8405304   6.5853822
  76.6099385  72.3559856  23.7114239  77.3509494  72.9590034  23.6522079
  76.9266502  71.6407919  24.2631674  79.3052941  40.8385498   0.4621771
  79.9152093  40.2327187   0.0412109  78.5318702  40.3071339   0.6509807
  63.4602419  38.8999701  21.4062858  64.2878310  38.7586665  20.9465432
  63.1028096  38.0209136  21.5317154  13.5695755  79.5854902  44.2805052
  14.0106070  80.2375221  43.7359095  13.9574730  78.7511349  44.0166569
  50.1636037   1.3765596  32.1082211  49.7259065   0.9450888  31.3744044
  50.1963040   0.7091307  32.7935719   1.1207663  25.4623294  10.7527077
   1.6762207  25.8890510  11.4050961   0.7990819  26.1793208  10.2061987
  66.9659416  78.5328579  33.4924173  66.5155212  78.8853312  34.2599559
  66.4878336  78.8954401  32.7466440  10.2012146  66.6689253  55.5627012
  10.9961915  66.2928772  55.1847696  10.3290510  66.5981150  56.5086794
  11.1348593  58.7708426   1.4468214  11.3889110  59.2098713   0.6350691
  11.9411445  58.3607292   1.7597829  15.7684943  31.7141508  20.1071119
  15.6185624  32.3417639  19.4001091  16.3369795  32.1775507  20.7221889
  78.2197121  56.0732365  32.3940420  78.7850014  56.2768745  31.6489172
  77.3488847  56.3605928  32.1196008  70.9308997  68.9245653  45.1664400
  71.8692795  69.0927601  45.2523756  70.5366031  69.7943783  45.1017284
  83.3721409  49.8610735  29.4504952  84.2846081  50.0755548  29.2565012
  83.4182659  49.2884254  30.2161169  91.1962615  53.4072256  21.2736702
  91.2417866  54.3630075  21.2989616  90.8792533  53.1594753  22.1422100
  10.6351301  12.5671171  18.6939812   9.9854394  12.9580568  19.2781913
  11.1692675  12.0149969  19.2650247  71.6407744  47.5931787   8.9154983
  72.3825148  47.0357275   9.1506606  71.5450624  47.4782515   7.9700553
  24.8303246  43.3882904  36.3053727  24.0825081  42.9266453  35.9260488
  24.5787358  43.5445309  37.2156072  66.1206356  27.7044535  15.3457510
  65.9261814  26.7673612  15.3291857  65.4821435  28.0707812  15.9576023
  75.4421488  75.6163168  28.1837559  75.6484715  74.7396755  27.8594756
  75.8906463  76.2071753  27.5787997   3.7941074  73.9875555  11.3005722
   3.8751033  74.1281700  10.3572273   3.9215624  73.0457020  11.4141536
  80.2205685  52.8902864  22.9687095  80.1878265  52.2042942  23.6354709
  80.8484999  52.5667000  22.3227811  25.2613521  54.8945808  11.7757308
  26.1814547  54.6701813  11.9146121  25.2688122  55.4764843  11.0157526
  16.4060414  67.3319960   3.1793356  16.8592513  67.8375959   3.8540226
  15.5775249  67.7936220   3.0501381  77.8025631  38.9437485  14.2179012
  78.2406978  38.1875944  14.6084142  76.9216613  38.6305213  14.0126431
  17.7858332  22.3569767  72.1420178  17.7558163  22.8944294  71.3505170
  17.1076945  21.6948978  72.0078180  40.2657986  60.8218575  15.0116622
  40.1434231  61.7708397  14.9854958  39.5492148  60.4732370  14.4813752
   8.6244208  51.7302465   0.8578737   9.5163178  51.7115211   1.2048612
   8.4160668  52.6614904   0.7829717   0.4586671  60.8432150  71.1059666
   1.1171891  61.3396406  70.6200218   0.9412217  60.1045227  71.4770555
  73.4036175  81.7534256  62.2030067  73.8588182  80.9302616  62.3802900
  73.0830447  82.0389271  63.0585527  51.6421032  71.1171627  31.2804389
  51.6251659  70.7769489  30.3859019  50.7842398  71.5252495  31.3977695
   4.3192914  65.8951330  19.8531699   4.1875157  65.9084034  18.9051771
   5.2499503  65.7000399  19.9629116  10.8004653  58.2116985   4.8670694
  10.6635344  57.6272011   5.6126177  11.6576552  57.9624748   4.5216087
  33.8971806  72.5201082  32.1146274  34.8218060  72.4262524  31.8855190
  33.4728098  72.7789402  31.2966132  41.1600505  61.3622420  36.2074277
  41.8981110  61.3050644  36.8142483  41.4585351  60.9016972  35.4231856
  22.9969931  67.7606964  20.3898859  22.0925546  67.6657724  20.6885672
  22.9336572  67.7744246  19.4348836   6.0632181  50.5790615  24.2808175
   6.3549995  50.2297401  25.1228833   5.9185189  49.8044872  23.7373757
  61.4608024  85.3703516  67.9777912  60.5120801  85.3734319  68.1048665
  61.8203829  85.2810733  68.8603804   2.8456321  81.7797565  37.7117109
   3.5731301  81.2462044  37.3918748   2.6118001  81.3865948  38.5525298
  58.1177656  70.7062721   0.4899375  57.9098836  71.2261200   1.2663239
  57.2898856  70.6461143   0.0132557  86.1113188  56.8474483  48.0956316
  86.5815238  57.6627684  48.2699776  86.6732777  56.3732100  47.4828243
  84.7182178  64.7312546  16.5706503  83.8995075  64.8696804  16.0944319
  85.3050327  64.3333673  15.9275627  15.6363332  28.2683730  26.4977598
  15.8071852  27.3488545  26.2939692  15.5100179  28.2839704  27.4464607
   9.2755139  69.1043377  42.1711826   9.7077572  68.9357567  41.3339424
   9.9925405  69.1708040  42.8018093   7.8211192  13.6354009  71.4888755
   7.5864748  13.6652938  72.4163890   8.0039934  14.5463172  71.2586043
  53.1676816  75.9108536  71.0803000  53.2810639  76.8520205  70.9477032
  52.8008722  75.8355587  71.9612161  80.5514685  58.6127186  60.5141163
  81.2037776  58.3447790  61.1613655  79.9586765  57.8641319  60.4474401
  75.3673537  11.4961855  68.4732488  75.5454535  12.3173801  68.0148253
  74.5003445  11.6205637  68.8593260  61.2512546   4.9005691  69.8208633
  62.2038363   4.8186819  69.7748805  61.0868605   5.8391277  69.7296790
  20.4035926  51.8067265  22.1698308  20.9393215  52.5492430  22.4489331
  19.6257901  52.2057295  21.7798901  16.4802682  41.6121197  13.1540847
  16.6071534  40.6922579  12.9217279  16.9912434  42.0957756  12.5050771
  12.9733527  78.0002499  57.8331470  12.4760139  77.2506046  58.1601334
  13.8277817  77.6373816  57.5996733   5.1689383  -0.0417353  25.5932546
   5.0128623   0.8676409  25.3384948   4.4138810  -0.5195833  25.2500534
  79.2958645  41.4754200  33.7420678  78.7572280  41.1234856  34.4507599
  80.0900785  40.9413481  33.7569857  81.8425078  41.6675989  62.3353038
  82.7410598  41.3595716  62.2171566  81.8256826  42.5255052  61.9111118
  81.5403990  46.7460394  66.9220781  82.2138337  46.9457102  67.5723457
  82.0061503  46.7503595  66.0858440  79.0351979  76.6660452  18.2577586
  78.2837681  76.2476873  18.6779475  78.6498026  77.2518826  17.6062238
  62.6132099  65.0545835  29.4933724  62.8845183  65.6724119  28.8144684
  63.1308619  64.2678785  29.3220019  67.9966385  27.2571699  72.9275173
  68.0718608  27.9378740  73.5962568  68.7338818  26.6710655  73.0983565
  10.9396601  68.4166431  16.9977808  10.5620337  69.2073011  17.3831224
  11.6727912  68.1967020  17.5725651  10.8440542  35.2203965  29.4076490
  10.3199089  35.3842378  30.1916504  11.2073576  34.3449306  29.5410657
  43.1341934  43.3351707  17.1877217  43.0215406  42.6360130  17.8317058
  42.2433758  43.6235905  16.9890141  13.1011418  10.6076519  70.3749237
  13.2378033  10.5834953  69.4278375  12.3168830  11.1442081  70.4901433
   4.9612216  14.2817394  72.5846552   4.7912673  15.2192966  72.4933538
   5.7147196  14.2310707  73.1727905  74.8249308   6.5130192  29.3834782
  75.5727688   6.2408143  29.9153376  75.2048627   7.0675188  28.7019992
   2.1640202  48.9641619  28.6324906   1.9838805  49.8185444  28.2402992
   2.8306147  49.1410685  29.2962599  55.5854161  46.0692064  70.5913097
  56.2392978  46.6686193  70.9510068  55.9250985  45.8343736  69.7277695
  30.1558890  55.8029275  72.9057318  30.1322386  54.9430232  73.3255375
  29.4317985  55.7839625  72.2799802  35.4246593  56.7392302  30.6078649
  36.1244512  57.1531820  30.1027226  34.6927714  57.3535299  30.5512094
   0.7170657  48.7929964  22.2184634  -0.1036630  48.3007717  22.2371960
   1.3988331  48.1213331  22.2012281  14.9732137  55.2297544   4.5582572
  15.6395113  54.5845222   4.7948068  15.4707849  55.9778070   4.2280024
   5.6678760  54.5337105  30.8911896   6.2466788  55.2518749  31.1470342
   6.2465620  53.8981390  30.4699945  20.2876496  19.0323269  12.6232600
  20.9679532  18.4300208  12.9243338  19.9474883  19.4295120  13.4249878
  68.8629786  21.2483048  37.1773338  68.2801095  21.9086409  37.5521040
  69.0029994  20.6217647  37.8873134  50.6811333  32.8291965   6.9205213
  51.1301327  32.0433474   7.2320843  50.6206036  33.3922935   7.6922017
   9.1451854  49.1726398  67.4848843   8.4740031  48.7063789  66.9865370
   9.8637664  49.2933798  66.8641615   8.7819940  60.4709768  41.5608311
   9.6375841  60.4782009  41.1317062   8.4232593  59.6053600  41.3652611
  20.7860088  52.7895021  41.2760544  21.4281249  53.4133005  41.6148663
  21.1171794  51.9335032  41.5477657  15.6660819  56.3386583  22.0706272
  16.2112296  55.9989786  21.3609338  15.9462225  57.2481441  22.1735525
  65.7881291  44.3441145  73.7482910  64.9289561  43.9505331  73.9004216
  65.6570948  45.2773897  73.9157938  89.9843152  62.0886517  40.9700775
  89.6146696  62.6197481  40.2647161  89.9235081  62.6455069  41.7462492
   2.1164588  11.0864822  48.1032441   1.6086987  11.3412801  48.8736245
   2.9656461  10.8181373  48.4541032  39.5457435  79.8162699   7.1389353
  38.7272406  79.6541071   6.6699058  39.7144318  79.0029144   7.6145703
  35.6251359  71.3484144  12.1789825  35.3543520  70.9673309  11.3437080
  36.0026693  72.1961308  11.9443035  18.9675311  63.6661760  69.4014487
  18.9183644  62.8192083  68.9582071  19.0863350  64.3001024  68.6941645
  14.1746294  69.8550224   3.4748188  13.9075494  70.7741022   3.4611875
  15.1070988  69.8797321   3.6895791  44.6341562  69.5416307  28.9724422
  44.3813896  68.7648535  28.4734821  43.8187551  70.0303841  29.0841007
  80.4796955   5.8532785  30.5421853  79.9050495   5.5656408  29.8327661
  81.3510057   5.5560183  30.2800965  87.9395912  60.9679031  42.8767633
  87.4405811  61.7834234  42.9230452  88.6808971  61.1727190  42.3069000
  12.2720003  34.3368506  14.7586262  12.5937831  35.2383423  14.7600341
  11.6108608  34.3196082  14.0666521  17.9833579  64.5674372  20.9084105
  18.7658298  64.0853786  21.1759734  17.9501188  64.4613791  19.9576855
  74.2958040  38.8639585  64.6692554  74.4515617  38.5213796  65.5493769
  74.9692960  39.5336381  64.5502428  67.1990272   5.7329725  59.8692942
  67.8736159   5.0979399  60.1099062  67.1854731   5.7170080  58.9123249
  37.4843838  10.6242060  27.9156208  37.4633255   9.8043798  28.4092593
  36.5667018  10.8047842  27.7119493  77.1242328  35.1747028  71.5294889
  77.1262534  34.3101350  71.9402814  77.5157971  35.7521669  72.1848125
  18.8727645  31.7113058  73.1713379  18.0458668  32.1537344  73.3629998
  19.3550137  31.7364208  73.9977969  85.9544776  72.9107332  47.9600859
  85.2441720  73.5436440  47.8546047  86.5802330  73.3471298  48.5382032
  57.3009297   3.4576963   9.5922029  57.1139881   4.2423700  10.1075447
  58.1628868   3.6220430   9.2097741  70.3924390  15.3774427  51.0120583
  70.5482074  15.4355978  51.9547081  69.6105167  14.8311972  50.9317589
  21.4247108  55.9592819  39.0544415  21.4548302  55.2925444  38.3683038
  20.4993033  56.1953926  39.1185164  10.8975634   7.3742079  35.4884338
  10.5916759   8.1300997  35.9897304  11.6803392   7.6879763  35.0356197
  17.6706731  51.4019442  47.4604130  18.3182454  50.9434795  46.9249725
  17.4668825  50.7890749  48.1668758  80.3327826  77.5242805  20.5353308
  79.9899343  78.3711052  20.8209491  79.9835662  77.4102926  19.6514261
  79.7263546  26.2656251  64.7195289  79.5554275  25.5079881  65.2789972
  79.6372194  27.0191852  65.3029928   7.5496030  76.6095257  47.1037197
   7.9887372  77.3822498  46.7483473   7.8813624  76.5358353  47.9985619
  42.1278334  83.6200047  59.1684055  41.4117718  83.8435364  58.5738325
  42.1310568  82.6630592  59.1903448  88.7535370  66.7959070  15.5120659
  88.4618870  66.0834694  16.0809326  89.4250257  67.2495842  16.0214901
   7.9469317  51.4409685  40.0123930   7.8360593  52.2996378  40.4205894
   7.4307889  51.4898348  39.2077565  75.0068013  63.8482761   7.7034146
  75.6142441  63.3195019   8.2207566  75.5435995  64.2072105   6.9968402
  86.5895847  58.3901691  51.4222383  87.3238582  58.3893251  50.8081770
  85.9914575  59.0542316  51.0794592  37.9387417  10.6994890  24.5640159
  38.3678457  11.3283896  25.1441813  37.8282991   9.9148726  25.1010561
  55.8947506  28.9317925   5.7303074  56.7774334  28.8669045   6.0948494
  55.9426539  29.6641047   5.1157644   1.8682936  64.5870630  69.2633406
   2.6224617  64.6524183  68.6775151   1.1745766  65.0713865  68.8156543
  67.7935215  23.2777857  38.5389042  68.3322951  23.9745783  38.1641555
  67.6352784  23.5562395  39.4409299  21.2376523  21.3014388  54.7060966
  21.4084339  20.6895494  53.9900970  20.2839136  21.3780951  54.7332954
  22.7648832  63.6446984  13.1846645  23.4950544  63.7144883  13.7996509
  23.0356885  62.9650052  12.5674846  90.2029550  10.4055094   5.7649380
  89.3387377  10.8160376   5.7362425  90.8029402  11.1240648   5.9647506
  16.0059988  62.5680590  22.2256398  16.6579485  63.1912851  21.9050455
  15.1778483  63.0464745  22.1866798   1.3044541  67.0102978  22.3617768
   0.4991248  66.8629169  22.8577161   1.7902957  67.6524734  22.8792715
  65.2512499  24.1839479  31.9331026  65.6103465  24.8877405  32.4734354
  64.6272894  23.7372755  32.5052834  16.4665771  73.6740923  48.0059767
  16.7932236  74.0312195  48.8318062  16.1632228  72.7940369  48.2289267
  80.1535315  21.6630785  60.8122001  79.9047441  21.2949077  59.9643860
  79.3868537  21.5237419  61.3680992  11.0456729  62.0448828   5.3959519
  10.4613066  62.7502012   5.6739354  10.5126631  61.5101147   4.8076043
  15.1643193  58.8294029  37.0554185  14.3615401  58.9762974  36.5552187
  14.9039233  58.2314825  37.7560759  13.9297879  48.0754232  15.6601250
  13.5894060  47.6968861  14.8495173  13.3333242  48.7979889  15.8559883
  21.9205880  81.8836594  14.0978253  22.1372771  80.9977722  14.3885016
  22.5300074  82.0560169  13.3800972  13.8321745  71.9629192  26.0207701
  14.3333638  72.7694511  26.1414051  13.0987561  72.2181273  25.4611301
  -0.1545212  66.4336491   6.9719672   0.6011944  67.0211029   6.9766939
  -0.1020714  65.9691906   7.8072894  37.5003481  56.9154119  -0.2526042
  38.3129930  57.2215700   0.1500219  37.1519780  56.2752342   0.3679122
  35.9601784  65.0788116   5.6873357  35.5802751  64.7595119   4.8688301
  36.2535667  65.9671307   5.4847246  78.3888323  24.3365470  66.4969221
  77.6782865  24.1496841  67.1104673  79.1588290  23.9254514  66.8897835
  63.2484901  74.8445741  69.1829554  62.6297724  74.8995439  68.4546707
  62.7451099  75.1266233  69.9466882  76.2712196  47.3289299  12.0520425
  76.8842701  47.9454899  11.6517234  76.5043250  46.4805365  11.6750479
  20.9797790  19.8856806  -0.0421877  20.5509528  19.7374796   0.8006518
  20.6009128  19.2258429  -0.6229766  47.2486206   0.5179285  37.3068857
  48.0340120   0.1487707  37.7107596  47.1721264   0.0602697  36.4696693
  16.6348922  64.3322563  41.4395905  17.3847449  64.1259956  41.9976282
  16.9669867  64.2361879  40.5470037  28.4299254  76.7272425  20.8264828
  27.5422049  76.7128563  21.1842203  28.8244033  77.5170994  21.1962771
  65.0315305   1.4125132  31.7087245  64.3052074   0.9662222  32.1440506
  64.6692320   1.6975760  30.8698487  61.2763878   0.7489180  36.2744617
  60.8197924   0.5049585  35.4693317  61.5428611  -0.0852991  36.6608667
  39.4897580  76.0147142   5.6030715  38.5868502  76.1098957   5.9062648
  39.7549415  76.9012833   5.3583145  54.9061621  35.7061998  72.6873121
  54.1490538  35.6571237  72.1036938  55.1907302  34.7977726  72.7873698
  61.9197055   5.4614901  12.3355722  61.7591163   5.2149271  13.2464218
  62.1885678   6.3790964  12.3796701  41.6493246   8.1536650  41.3594484
  40.9002348   8.7473082  41.3076305  41.9946441   8.2803415  42.2431564
  33.6309552  61.0725832   3.4943548  33.2252526  60.3921795   4.0316579
  33.8556933  60.6294489   2.6762122  68.1005169  33.7978975  71.5862969
  67.6477112  34.6379510  71.6605288  69.0070898  34.0312950  71.3865883
  80.4199187  65.5855656  17.4157977  80.8683423  66.1737108  16.8081522
  81.1166350  65.2430201  17.9756916  37.4618169   8.8579630  31.4406538
  38.0046388   9.4696592  31.9380522  37.0566871   8.3016848  32.1059704
  25.2259827  66.7117691  23.6447096  26.1309767  66.9433260  23.8535213
  24.7957039  66.6353846  24.4963288  27.8825104  11.4336657  23.7825394
  28.2805049  10.5645823  23.7322903  28.1775133  11.7839598  24.6230745
  72.6994964   6.3045095  45.2886200  72.7788612   6.1052679  46.2214851
  72.3150369   5.5153345  44.9070168  46.5652466  74.5653820  32.2791672
  46.2129641  73.6778450  32.3455739  46.8201256  74.6538115  31.3607717
  10.9102801   5.1984207  72.0353072  11.6892747   4.8813430  72.4923285
  11.2427262   5.5444137  71.2070564  17.4285769  77.4110031  47.0748663
  17.4971259  78.3657455  47.0744085  16.8282139  77.2143269  47.7939749
  33.5251403  74.8963833  30.2489114  33.7242055  75.2454901  29.3801594
  32.7172256  75.3405809  30.5061841  77.6043531  -0.1488806  22.6764488
  77.6211234   0.7406973  22.3234725  78.3793374  -0.1991869  23.2359982
  40.3886127  75.5272961  45.7924271  40.4390812  74.7155857  46.2972164
  41.2989473  75.7358551  45.5826044  50.9622237   0.8962416  26.3555098
  51.5902802   1.3457464  26.9209456  50.3846475   1.5909742  26.0393000
  55.2993340  14.7624771  73.8741136  54.7316236  13.9933483  73.9228596
  55.8753578  14.6835748  74.6345097  80.7164661  40.0831938  27.7264142
  80.5813853  39.8746395  28.6508012  80.0552253  40.7472992  27.5316024
  64.7317645  24.6744799   8.0572665  64.3868324  25.3248476   8.6690438
  64.0383836  24.5666098   7.4062532  18.9268136  58.2918215  40.5515242
  17.9801416  58.4222031  40.4963636  19.2289734  58.3437395  39.6447515
  31.2203217  85.0545120  16.9232035  31.8412757  84.4414616  17.3166609
  31.3670826  85.8769703  17.3903894   5.4659474  86.1011791  37.2200227
   5.1176578  85.4782486  36.5821457   5.5145538  85.6051922  38.0372548
  74.4105918  18.0656997  65.3269116  73.9425833  18.6372892  64.7182367
  73.9485569  17.2291175  65.2732143  30.3726578  45.3210974  25.9064198
  30.8703899  45.8044720  25.2469945  30.7815099  44.4558859  25.9284639
  21.7029595  81.2191582   6.0909635  21.0344696  81.3848209   6.7557257
  21.6143322  80.2876949   5.8890867  55.2497603  21.1919061  63.6973820
  55.1716639  20.6186573  62.9348073  54.9609507  22.0487968  63.3834514
  23.7375932  82.8375833  61.8009422  22.8564434  83.1465356  61.5903351
  23.6048244  81.9582694  62.1550820  14.0459502  66.4676619  45.7417679
  13.3929956  66.0658026  46.3148212  13.5566413  66.7137861  44.9567652
  13.6815095  59.2071390  39.7124243  12.8305006  59.6439314  39.6774364
  14.2371273  59.8048544  40.2126837  63.7849375  20.7911753   8.3867633
  64.3244430  20.8042311   7.5961965  64.3120238  21.2456106   9.0439582
  19.3327463  51.2740183  34.1601491  19.8546207  52.0687246  34.0491605
  19.4636250  51.0274601  35.0757432  48.0560633   0.7419275  48.5697126
  48.5792705   1.4546560  48.9364529  47.2064992   0.8206438  49.0036201
  48.1551083  14.2309259  27.6699924  48.3671304  13.7569880  26.8658423
  48.7504038  14.9804949  27.6702690  72.7990551  24.3002168  69.4564704
  72.2574933  24.6662561  70.1557267  73.6188466  24.0609018  69.8887927
  12.9354763  74.1632891  15.5126202  13.2288945  73.8453436  16.3664639
  12.0894122  73.7369442  15.3761029  59.5295525  76.3638544  11.0877204
  60.2891302  76.8188477  10.7240522  59.6290636  75.4585123  10.7932925
  40.9263011   2.3779177  22.6309872  41.8821057   2.3510527  22.5868559
  40.7370004   2.9269671  23.3918691  22.5714707  72.2767019  43.2508087
  22.1106696  73.1130028  43.1837845  23.4580779  72.4664927  42.9439926
  17.1653724  70.6440306  26.4382553  17.7471399  71.4022255  26.3842368
  16.4885247  70.9054852  27.0625567  79.2817279  26.4940237  17.4720430
  79.5576879  25.7089876  16.9989645  79.9185058  26.5825438  18.1812024
  42.2085604  13.9606165  17.6424968  41.7247566  13.6385893  16.8819308
  42.6854118  13.1956553  17.9644930  14.3112433  78.1430006  26.4774537
  13.3945906  77.8723574  26.5297151  14.3297410  79.0069437  26.8891478
  79.8522885  65.0811807  42.0830653  79.7850270  64.3284647  41.4955923
  79.0458150  65.5745832  41.9334624   1.9345355  74.1426468  15.1482296
   2.6476857  74.7557497  14.9700439   2.0395224  73.4553814  14.4902980
  11.1274636  21.0500622  31.4803529  11.7865479  20.4118752  31.7534041
  11.5461481  21.5384173  30.7715201  15.4738453  54.9031583  72.5318513
  16.0401419  54.6951524  73.2750041  15.5703906  55.8481924  72.4142981
  30.6843972  44.0951729  18.9416432  29.8994184  44.3969011  19.3988109
  30.6437206  43.1406403  19.0002990  89.1531611  75.2780390   8.7413776
  88.5852114  75.2187061   7.9731691  88.5579870  75.1940393   9.4863230
  87.5280685  55.7239676  36.4459014  86.7995430  55.1985598  36.7767000
  87.1762267  56.6123390  36.3889766  83.8367978  77.0496845   1.7521192
  84.0412072  76.1220312   1.8700212  83.8230703  77.1731758   0.8030175
  88.5779423  55.6516361  18.7248933  88.2421143  54.8490286  18.3258009
  87.8302572  56.2492943  18.7265718  14.9013829  75.7229996  63.4614515
  15.6539750  75.4337692  63.9773798  14.2497003  75.0320530  63.5803604
  24.0612125  78.1932068  22.1931171  23.3591533  77.5726128  22.3885775
  24.5220995  78.3031893  23.0248117   9.2865336  64.0670347   6.1432403
   8.9515728  64.8272848   5.6677926   8.5767126  63.4262562   6.1009049
  31.4882874  71.1244297  16.8799973  32.1074200  70.4783106  16.5402412
  31.0060692  71.4227009  16.1088097  38.9446237  14.6614431   0.5625265
  39.7870615  15.1099371   0.6359068  38.6527630  14.5504355   1.4673623
  10.3431892  55.0591087  36.2733603  10.7889712  55.8564186  35.9873462
  10.5911601  54.9627638  37.1928501  72.6570150   4.7354387  41.6452074
  73.2498857   3.9896368  41.5529680  71.9324657   4.5403646  41.0508919
  16.9790268  24.8836160  34.8778057  17.6761496  24.2770767  35.1275301
  17.4239385  25.7220745  34.7542262  71.2161037  12.5986456  31.7531419
  70.8076307  13.4474634  31.9231248  70.5641958  11.9579386  32.0372939
  32.0041084  64.2753029   3.4555441  32.5981379  65.0221395   3.3807522
  32.1115327  63.8003540   2.6314580  77.3885576  57.5948334  35.2743125
  77.4970523  58.2304859  34.5669198  77.3390917  56.7483521  34.8301816
  32.8596020  55.9322739  15.9752965  32.5339460  55.2720594  15.3634965
  32.5054240  56.7586374  15.6467974  61.6961500   8.5518717  37.2332048
  61.8044850   9.2573809  36.5954328  62.2369810   7.8381704  36.8950367
  89.9706908  63.5298491  58.7315989  90.3860675  62.9717493  59.3890285
  90.5670865  63.5031319  57.9833794  32.4209476  77.8680563  56.6226864
  33.3670282  78.0078650  56.5824938  32.2362995  77.2696304  55.8987904
  61.3240763   1.6014456  19.0521252  61.9569847   2.2919725  19.2491567
  60.4845210   2.0568728  18.9892292   4.6918945   1.9614481  15.0840151
   5.0135164   2.7964663  14.7441137   4.9561863   1.9595789  16.0040021
   3.8516662  50.3229141  38.1013012   3.1298515  50.7319069  38.5787344
   3.4238234  49.7844172  37.4355698  22.6559567  63.8108158  28.2167244
  22.7745533  63.5331059  27.3084044  22.2676826  64.6833086  28.1516719
  74.9326451  47.8663866  62.8561911  74.8723323  48.5322134  62.1711573
  74.0261526  47.7155344  63.1240485  60.7419395  69.8571110  37.2335482
  60.0369787  70.0888920  37.8381443  60.3155565  69.8019409  36.3783360
  41.4799404  81.6696739  25.0579262  41.4684010  82.3729706  24.4087172
  40.6221771  81.7191124  25.4798627  32.7445340  80.0804901  36.8747950
  32.4808979  80.3930855  37.7402496  32.5073886  79.1531372  36.8726063
  52.3505735  71.5414381  70.1659536  51.3947916  71.5399218  70.2179718
  52.5462055  71.0985470  69.3402386  59.7117468   6.5061354  19.0413952
  60.3700491   7.1977400  19.1088760  59.3815109   6.4019083  19.9337590
  61.1078285  15.6323568  62.0719704  60.7562936  15.0868646  62.7755985
  62.0321278  15.7438747  62.2943816  19.2286444  82.9114819  11.4410090
  19.9230742  82.9858494  10.7864332  19.4431388  83.5772514  12.0944452
  11.3363683  73.0128908  22.3033595  10.3837132  73.0886412  22.3575997
  11.6284847  73.0074215  23.2148814  52.0552806  18.7275449  62.7862606
  51.9965628  17.7876131  62.9574785  52.5360755  19.0780107  63.5360858
  41.5906429  66.1598349  28.6529756  41.1784410  65.5674124  28.0242014
  41.4149427  65.7633781  29.5063114  14.5500290  75.5906105   2.9976207
  14.3008244  75.1792192   3.8251996  14.8103428  76.4790964   3.2406494
  24.0057492  46.3654470   6.0401255  24.6143889  45.7461596   6.4429563
  23.4570050  45.8260155   5.4708087  32.9980925  26.8191949  65.7772348
  32.4529580  26.5113107  65.0531713  32.8031806  26.2180988  66.4962087
  26.0636405   0.0660078  72.3238899  26.4612893  -0.6625517  72.8006585
  26.7572049   0.7234327  72.2691769  15.1592851  80.9400845  23.3375835
  15.0232887  81.7853069  23.7657619  14.9259937  81.0949898  22.4222636
  48.9693499  52.8634977  19.6357608  49.8260260  52.4756670  19.4570744
  49.1381645  53.5130692  20.3182507  24.7335386  70.1222515  16.5720284
  24.3824434  70.4432869  15.7414269  24.2617631  70.6199455  17.2398305
   1.8827415  77.7691412  50.5830765   1.6002154  77.2420788  49.8356724
   2.7376670  77.4097538  50.8200884  82.2940655  61.8209688  26.1524460
  83.0346770  62.2487775  25.7226631  82.0295019  61.1313955  25.5435726
  71.8537256   5.4980825  34.1240621  72.5801345   5.3508829  34.7297764
  71.9371053   6.4168619  33.8688612  33.5512945   3.3412432  10.1841152
  32.6649412   2.9869246  10.2553022  34.0983894   2.5804686   9.9888456
  37.1940899  55.6916285  32.6494527  36.5816021  56.2614107  32.1842194
  37.4076343  56.1719704  33.4493899  87.9434822  83.4224224  47.8320646
  87.0365933  83.3765888  48.1348610  88.0413509  84.3160439  47.5032997
  59.5140262  44.5668737  73.3981209  58.7308786  44.0165845  73.3880980
  59.3911868  45.1446001  74.1513641  31.8305087  46.9526100   7.3386610
  32.2221231  47.0547819   8.2060885  32.1660089  46.1140442   7.0216691
  10.8844590  74.8067904  46.9644165  11.2861228  75.6613350  46.8074274
  11.4323747  74.4048166  47.6385355  50.4921007  58.8034534  30.0685287
  50.1079464  59.5469809  30.5330992  50.7227230  59.1522598  29.2074943
  -0.0029021  58.1643391   8.2247543   0.8684798  57.7858686   8.3417469
   0.0505404  58.6362410   7.3936796  41.0686350  82.1375465  40.3880835
  41.4278603  81.5246582  41.0296106  40.8591557  82.9210281  40.8965158
  10.5419282  56.4020006  68.4650991  10.8418587  55.6485311  68.9735768
  10.1794413  57.0018999  69.1169849  29.7500861   5.0025343  34.9540615
  30.5766336   5.4684614  34.8277092  29.1370511   5.6771826  35.2460623
  28.2321668  64.8450708  33.0345917  27.7823710  64.0072584  32.9250956
  28.6678195  64.7738266  33.8839221  44.0161320   8.8171648  22.0929718
  43.1001004   9.0415644  22.2565651  43.9764747   8.0433439  21.5309620
  13.1356600  18.5861436  69.0639094  14.0681246  18.3715431  69.0901986
  12.9886702  19.1120616  69.8500619  88.1368510  53.6499786  70.6418467
  87.5468371  53.4980965  71.3801193  88.9198459  53.1412363  70.8524036
  38.2218501   6.3765501  14.9528503  37.8109201   5.7075285  15.5003667
  37.6334527   6.4672350  14.2033195   9.1148680  72.4125814  26.4428735
   8.6962742  73.2484293  26.2370253   8.5384387  71.7541170  26.0550809
  49.2136574  72.0340204  27.1978998  48.4011126  72.3815060  26.8301320
  48.9278030  71.3716555  27.8270197  14.9500954  45.1102066  13.4097409
  14.2988288  45.6011295  12.9086626  14.5970166  45.0824690  14.2990088
  74.0551372  58.1650011  70.3234247  74.1847737  59.1121713  70.2753947
  73.9235384  57.8948824  69.4146082  12.2971181  39.6280424  69.3687198
  12.8372553  40.3345911  69.0147689  11.3998297  39.8804514  69.1509936
  75.4838630  10.2394556  21.5194893  75.8722326   9.6484922  20.8743834
  74.5759984   9.9461912  21.5969777  35.3420377  55.8872604   7.4243909
  35.0327158  55.1938295   6.8415469  34.5879984  56.4678574   7.5271529
  78.2835753  55.6415788  63.7002609  77.7934618  54.8905794  64.0349731
  78.8373287  55.9119169  64.4327257  60.1682660  15.2353453  31.6598725
  59.5579120  15.8615660  31.2705731  60.6481859  14.8737978  30.9147620
  55.2116181  30.6326906  67.0537994  55.8642377  31.0486499  67.6170913
  55.7230784  30.0827638  66.4603183  73.3808490  18.0126642   5.8092010
  73.6827489  18.7514471   6.3376850  72.4400207  18.1580805   5.7095706
  79.7970077  30.3977179  43.8439131  79.8589631  31.1245512  43.2241440
  80.4394838  30.6059336  44.5222235  37.2820720  25.4539942  34.0301657
  38.1159296  25.7220530  33.6440873  36.8188181  25.0135874  33.3176613
  87.1302005   2.1381830  23.0341864  86.8022462   3.0217241  23.2016444
  87.1483013   1.7220758  23.8960218  16.6850781  53.1710005  21.3748741
  17.0631623  52.4229574  21.8371701  15.7548559  53.1459045  21.5991259
  45.0115871  84.6018696  17.1304762  45.6249237  84.2523098  16.4840603
  45.5657911  85.0547409  17.7660835  33.9828801  82.8936291   4.0496787
  34.0818906  82.1098709   4.5901892  33.5401177  83.5228920   4.6190816
  50.9616348  14.5513605   3.1450653  50.1851472  15.1033377   3.0522439
  51.6887542  15.1702189   3.2124788  25.2114820  71.4703846  39.5303297
  26.1154485  71.6063976  39.8141909  25.1896930  70.5627918  39.2269492
  73.4479448   6.0481047   9.6971929  74.1464969   6.4815115   9.2068678
  73.5194751   5.1257681   9.4514000   0.9986309  62.1794740  73.7006522
   0.9421614  61.3583700  73.2119400   1.1095861  62.8514043  73.0280200
  77.9548386  66.6359568  54.4803381  78.6582128  66.6425848  55.1295328
  77.2193853  67.0629644  54.9196625  35.9534883  84.8414707  34.5644641
  35.6494761  85.5476475  35.1346684  36.0444736  84.0865326  35.1458573
  88.4958192  43.3308958   5.7442677  88.8050290  43.1002974   4.8682293
  87.9399749  44.0981363   5.6078160  23.2119393  72.4001169   8.7807381
  22.3134708  72.7094078   8.6652935  23.2132792  71.9846296   9.6430600
  31.3791943  63.6709547  24.1753244  31.4387989  64.2150784  24.9605680
  31.2656808  62.7809048  24.5087266  40.8431884   3.7818216  40.6119156
  41.3026389   4.2582773  39.9204445  41.3067624   4.0191721  41.4150333
  10.4608667  83.1156921  25.0971603  11.2224805  82.6309013  25.4152107
  10.6203032  84.0188599  25.3711963  19.3091679  83.5058498  63.9175224
  19.4108713  84.4559765  63.8614368  19.7850835  83.2604504  64.7109413
  69.6690321  83.4539700  21.1356330  69.4743729  82.8326893  20.4339552
  70.1362467  82.9361629  21.7912316  11.7380834  60.5168295  18.7291908
  10.9654260  61.0760927  18.6488402  11.7760563  60.0402212  17.8999531
  24.1526108   3.6119818   8.9159399  24.9386005   3.9722132   8.5052222
  24.2599087   2.6632856   8.8473940   7.6112199  74.7160387   4.9669746
   7.7260923  75.4567957   5.5622196   6.9815052  75.0268698   4.3165317
  22.6296473  56.8991137   7.4982011  22.9746175  56.2553310   8.1168878
  21.7903900  57.1659613   7.8732675  89.6103258  55.2757780  48.8194630
  88.8639708  54.7433130  48.5443685  89.4403548  55.4681818  49.7415922
  84.2760011  20.3006529  11.3986206  84.3901798  19.4305109  11.0164523
  84.2519876  20.8915495  10.6459594  36.6043830  77.4587965  21.7734790
  36.8703771  77.0700741  20.9401870  35.6477594  77.4302053  21.7565823
  65.6799933   5.0386213  62.9371309  65.8099696   5.2918505  62.0232296
  64.8019573   5.3543924  63.1506109  57.5037834   7.8653215  22.4646425
  56.7023846   8.3880877  22.4912167  57.6984617   7.6785254  23.3830309
  13.6123240  56.3930988  14.4075036  14.2125893  55.6573868  14.5285118
  13.5913312  56.5318489  13.4606457   5.7060033  69.1057444   6.4306104
   6.4680171  69.5694733   6.7777759   5.9457201  68.1803703   6.4801317
  28.1351161  76.0570431  28.4752655  28.2592154  75.3041315  29.0531540
  27.5722885  75.7300949  27.7734375  48.2036543  73.5266352  34.9052453
  47.5151777  74.0212393  34.4607234  48.1737185  73.8353205  35.8108115
  21.5106678  66.5542126  34.7716808  21.8673730  67.4297953  34.6221828
  21.0346460  66.3489103  33.9670157  32.9211569  83.2514954  62.1006823
  32.6697040  84.1553497  62.2905397  33.8751459  83.2468128  62.1788836
  83.1531640   1.7817949  31.2166333  82.4239751   1.2427687  30.9100986
  82.9942581   1.8887495  32.1544719  55.6081268  23.7370752  38.1111312
  55.4763886  22.9446291  37.5906467  56.5583941  23.8476252  38.1427717
  88.5446636  40.8424282  71.9043922  89.1132358  41.5427017  71.5841103
  87.8095654  41.2990141  72.3135281  33.9320352  21.6820025  11.4553666
  34.0582737  22.4708342  10.9280705  33.0240783  21.7360090  11.7535758
   0.4107717  38.7949411  74.6854618  -0.2092716  38.5576479  73.9959171
   1.2702349  38.5983316  74.3127708  15.4286945  43.7162304  11.1566865
  14.9025381  44.3510151  10.6704354  15.4394770  44.0509033  12.0534086
  64.6737906  16.7801832  35.9240842  65.5551788  17.0737337  35.6933999
  64.4788309  16.0880541  35.2922773  32.3445630  77.0828867  39.5906901
  31.8577623  77.6377773  38.9813018  33.1220293  76.8142223  39.1012025
  17.2564011   9.9500536   9.4054043  18.1881504  10.1622557   9.4606668
  16.8114595  10.7839273   9.5568073  54.9951216   5.9783625  48.1459856
  55.2165386   5.7785009  49.0555239  54.7755405   6.9100164  48.1520987
  74.9513216  49.3230573  66.4646087  74.7055478  49.2535154  67.3871008
  74.9459977  48.4202425  66.1466113  46.9601294  17.3598646  59.0254021
  47.4927458  17.3162054  58.2312679  47.2955152  18.1222509  59.4971180
  62.8300234  11.1417269   7.9574949  63.6282774  11.5002417   7.5695676
  62.1950361  11.1410784   7.2412395  61.5673634   4.0742563  20.4213238
  61.5561077   3.4909700  21.1801934  61.1259600   4.8682474  20.7229495
  37.4207854  63.1884384  16.1322784  37.5283241  62.2397232  16.0643947
  36.5508556  63.3041382  16.5144670  52.6323605  66.6277361  17.8080773
  53.4226942  67.1537209  17.9303288  52.7595615  65.8685112  18.3769608
  36.7586994  74.4865084  38.2437181  36.9001937  74.0415382  37.4081278
  36.8256760  73.7921667  38.8991809  71.7544099  11.8922590   6.9404709
  71.4248344  12.4904703   6.2698317  71.1423465  11.9896101   7.6699471
  79.0970039  63.6867905  14.0981770  78.2629967  63.2659101  13.8895512
  79.2659903  64.2652750  13.3545160  88.2907888  15.0982927  22.6047421
  87.5240108  15.4812693  23.0309010  88.6736080  14.5260977  23.2697797
  58.7704481  85.2442209  69.0157274  59.3675293  85.5250494  69.7091705
  57.9754205  85.7568018  69.1620818  17.0904076  73.1549358  31.6445637
  16.9273973  72.2470856  31.3886929  16.8464017  73.6683369  30.8744240
  66.1600113  81.4276791   6.7463374  65.4639816  81.6605473   7.3607838
  66.4251661  82.2612572   6.3576621  22.9429364  56.5063524   2.2518186
  22.6555777  57.2429228   1.7122644  22.8624678  56.8228102   3.1516010
  76.7227527  20.0289225  46.8869114  76.6280004  19.3436026  47.5484228
  77.6154014  20.3537630  47.0047331   5.4788095  51.1334324  10.3327429
   6.3948750  50.9724951  10.1065695   5.5141461  51.8129110  11.0060132
  76.4143344  31.3575243   5.5527204  77.2508069  31.3440870   5.0875652
  75.9919902  30.5335688   5.3099084  48.4863445  25.7846521   3.7452734
  49.0156230  26.5794825   3.6794007  47.9062816  25.8194326   2.9846498
  76.0313436  11.6013311  10.2416551  76.4825508  12.3431944  10.6444967
  75.5218097  11.9886850   9.5299184  83.1085798  12.0327639  18.8975310
  83.2232210  11.4378046  19.6385515  82.1832773  11.9517588  18.6662591
  62.5909945   4.3691420  27.3894501  61.7545577   4.7370314  27.1043825
  62.8680869   4.9345850  28.1103683  35.7431581  18.4918474  29.3213034
  36.1235716  19.3643545  29.4224811  35.9598454  18.2386660  28.4239864
  82.1889106  34.8606038  44.6748161  83.0355493  35.1812387  44.3639660
  81.5481297  35.2830029  44.1027927  62.1850585  73.6019771  48.2085917
  63.1267475  73.7045090  48.0709669  62.1084951  73.2697003  49.1029975
   3.7524763  18.7360728   5.0238478   3.2640877  18.7996209   5.8446217
   4.1687030  17.8748178   5.0588769  73.6428339  12.5661842  54.6933327
  73.3469803  12.0946209  55.4720054  74.2113156  11.9447176  54.2385409
  75.9258870  44.5637655   1.5207511  75.5532197  43.7196159   1.7752481
  75.4853360  45.1997614   2.0843577  32.7973400  70.8200734  68.4965811
  33.5475604  71.1539476  68.0047188  32.8065966  71.3173978  69.3143914
  82.6918621   7.4068920  68.8419787  82.1852035   8.1920711  68.6345569
  83.4949036   7.7390901  69.2432282  60.3279327  81.0756056  60.0590942
  59.7983430  81.5953653  60.6637547  59.6953391  80.7078712  59.4419823
  27.2520971  48.8154221  17.4166358  26.7998958  49.6221495  17.1697927
  27.9997635  48.7680244  16.8208337   4.2680848  42.4052906  19.9931920
   4.7043729  42.6991653  19.1934896   3.6309028  41.7567062  19.6939111
  38.6907578  60.2344513   6.0384101  39.0892100  60.9888792   5.6044704
  37.8698230  60.0929594   5.5669481  76.4764229  57.8510189  19.6883690
  76.8636087  58.5640526  19.1805279  75.9088186  57.3951006  19.0669262
  72.9592172   1.2534583  46.5768051  72.3339633   1.6149239  47.2049999
  73.7856153   1.2123052  47.0580578  24.1737342   9.4234103   9.3287569
  25.0697136   9.5496064   9.0164638  24.1499710   9.8698813  10.1751196
  21.8109822  19.0888178   9.8653054  22.0546269  20.0118780   9.9347961
  21.0015583  19.0160251  10.3710389  42.3862028  19.5448923   5.3719991
  42.7805281  18.6890590   5.5401921  43.0881643  20.0573921   4.9709702
  21.1266184  40.8919096  22.6527834  21.7848849  41.0642910  23.3259869
  20.9336734  39.9584174  22.7399206   6.3865851  82.0352285  72.1270016
   6.1792801  82.5842779  72.8831776   6.5003012  82.6540725  71.4056594
   5.1340598  23.4244657  11.8585753   5.9663677  23.0981565  11.5164995
   4.5200163  23.3232546  11.1312938  47.1916246  75.1240587  17.2161341
  47.2266769  75.9030151  17.7713227  47.2197056  75.4655123  16.3223481
  82.0538018  80.5567169   5.2606606  81.8551431  79.7250032   4.8305285
  81.3606576  80.6608009   5.9125423  13.3976161  60.2136374   3.5513926
  14.1673017  60.5723286   3.9931580  12.7063930  60.8550072   3.7159878
  23.9227366  14.7213066   4.9931601  23.1817508  14.7930121   5.5948496
  24.4731903  15.4765832   5.2000123  23.0010568  58.5656886  54.5083711
  23.1832372  58.9728372  53.6614535  23.0738692  59.2820077  55.1390979
  83.8415281  28.4879947  14.6371937  84.2127768  29.1250038  15.2476251
  82.9860548  28.2713652  15.0079608   0.5113985  59.9014330  21.8357515
   1.4427772  59.7356367  21.9816232   0.3967423  59.8080730  20.8900404
  53.3550404  84.9747913  64.4115469  53.8109301  85.7189815  64.0183816
  53.4683965  85.0953691  65.3543321  25.9361315  18.9571881  19.8670304
  25.1747870  18.6552811  20.3624487  26.6880417  18.6234629  20.3564095
  15.4947639  21.9149446  16.1487436  15.4613817  21.3223171  16.8996835
  16.2967598  22.4210930  16.2785423   8.5771326  26.9581739  64.5853720
   9.2821768  26.6476194  65.1534394   7.7773622  26.7956487  65.0855563
  19.6899441  77.3985452   2.8131527  18.8258008  77.8102208   2.8170666
  20.2930478  78.1096674   2.5968063  43.1641722  25.5507851   8.3104193
  42.8069830  26.0379100   9.0529543  43.9237833  26.0621405   8.0316037
  58.7065021  60.8201504  11.2926090  58.0981509  61.2746954  10.7099211
  58.9029662  59.9994946  10.8407652  69.9698035  65.3209257   7.4877524
  70.3217999  65.7009029   8.2927048  70.5788246  64.6154022   7.2696644
   5.1156449  32.7309680  27.4757195   4.7991666  33.1965160  26.7015505
   5.8747703  32.2376704  27.1648836  45.1306001  17.2867322  13.4569013
  45.1251451  18.0879211  13.9806354  45.0614301  16.5803099  14.0990961
  52.2073456  13.2219099   6.5341908  51.3222500  13.0113195   6.2367237
  52.2439381  14.1782831   6.5189660  23.2665658  33.9334464   6.3976204
  23.8975000  34.1196990   7.0929354  23.1625867  32.9821110   6.4170796
  86.8154565  62.3157501  16.9252443  86.0227273  61.8495512  17.1907067
  86.7423699  62.3899841  15.9737301  70.1656047  46.6410971  12.8603125
  69.4747416  46.1212111  12.4496317  70.3612295  47.3266697  12.2215998
  37.3563218  49.0342951  38.2602191  38.1584048  48.5788965  38.5161686
  36.7606544  48.9032078  38.9979362   5.1336408  47.0097971   8.5584903
   4.6192580  46.2364054   8.3271676   5.3874081  47.3891163   7.7170926
   8.5512757  66.4547110   4.5910275   8.0751705  66.9787598   5.2351797
   7.9306293  66.3374138   3.8718122  68.6597530  38.9289975  29.3373442
  67.9712716  38.5813165  29.9042130  68.7636963  39.8385143  29.6169949
  77.9213623  36.7590618  22.8144646  78.2336596  35.8896208  22.5639105
  76.9804136  36.6460276  22.9488945  75.3942532  13.3705513  73.8828211
  75.2341504  14.2263643  74.2805436  74.5582409  12.9107038  73.9593436
  73.2940812  19.4357196  71.2289745  73.5799141  20.2361671  70.7887233
  73.2647557  18.7777511  70.5343917  32.9618931  63.9465189  36.6903663
  33.4583712  63.2815838  36.2132907  32.4979687  63.4573746  37.3698831
   1.3111857   3.2387725  40.2857778   0.9310273   3.3402816  39.4131896
   0.6530360   3.6031572  40.8776352  62.4864737  34.9874640   8.2000095
  61.7221300  34.5879674   7.7847844  62.7310387  34.3736172   8.8925505
  58.6188284  62.9811144  13.9306331  59.1413752  62.2068977  14.1398323
  57.7151767  62.6655149  13.9239359  86.3283805   3.9328998  16.6338992
  86.0295639   3.5620365  15.8035970  86.6568146   3.1814072  17.1274793
  31.3626881  17.8181449  53.0825565  30.9389062  17.0619670  52.6765535
  30.8187385  18.0169813  53.8446686   5.3716958  35.4557443  28.4938645
   5.3396428  34.5999885  28.0662131   5.0354642  35.2955866  29.3756413
  39.9711399  67.5813668  69.5202843  39.5920359  68.4270613  69.2808781
  39.4409250  67.2816317  70.2587024  91.1275072  22.5206510  62.0607540
  90.2991385  22.0410959  62.0686219  91.0251279  23.1640617  61.3594899
  21.3730526  51.1425877  11.6956365  21.7431021  50.3206205  11.3736677
  21.5906572  51.1543798  12.6276994  74.3808595  45.6391287  10.2242780
  74.1779248  45.6893635  11.1583686  75.2482060  45.2357769  10.1889670
  75.6267745  26.6366951  64.1381166  76.3228114  26.8087427  63.5039506
  74.8249526  26.6217796  63.6155352   4.6350435  83.1176190  24.4623065
   3.9160946  83.1332291  25.0940514   4.3533448  83.7088410  23.7642145
  38.5349672  78.8626974  38.2904026  39.0087126  79.6511261  38.0254958
  37.6457749  79.1671364  38.4717462  63.4397243  82.4372213  50.3799794
  62.6795291  82.7597754  49.8959420  63.2288550  82.6071827  51.2980625
  86.6943774  39.0718007  16.3216960  87.3954896  38.4983349  16.6312301
  85.9977076  38.9698505  16.9701481  80.3472168  11.6537324  61.4902637
  80.9376020  11.0507099  61.0385511  80.5119975  12.5026552  61.0798845
  27.6021524  82.3682826  70.3533665  28.2289638  82.3964756  69.6304939
  27.5226174  81.4382284  70.5652804  46.4066219  21.6129422  23.0537701
  46.7527437  20.9963417  22.4086046  46.3645983  21.1100912  23.8671613
  76.4563624  37.2169995  28.4897375  77.0406417  36.4604878  28.5401034
  76.8220536  37.8440285  29.1137052  79.4960359  22.2778773  14.6348155
  80.4420177  22.1383214  14.5915139  79.1273085  21.3977885  14.7104287
   3.8337396  73.4762805  65.6274066   3.2747911  73.2398455  64.8871991
   3.3512376  73.1756585  66.3975040  74.4333116  52.1683359  18.1476176
  74.2622749  51.2270069  18.1772590  73.5692958  52.5654221  18.0379176
  15.6581366  71.0480309  18.9926577  15.5513275  70.5398893  19.7967839
  15.3950155  70.4489374  18.2940269  88.4658367  20.8587027  51.2691021
  87.5431869  21.1118436  51.2396097  88.4520192  19.9293005  51.4976883
  57.6073645  80.5135911  61.8501243  57.5426887  80.2805440  62.7762661
  58.0910729  81.3395565  61.8441973  51.1608887  60.6659460   8.5036355
  50.9898806  61.5658188   8.7815130  52.0556068  60.6860638   8.1640673
  70.5485479  67.1480894   9.3618035  70.2908365  68.0678415   9.2995411
  70.0212327  66.7997408  10.0807059  21.5822339   4.0288264  19.6427166
  21.7271543   3.7003177  18.7554109  21.4061427   3.2446766  20.1626515
  38.8750052  51.1947203  19.5772493  37.9938054  51.1633539  19.2047799
  38.7646127  50.8940125  20.4792595  40.0756235  28.1693784  60.9597370
  39.7026319  29.0435401  61.0735223  39.3230815  27.6116935  60.7625053
  16.1852980  70.6378460  31.3506556  15.2902508  70.5810642  31.0161424
  16.1361051  70.2650738  32.2309136  36.5442674  84.5082681  74.2153215
  37.1047066  84.6130579  73.4464530  37.0751397  84.0038126  74.8317086
  76.3116685  68.8487864  25.7101989  76.9549278  68.9559698  26.4108849
  75.7938830  68.0884027  25.9746647  25.0410843  36.6512203   5.7734990
  24.8337674  37.5061226   5.3961450  24.5336509  36.6179490   6.5844464
  42.9766846  71.4865446  30.1092982  42.1255732  71.6051245  30.5309367
  43.0212593  72.1870708  29.4585204  43.8005686  35.7821631  32.0842719
  44.2825413  36.3471055  32.6882339  44.4783974  35.2720690  31.6408944
  12.8801656  37.2523952  28.7478995  12.3124087  36.6255379  29.1961551
  12.6647365  37.1503282  27.8208590  15.0623301  16.9005434  31.9241307
  15.6653718  16.6896574  32.6369450  15.2135876  16.2162868  31.2721035
  40.2172136  40.4654121  25.7994056  40.2231979  39.6147728  26.2382817
  40.6549501  41.0548639  26.4135432  45.7621251  33.9529907  68.3393231
  45.5021666  33.6218350  69.1989676  44.9794541  34.3907093  68.0045686
  24.4666910  58.2574511  18.8158274  24.7583890  57.3671007  18.6198020
  25.1238585  58.8203573  18.4065616  67.4098555  40.3988934   4.6196288
  67.6049773  40.8124924   5.4605168  67.5019232  39.4609404   4.7869679
  17.6411533  43.8917065   9.2952996  17.4218690  43.4716415   8.4636194
  16.8557334  43.7850332   9.8319256   8.8442028  69.7495508  23.0541563
   9.6153009  69.3816471  23.4857655   8.2054955  69.8602676  23.7584448
  11.2949017  29.0825836  61.5218828  11.5139321  28.3141748  62.0489559
  10.5533913  29.4817201  61.9769487  33.8524270  43.0100822  12.8500891
  33.9521146  42.5437069  12.0201564  33.8952994  42.3245239  13.5167241
  45.8438540  57.7181911   7.4093854  45.6514311  58.6092997   7.1176118
  45.2869368  57.5922012   8.1776291  65.6096004  80.7102602  44.2849276
  65.9191512  81.5034287  43.8475535  65.9103344  80.8023660  45.1889775
  79.3105487  36.9850636   1.1857080  79.8017672  36.5448523   1.8793568
  79.1514984  36.3019705   0.5343126  72.3459048  20.3804008  66.7070058
  71.8158205  21.0953180  67.0593307  73.0892737  20.8162681  66.2902865
   9.0126735  49.7435474  36.3098025   9.5240676  50.0708103  37.0498061
   9.0739900  50.4357290  35.6515050  16.3768089  62.0118666  17.2110558
  17.2468400  62.2498751  17.5314128  16.5382397  61.3157988  16.5741396
  78.2167407  14.6869539   9.6587914  78.0915328  15.4385828  10.2381086
  78.9070054  14.1734671  10.0784409   8.3573416  46.0534517  67.2443423
   7.8832677  45.2320425  67.3738388   7.7275900  46.6272203  66.8079517
  24.6784425  55.3966618  30.9915090  24.4380093  55.3052282  31.9134974
  25.4576826  54.8497820  30.8918238  85.1928849  22.9970495  68.9650354
  85.1681681  23.9247171  69.1996721  85.6634469  22.9731981  68.1318281
  73.3810471  75.9183590  49.3759725  73.4370612  76.1966579  50.2901075
  73.2689665  74.9688165  49.4211242  63.5844402  28.2873718  46.0437224
  63.2573452  27.4442140  46.3572929  64.0371109  28.0796663  45.2262995
  82.9509089  34.6784973  12.1577549  83.1305680  35.5960131  12.3629868
  83.5930190  34.1880894  12.6710045  76.8819717  48.8429928  20.0167489
  77.1289972  48.6030674  20.9098577  77.6964036  48.7797976  19.5178092
  32.4940157  29.9786186   5.3453702  33.0250955  30.7522655   5.5341977
  32.6905394  29.3729401   6.0600477  81.1689300  22.2371570  57.3070118
  80.3237052  21.8428222  57.5222466  81.7515154  21.9546072  58.0119905
  81.3612554  40.0409985   3.6197853  81.0560135  40.8384132   4.0524355
  80.5597726  39.5668721   3.3982903  79.8965792  60.3449202  25.6267977
  80.2378897  60.3444338  24.7325158  78.9485387  60.2653170  25.5213761
  78.9151878   8.9731828  69.9269569  79.5031006   8.9557687  70.6821302
  78.5653932   9.8641149  69.9162353  12.4820888  38.7978363   4.9793100
  12.8400826  38.8806725   5.8631712  12.7687275  39.5925689   4.5293427
  15.5966738   5.9547607  65.1382629  15.8094529   6.2728063  64.2608771
  16.1650494   6.4592067  65.7202581  13.5193491  64.7942686  31.9280791
  14.3520069  65.2508497  31.8079019  12.8628635  65.4908514  31.9337440
  10.1256919  38.3432150  13.9773214  10.8584559  38.3072972  14.5921373
  10.1540208  37.5019836  13.5215175  74.1948385  10.6805984  60.8327350
  74.2308624  11.2615482  60.0728474  73.4083254  10.9530059  61.3054130
  59.4058725   0.8611845  21.3346720  59.8433396   0.0918936  20.9699297
  60.0829193   1.3000177  21.8497157  72.4493821  14.9039165  69.8678244
  72.7739544  15.0694553  68.9826802  71.6023738  15.3486721  69.8994255
  26.3295722  59.6350384  17.5020432  27.2442842  59.5150137  17.7572465
  26.3609076  59.7701740  16.5549481  15.1930073   1.3723842  30.1959584
  15.8818129   1.7761175  29.6679661  14.5804385   2.0854560  30.3762839
  72.9370931  25.1849008  24.5071697  72.4615542  26.0098696  24.6047473
  72.4292413  24.5539236  25.0172544  46.3386844  74.3034952  50.0396964
  46.1009441  73.7748067  50.8014057  47.1011911  73.8595550  49.6685741
  16.9413233  36.6899753   7.0275289  16.8764412  37.4598169   7.5926542
  16.7550838  37.0213532   6.1490446  19.9633265  38.9959741  46.3404417
  19.2297828  39.6070361  46.4093542  19.6511328  38.1979251  46.7669201
  18.6345458  11.3691771   5.5734837  18.9517343  10.8556700   6.3164067
  18.4792089  10.7230163   4.8845869  28.7995648  31.9790363   7.9362750
  29.2283368  31.4144135   8.5793823  28.4836364  32.7253366   8.4456438
  29.4721484  33.7061930  39.1043401  30.2903748  33.2094955  39.0989733
  29.0712094  33.5164499  38.2561207  32.1896625  31.5139294   2.8200454
  31.5657997  32.1856642   3.0953568  32.2666979  30.9337473   3.5774675
   0.3046707   9.2281906  50.5081436  -0.0774738   8.7913171  51.2692878
  -0.1186439   8.8135425  49.7564099  28.5897613  49.7996616   5.1797670
  29.0229535  48.9912319   5.4536533  29.3039036  50.3685570   4.8923758
  17.6955676  74.3583870  17.9355836  17.4537170  74.9484825  17.2217703
  18.1529415  73.6362505  17.5048184  11.4899407  66.1771100  72.2459636
  12.2856878  65.6452577  72.2336716  11.0027050  65.8615892  73.0070669
  73.7575284  77.3248482   1.8323536  74.7085646  77.3383188   1.9399644
  73.5437528  78.1899548   1.4828992  13.8847474  25.6022493  65.5045507
  14.1162232  24.7150079  65.2298543  13.6196498  25.5082122  66.4194897
   6.9837993  49.3383026  18.2906818   6.9982034  49.5022249  19.2336309
   6.0616291  49.1793489  18.0892682  70.8417077  44.9908010  65.1527915
  70.7657839  44.2549173  65.7602081  69.9479724  45.3221075  65.0650165
  60.0258853   2.6412384  48.8470647  59.9497121   2.3145906  47.9505536
  60.9388198   2.9184143  48.9242313   6.7098859   5.5542509  73.8543870
   6.9319347   5.5920211  72.9240650   7.4768189   5.9158603  74.2985520
  29.5623231  24.2755175   3.6691645  29.2269182  24.6356082   4.4901824
  30.0720787  23.5098481   3.9339864   4.9197647  24.7830510  38.4092903
   5.5104911  24.0450644  38.2587910   5.4588330  25.5577564  38.2496929
  79.2453746  17.6911283  34.5189738  79.8837713  17.4048746  35.1722264
  78.9821700  16.8863368  34.0725803  85.0742288   1.8388883  57.1385429
  85.8014054   2.0510189  57.7237305  85.0625296   2.5538007  56.5021512
  14.8133397  17.6584208  22.9029608  15.2188516  18.5245216  22.9437137
  15.1222837  17.2879708  22.0761871  84.9342338  46.4841700  15.1591563
  85.4706637  46.6358185  14.3810320  84.7312853  45.5491352  15.1316500
  64.3488584  22.5290004  73.9442807  64.4576187  22.0676796  73.1126650
  65.2367909  22.7844612  74.1943757  56.3814402  57.7173090   5.7710713
  56.4718628  57.7217674   4.8181623  55.4797363  57.9978800   5.9274113
  11.5218723  48.8385439   9.1437781  11.1451948  48.0948687   9.6141970
  11.3882506  49.5844364   9.7286004  68.9683334  83.2465076  30.2172685
  68.7521068  83.4737873  29.3129301  69.6492568  82.5782204  30.1400232
  52.2219490  79.2273777  68.4057031  51.3982938  79.6905844  68.2531783
  52.7171682  79.3461363  67.5952176  19.4462502  21.1839676  31.8779087
  18.8638973  20.4640007  31.6355324  19.8839128  20.8806229  32.6733112
  73.1381245  12.0539705  74.3906825  72.4955327  12.4041359  75.0076841
  72.6149638  11.7348615  73.6553561  73.9601866  29.8878360  33.5823822
  74.2125932  28.9729786  33.4576464  74.6289674  30.3868866  33.1134319
  60.2141734  17.1458236  74.1744605  59.8041426  17.9226915  73.7942187
  60.2488525  17.3285905  75.1134094  36.5957332  70.4577160  35.3287029
  37.1523070  70.0958109  36.0182548  35.8411527  69.8696566  35.2966499
  27.4666398  18.1293940   5.8240247  27.4103722  18.2947039   4.8828885
  28.1732574  18.7003016   6.1256611  15.8683896  28.2920790  23.6373281
  15.2782333  28.7736821  23.0576682  15.2893913  27.7435398  24.1665721
  90.6107075  19.1254830  23.1528544  91.2197960  19.8577309  23.2480192
  90.3293191  18.9302850  24.0466952  11.5372304  16.1664955  59.4819460
  11.6080121  15.6774179  60.3017161  12.3038462  16.7396633  59.4780443
  88.3775676  26.7815399  19.7930157  89.2028025  26.7284822  20.2750993
  88.1449348  27.7097106  19.8178291  14.0920579  75.2931404   5.7650387
  14.1699123  76.0711098   6.3172472  13.5933840  74.6717787   6.2955713
  27.3653841  28.2984161  27.2534657  27.0535779  29.2000103  27.1751237
  27.7109361  28.2410431  28.1442714  78.0202801  16.2632696  48.9959786
  77.8640516  16.5780822  48.1056330  78.8430388  15.7776109  48.9373848
  40.9846210  74.5708990  17.9079235  40.9101820  73.9853001  18.6614251
  41.6500187  75.2090359  18.1653357  41.6319895  49.9573421  13.7278759
  41.5520239  49.1933727  13.1567430  41.4832783  49.6142673  14.6090209
  30.9239987  25.0768558  61.1541555  30.2264145  24.6798841  61.6757188
  30.4746941  25.4431669  60.3924618  36.6168189  38.2883835   0.0659032
  36.2579346  37.8026462   0.8085298  36.2883067  37.8250933  -0.7045991
  43.3705330  60.5647230   1.9646998  43.8619471  60.0401688   2.5968322
  42.9414988  61.2372971   2.4936613   1.1975724  83.9294403  67.5256381
   1.4686591  84.2173355  66.6539386   0.2881343  83.6523836  67.4143145
  47.8553152  47.0912075  22.0978951  47.2778416  47.7674818  22.4520278
  47.2715759  46.5074253  21.6134548  24.8110962  58.1075478   9.6184921
  24.7041821  58.2044744  10.5647516  23.9401770  58.2789803   9.2602479
  49.4268685   0.9687312   1.4865282  49.7619467   1.7162068   0.9913137
  48.6506872   0.6885941   1.0014560  12.0842103   7.7592174  52.3900554
  11.7786244   7.0231716  51.8598745  12.7739457   8.1634847  51.8636844
  38.7756062  28.3054042  13.5217607  38.2957578  28.7366629  14.2288637
  39.5470023  27.9324532  13.9484751  61.6225933  73.1756942  65.7271216
  62.5603555  73.3635538  65.6877962  61.2290524  73.9870207  66.0482219
  35.9548616  51.7681551   3.9085218  36.2602091  50.8681583   3.7944883
  36.6366601  52.3053360   3.5050109  13.4678805  53.1863642   1.9022384
  14.3641007  53.5131216   1.9812903  13.1201863  53.6260843   1.1263616
  26.5213704  48.0876732  20.1436925  26.8693161  48.3634043  19.2956734
  25.6829119  47.6752901  19.9359357  56.0353422  59.7190666   8.7471753
  56.7306280  59.3861437   9.3146050  55.3242779  59.9448299   9.3468833
  77.0810671  42.3377554  70.2905465  76.7885358  43.2435838  70.3912384
  77.6225121  42.1736852  71.0626540  34.0847559  76.4280121  46.4040253
  33.4807853  77.1698015  46.4386914  33.6266779  75.7704370  45.8805845
   6.5204549  59.0099049   8.6572456   5.6128037  59.2844296   8.5267264
   7.0416832  59.7486353   8.3428824  25.1685429  24.2117929  17.2255290
  26.0124779  24.4024920  16.8160915  25.2780318  23.3398986  17.6050591
  38.9856458  64.3829298   6.9768667  39.1937256  65.1215363   6.4046830
  38.1743217  64.0232658   6.6182232  40.6378365  19.0393031  15.8257222
  39.8146152  19.2168033  15.3707147  40.5600405  18.1304348  16.1157870
  26.6397582  84.0206163  72.2372805  26.7369758  83.5011022  71.4392287
  27.3304682  84.6807306  72.1789776  36.1341214  32.9842520  33.7901974
  35.3979445  32.6046848  33.3104014  35.8191538  33.0606580  34.6908569
  39.1362929  63.5895443  19.1596234  39.2385530  63.8282537  18.2383239
  39.6161318  64.2663193  19.6370792  62.1939127  21.4112894  52.6206848
  61.9705044  22.3002044  52.8966400  61.8292276  20.8494464  53.3044765
  63.8989628  16.0765258  62.1725938  64.4130660  15.5353395  61.5733859
  64.4683851  16.8194381  62.3727760  46.3073193  69.3878524  72.7542101
  46.3687776  70.0473421  72.0631752  45.4830466  68.9337485  72.5792928
  76.1063464  10.9967701  71.4488668  75.9276051  11.4059965  70.6022165
  75.2414317  10.8543293  71.8334008  45.6855773  75.0912945  53.6030481
  45.4500328  75.5905526  54.3850276  44.9226581  74.5388525  53.4327743
  37.5440489  68.9911144  48.9204714  38.2858352  68.3938830  48.8240406
  36.7889397  68.4166591  49.0471337  18.4448373  56.9071531   1.3672790
  17.9408288  56.4892721   0.6690097  19.2983377  56.4748001   1.3382967
  25.9056091  49.4183493  29.0244675  26.3861227  50.1367426  28.6130667
  25.0510025  49.4239664  28.5933661  33.9948630  21.0167027   6.1111593
  33.5311127  20.7988310   6.9196749  34.5410991  20.2507663   5.9345168
  16.3106656  60.5682087  24.0639091  16.1479020  61.0594225  23.2586455
  15.9045053  59.7151661  23.9103484  45.7143218  81.9140355  32.5162840
  45.4518051  82.6172251  33.1102872  45.1787968  82.0485638  31.7343974
  37.6352334  58.4326410  18.7645376  37.9778194  57.7203465  19.3044472
  36.7673874  58.6115265  19.1265798   4.7593892  12.0243037  18.7004149
   4.1967073  12.4199009  19.3660903   5.0920427  11.2263834  19.1113853
  59.9120665  73.1049252  18.2261193  59.5399427  72.3729849  18.7180734
  59.3548298  73.8508081  18.4483385  23.9559630  17.9397337  70.5780390
  23.7035349  17.0397464  70.3717864  23.5811022  18.4621183  69.8689375
   1.9063516  67.2569466  19.6215880   1.5427239  67.3242092  20.5044723
   2.7651981  66.8531704  19.7464061  12.8360442  36.8726245  70.2508748
  12.9043940  36.9911424  71.1982465  12.6240233  37.7436105  69.9152124
  37.0185280  30.5256939  29.0352058  37.7040029  30.2736473  29.6539354
  37.4922466  30.8989120  28.2918811  76.6823689  72.8712797  33.9811611
  77.5782029  73.1845903  33.8564682  76.6902260  72.4613142  34.8460889
  28.0987859  30.9949470  11.3666534  28.0982661  31.8396235  11.8169379
  28.6850762  30.4461908  11.8875802   9.7917707  80.1222031  66.3171772
  10.2548558  80.9133022  66.5927646   9.1715200  79.9487917  67.0253090
  49.7961148  15.0256037  15.5089688  49.8170909  15.9795832  15.4334569
  50.6971260  14.7518801  15.3372538  37.0949459  62.2078657  20.4403925
  37.7057004  62.0013952  21.1479115  37.4340439  63.0181932  20.0601101
  57.2037029  59.3582964  27.2215152  56.7779970  59.3314981  28.0784225
  57.2674322  58.4405994  26.9569302  82.4511323  80.7375336  19.3184197
  81.6625855  81.0616875  19.7535598  82.4031333  81.1006451  18.4340692
  65.6808329  54.8875856  25.1676536  66.2215757  55.5826521  24.7925329
  65.0105095  55.3504944  25.6702662  48.6081314  70.4929686  17.6695693
  49.3828773  70.0925589  17.2750187  48.9548349  71.1994934  18.2144082
  17.4965227  70.1388884  23.7472320  17.3919368  70.0475979  24.6943116
  16.8282330  70.7751465  23.4926915  59.6706770  85.3407686  54.6629987
  59.6856378  84.5377080  55.1836750  58.7403105  85.5322187  54.5446942
  44.2639266  81.4199798  65.8328489  44.2225765  82.3748629  65.8850173
  45.0676034  81.2413662  65.3445527  80.3500620  56.2411928  13.4671497
  81.1442236  56.7639112  13.3562219  79.6512596  56.8867302  13.5729182
  24.3443775  47.5423861   8.8913190  23.8379145  47.4435520   8.0851185
  25.0289202  46.8763971   8.8272995  30.9994078  38.3890438  26.5600967
  31.7102838  37.8832412  26.1663342  30.3652287  38.5021710  25.8521056
  61.4367471  26.1415521  70.7464779  61.3293544  26.0077898  71.6881821
  60.6510093  25.7562391  70.3586874  14.3636775  58.7847614  23.3569336
  13.6420441  58.8097811  22.7285624  13.9354479  58.7643194  24.2127585
  25.2784276  51.4591742   8.8182628  24.3497849  51.2667751   8.6884975
  25.7335782  50.8354425   8.2525545  66.1567725  26.3544313  68.7732605
  66.6332687  25.5449382  68.9573905  65.2372859  26.1282722  68.9133588
   9.3067545  56.8659163  14.7505748   8.4921920  57.1523857  14.3374717
   9.0774888  56.0468197  15.1896048  30.0386786  62.8866625  29.9169326
  29.3871903  62.2122574  30.1092219  29.7854280  63.2265472  29.0586925
  77.7014390  49.2372084  11.0807157  77.7078465  50.1391602  11.4011478
  77.6904062  49.3218088  10.1273263  22.0584226  33.8976455   9.4042951
  22.3512316  34.5480967   8.7660092  21.4602661  33.3335161   8.9141959
  32.8113866  25.8564186  20.2217841  32.2219896  26.5177059  19.8591006
  33.5221958  25.7933712  19.5838130   6.7698520  37.8492188   0.3746302
   5.9431022  37.7492809   0.8465722   7.0470190  38.7455845   0.5642084
  82.9222343  57.4867487  68.2510328  83.7500743  57.9504871  68.3769512
  82.3580424  58.1200123  67.8073072   2.6578051  47.5125170   9.7601342
   2.5880826  47.8401184  10.6568217   3.5586986  47.7085829   9.5028776
  89.1942166  53.8313239  35.5511877  88.6585234  54.5618026  35.8604882
  90.0905608  54.1666250  35.5704949  53.2298897  82.4060648  70.8391566
  54.1391061  82.6028745  71.0645998  52.9225443  81.8452256  71.5513573
  52.7658653  53.7148905  12.6932645  52.7075911  53.6661959  13.6474478
  52.5560331  54.6256685  12.4866617  36.7895746  83.1219101  27.0959020
  36.6112661  83.1985092  28.0332232  36.2185955  82.4126625  26.8006516
  81.0297481  33.4215760  10.9740663  81.8380711  33.7733746  11.3470042
  80.5232612  33.1300068  11.7321491  75.4492322  70.8540583  20.6531310
  75.0197581  70.4947329  21.4294505  75.3213111  70.1872540  19.9784148
  59.1928266  69.4833868  35.0043437  59.4897650  69.0256398  34.2178795
  58.2605790  69.2749517  35.0651882  33.6531234  61.5086555  10.2676654
  34.4103241  61.4245129   9.6881813  33.6086011  62.4432898  10.4694104
  36.0740948  14.2357206  30.9911251  36.4021730  15.1111257  30.7855487
  35.7511878  13.8986027  30.1554728  69.7409661  39.8761789  68.7653110
  69.2278607  40.5160944  69.2587319  69.8674203  39.1491930  69.3750039
   7.4137357   3.0639259  45.6645200   7.4052123   4.0075628  45.8248541
   8.2405547   2.9058591  45.2088663   5.2444279  84.8052311  39.8290157
   4.8071384  85.4824924  40.3450823   5.0699109  83.9924622  40.3035402
  12.2767619  39.4239275  57.4998710  11.7468194  39.4076578  58.2968221
  12.5886849  40.3267614  57.4380395  54.2042828  60.2546167  32.8648567
  54.0054941  60.4618216  31.9517398  53.8141727  60.9723663  33.3637309
  15.5824995  60.0639629  20.5901957  14.8560929  59.7226906  21.1118293
  15.4404235  61.0103846  20.5720258  32.3757577  46.2177229  24.2789483
  32.6536441  47.0248985  24.7119403  33.0633378  45.5852222  24.4872904
  12.2501877  41.4525835  65.5028710  12.8518561  41.0561220  64.8727528
  12.2625283  42.3860017  65.2911935   7.3941624  42.6626396  40.3013515
   7.9219633  42.1308804  39.7056246   7.5223261  43.5612726  39.9976110
  16.5680826  84.1607285  18.8911211  17.2440934  84.4110775  18.2613850
  16.8398774  83.2978725  19.2039227   8.2565359   9.5829526  72.5090370
   7.9903892  10.1256982  71.7668641   9.2031864   9.4848720  72.4067404
  11.1369503  25.1577806  21.5235162  10.2870071  24.7534823  21.3492393
  10.9266484  26.0542345  21.7850018  88.0918140   7.1373359  57.4340484
  88.0428953   8.0917589  57.3801217  88.8884873   6.9108478  56.9542084
  47.1950150  82.3943329  40.6121254  47.3170328  83.1546402  40.0435591
  46.6881037  81.7784595  40.0829935  59.0828848  68.5200262  29.2048573
  58.9413071  68.6759329  30.1386023  60.0316238  68.5803413  29.0931082
  67.1347475  45.8176994  12.2961617  66.2239265  45.7028055  12.0251727
  67.3762083  44.9778080  12.6866913  27.6065421  49.4693470  35.2813244
  27.5188828  49.8182487  36.1683488  27.9099393  50.2128601  34.7603917
   2.3371518  28.3375406  14.9252665   1.4717822  28.7063003  14.7481132
   2.3303325  27.4879909  14.4843030  39.4746876  83.3856201  64.9694490
  39.6674418  84.3187332  64.8779488  40.1605225  83.0551434  65.5496645
  71.6470066  70.0825310  32.9414201  72.1773902  70.4892445  33.6266255
  71.1812190  69.3750906  33.3872914  75.3343315   0.4131738  52.6958678
  75.1038296  -0.0347479  53.5097883  75.2000923   1.3414375  52.8870270
  13.8849127  66.9265985   8.4649575  14.4109857  66.3811016   7.8802288
  14.0378237  67.8210115   8.1602025  12.5194848  45.1409721  18.9074469
  12.9651904  45.8328772  19.3961656  13.1955099  44.4801331  18.7574017
  21.4027098  18.8431446  60.2062890  21.5958813  17.9056589  60.2121875
  20.4925517  18.9019815  60.4967627  88.7292023   7.6685945  43.1049797
  89.2503042   8.2199232  43.6886928  88.0376787   7.3144285  43.6640808
  57.1621227  76.6628647  52.3161364  56.4227152  76.4196587  51.7590380
  56.7609739  76.9328403  53.1422234  12.6553750  61.4341784   9.0210229
  11.8557870  60.9812164   9.2888230  13.2875586  61.2321568   9.7107792
   4.9072368  72.2912114  62.5668130   5.3423650  72.2133486  63.4158299
   4.5482928  71.4195292  62.4008033  64.2939016  10.0031351  20.8885503
  64.2189547  10.7661413  21.4616442  64.5732232  10.3625559  20.0465131
  29.1825342  68.4144402   3.6637166  28.2895064  68.1303692   3.8587543
  29.7353268  67.6981211   3.9760190  31.4142394  56.9594049  22.1771765
  31.4188671  57.2290325  21.2587452  32.1723104  57.4008226  22.5602055
  24.0926719  60.0442553  25.3990340  24.6239614  60.3556252  24.6662235
  23.2470036  60.4773426  25.2827907  29.8553160  16.4836446  56.9915864
  29.5886878  17.2002307  56.4157018  29.4419459  15.7069532  56.6146157
  19.8830080  45.5655384  34.9723959  19.8329997  44.9655342  34.2282701
  20.5199242  46.2276745  34.7037935  61.6027102  20.2830211  72.5334515
  61.9465218  21.1659090  72.6695998  61.8513190  20.0650636  71.6351653
   7.4461102  32.5944257  11.4885342   7.3813367  33.2847357  12.1484649
   8.1997049  32.8442168  10.9538090  21.5485668  39.6602559  25.1054525
  22.1424198  39.1444373  25.6508851  20.7013869  39.2237258  25.1946831
  64.1854797  22.5704805  69.6202183  64.5148085  21.9821683  70.2996767
  64.0380887  22.0034448  68.8632676  31.5690351  64.4747019  17.5317323
  32.3580027  64.2307186  18.0157113  31.4108253  65.3866720  17.7756870
  82.0998212  10.2026342  25.8393764  81.1926862  10.2526258  25.5379748
  82.6211807  10.4226469  25.0673604  44.1138983  81.6604996  15.0709665
  44.5779037  82.4035740  14.6852553  44.6531296  81.4034939  15.8189058
  89.3316884  18.4393970  52.2335312  89.5216079  18.5507242  53.1650708
  90.1825447  18.2541601  51.8360874  35.7639384  58.7848425  10.0098252
  36.2219310  58.5302353  10.8108556  36.3163209  59.4646502   9.6238649
  80.3096957   8.4739009  72.2736651  79.4350393   8.7614719  72.5354147
  80.6184084   7.9456178  73.0097685  61.9197318  11.4357065  34.7652078
  62.3946258  12.0793985  35.2909207  61.0770604  11.3389467  35.2088022
   8.4607036  73.2979195  69.2545245   8.8579757  72.9228203  70.0404677
   8.9839465  74.0780799  69.0706787  82.3223967  73.2867567  60.9522519
  82.0467610  73.0321733  60.0716588  82.9405780  74.0039388  60.8117637
  56.7702958   7.7758192   4.8069090  56.9747206   7.2963499   4.0040681
  55.8211442   7.8964399   4.7787514  18.5770142  68.6127949  18.2879066
  18.0909538  68.5358238  17.4668992  19.3457198  69.1369152  18.0629146
  18.6604404  64.8503780  16.0435259  19.2396593  64.8806953  15.2820671
  17.7783561  64.8256922  15.6726503  41.9765663  55.5249214  22.9166460
  42.0936823  55.7142448  21.9856930  42.2918653  56.3111019  23.3624530
  60.5794239  66.1987591  42.3694515  60.1096296  66.0449791  41.5497684
  59.9401283  66.6332483  42.9340363  25.6035376  69.4826269  34.6305513
  24.9459505  68.9056587  34.2420650  26.4175129  68.9807463  34.5882559
  12.5197923  74.8285675  20.6625628  12.1368790  74.2398787  21.3129854
  13.4315538  74.5460415  20.5911374  38.2881737  38.6045551  16.8600488
  39.1585827  38.5254359  16.4697111  38.3749247  39.3136930  17.4970961
   4.0030581  67.5813055  15.1769948   4.3855020  68.3807755  14.8153090
   4.2582664  67.5898075  16.0995066  44.0914774  80.6544685  27.7303243
  43.5526705  80.8552837  28.4955668  44.0264988  81.4350510  27.1801424
  46.0798216  76.3092804  36.2368083  45.9365082  77.1161222  35.7421327
  45.3261137  76.2512684  36.8239975  28.6283827  58.6083221   3.8783059
  28.0519199  57.8443241   3.8935614  28.3455610  59.1064930   3.1114495
  11.5838706  50.9324932  10.7382989  12.0206904  51.5692472  10.1726425
  10.8453107  51.4122248  11.1132872  67.9273255  11.8503849  61.6577408
  68.4652008  11.0755865  61.4946315  68.3170683  12.2535364  62.4335000
   4.7375921  31.9349710  68.3910808   4.3330053  32.5670806  68.9852050
   4.4490245  32.2065488  67.5197557  40.1185608  55.6834793  27.1813250
  40.9041739  56.1841345  27.4013042  40.3180552  55.2846766  26.3343382
  19.1621188  33.4282009  45.7634542  18.9614514  34.1000024  45.1118038
  18.8438634  32.6138918  45.3737829  12.1206359  28.2648746  73.8151597
  11.9466427  29.0033666  73.2315600  11.8233517  27.4977485  73.3259026
  89.0113921  48.9795343  62.9905186  88.1062527  49.1150228  62.7101598
  89.1078181  49.5339147  63.7648556  30.0576377  73.8522148  25.3893280
  30.1575017  72.9192829  25.5787802  30.3318453  74.2908573  26.1947060
  19.4772279  62.8367424  18.7231207  20.3823233  62.5312614  18.7840593
  19.5387542  63.7876415  18.8139045  26.6842842  54.7134256  25.8244205
  26.8500304  55.6392336  26.0022950  26.7503166  54.6368456  24.8725748
  49.5738411  67.3737097  13.7689519  49.4374990  66.8354273  14.5486259
  48.7459707  67.8397131  13.6518669  44.1291285  65.1049185  42.5808525
  43.2672691  65.2890539  42.9543781  44.6627045  65.8610106  42.8255081
  77.5840473  62.6409864  27.1732521  77.9742193  62.6091290  28.0467415
  76.8577003  63.2586479  27.2577620  14.6023667  74.6988153  26.9703150
  15.0505769  75.3787851  27.4732876  13.8998127  75.1621103  26.5142345
  38.8153412  14.5392489  17.7236784  38.5612276  15.3794264  17.3418903
  39.2337569  14.0661024  17.0044506  37.2623110  83.0120754  17.8792262
  37.6509404  82.4873638  17.1793139  36.4544272  83.3573818  17.4993324
  33.0761433  67.5723124   1.7185783  33.6917591  68.2454681   1.4285576
  33.6294985  66.8289948   1.9583786  26.2783146  42.4904251  14.8739672
  27.1442223  42.4890089  15.2819288  26.0243678  41.5678978  14.8478031
  40.0560045  66.5563774   5.1289153  40.2192593  66.6767788   4.1934562
  40.9283257  66.5042830   5.5195236  27.9599929  51.8076324  33.6727500
  28.5617065  51.7855215  32.9286528  27.1109915  52.0250750  33.2878494
  28.1971951  84.9981802  48.6490462  27.4519791  85.5345027  48.3784125
  27.8354047  84.1174142  48.7469528  45.3367329  79.3993092   9.9688596
  45.3102160  79.6819592  10.8829916  44.9721909  80.1367664   9.4794685
  21.9361281  52.0795393   5.8126014  22.1802831  51.7144489   6.6630888
  21.8332076  53.0172157   5.9751016  37.6312304  65.5531454  17.4633062
  37.5175023  64.6301222  17.2367430  37.5797105  66.0134840  16.6256523
  63.4724189  55.4492799  61.6490958  64.2059265  54.8403112  61.5633545
  62.9229156  55.0674955  62.3335824  57.6977301  55.1766634   4.7941762
  57.2654104  54.6112251   5.4341823  57.0066833  55.7640314   4.4880968
  62.1250248  83.3618641   0.6076642  62.2586918  84.0391254   1.2707476
  63.0007315  83.1888771   0.2620662  31.0267854  73.7906361  47.3305941
  31.3584280  73.2359552  48.0366898  30.1211882  73.9774704  47.5780153
  36.4757213   5.4001402  31.8138123  36.4016220   5.6722521  32.7285242
  36.2697216   4.4654345  31.8245411  50.5770584  11.8746256   3.0062649
  50.1622900  11.6500734   3.8391960  50.8975264  12.7678560   3.1314123
  66.4715576  85.0560760  14.3648636  66.1159801  85.9098625  14.6115351
  67.1337175  85.2546120  13.7027788  41.4320660  46.1704493  29.2351294
  41.4148331  46.2035656  28.2786584  42.2535276  45.7259941  29.4446349
  55.1148319  64.5473576  22.9467821  55.8497524  64.0892744  23.3545542
  54.3623400  64.3305826  23.4972310  74.9552734  33.8052599  65.2700928
  75.2535589  34.2455379  64.4742194  75.5197568  33.0357639  65.3440330
  24.1017413  66.0787916  15.1771796  24.5211124  65.2681637  15.4656959
  24.0691185  66.0052538  14.2233658  18.3803332  34.6509171   9.3174636
  18.7559712  35.5234718   9.2000973  17.4700439  34.7421813   9.0359008
   6.0403204  58.2385111   3.7553918   5.7043076  58.7958765   4.4572979
   5.8480221  57.3466444   4.0449175  11.4336050  73.1839705  24.9534416
  10.5717790  73.0823565  25.3573728  11.7649055  74.0120125  25.3010273
  88.3779455  35.6087399  40.9897661  88.9120068  35.8832955  41.7351723
  88.9990204  35.5320668  40.2654600  26.2437609  32.5996963  55.8151851
  26.0771397  33.5320369  55.9537837  27.1500662  32.4739734  56.0963151
  68.8257786   5.7768988  33.3496523  68.1350490   5.3196310  33.8292646
  69.5670363   5.7935308  33.9550400  64.8862957  84.0918796  72.7963959
  65.1784371  84.8776357  72.3343604  65.4813217  84.0175931  73.5424909
  56.1280727  79.4964552  25.1918292  55.2111530  79.5127296  24.9175596
  56.1583185  78.8398218  25.8876419  82.0392934  73.1982756  21.9694138
  82.2786692  73.6670208  22.7689195  82.5072924  72.3655415  22.0307660
  36.7898154  79.4356489   5.8215797  36.6791940  79.9200726   6.6397059
  36.2620568  79.9174356   5.1847231  14.7414386  41.6564989  15.0145197
  13.9627004  42.0498419  14.6207166  15.4461145  41.8497038  14.3961871
  19.7100449  79.3681431  17.8811228  20.2848768  78.9202118  17.2605085
  18.8251889  79.1509295  17.5877261  77.3713752  15.3999876  32.8712773
  76.7221757  14.8459600  32.4378943  78.1156989  15.4122995  32.2695589
  79.8645297  60.7072973   2.4680585  79.4987968  59.8654509   2.7396530
  80.7122437  60.4868126   2.0820534  19.4512475  72.7807093   1.4142321
  18.6126459  73.1708574   1.6607383  19.7426820  72.3217440   2.2020438
  51.2902355  48.3347797   6.0589230  50.6966877  47.8771782   5.4634923
  51.1451101  49.2629290   5.8753234  20.2023915  14.6808425  70.2303860
  20.3955439  13.7444727  70.1841608  19.2700890  14.7228662  70.4431567
   2.3467973  54.6268503  62.4860356   2.6387480  54.0532438  63.1945381
   1.8091396  54.0643446  61.9285950  14.5280457  16.5142250  25.7128716
  14.3537366  17.1383560  26.4173627  14.5447099  17.0481205  24.9185729
  38.3393192  70.8779716  15.7042468  37.9792356  70.1927519  15.1411748
  38.0669713  71.6965151  15.2894664  17.4298981  45.5575029  60.7813594
  16.6308764  45.1012556  61.0452483  17.6524190  45.1784650  59.9310336
  28.9126900  61.7731802  70.7514957  28.5462550  62.0061342  69.8984483
  29.7917966  61.4498655  70.5543310  23.2983351  82.2503090  56.4805269
  23.5981965  82.0577717  57.3689222  22.5057530  81.7239094  56.3759041
  20.5487803   9.2428819  74.0536471  21.4330224   9.0719549  73.7294017
  20.6486586   9.9958173  74.6361767  54.0103458  69.2853324  66.5017781
  54.9437259  69.4748967  66.4064005  53.9029597  68.4134238  66.1216781
  36.4897823  76.5227985  10.3337920  36.7174363  77.4488497  10.4164326
  35.5339599  76.5058756  10.3822553  33.9222649  60.0817148  72.1367890
  34.5086459  59.6975462  71.4850229  34.4810608  60.2408544  72.8974835
  28.5233569  53.9924765  18.1174147  28.9325380  53.4196472  18.7660050
  27.5997305  54.0161943  18.3675826  32.5911788  48.2426969  63.9236781
  32.7597121  48.8697759  64.6269647  31.6379050  48.2292406  63.8381347
  23.3936620  48.4892559  34.9177861  23.7979221  47.6472664  35.1272106
  23.7601662  49.0972185  35.5598855  48.1445452   2.0109247  20.8393502
  48.5665199   2.3874258  20.0670695  47.9523250   2.7638601  21.3982511
  55.4023170  69.4878006   1.0379463  55.2929354  69.3934345   0.0917106
  54.5101929  69.4751263   1.3846254  11.4885341  82.3776453  66.5230123
  12.4178730  82.2144215  66.6840050  11.4778613  83.0391471  65.8312533
  18.4003389  57.3669291  24.9828053  19.0517628  56.6658640  25.0024819
  17.5699174  56.9274616  25.1658392  61.5478659  35.2521276  16.1343277
  61.1171913  34.9228430  15.3454542  62.4722433  35.3152299  15.8939540
  13.4389186  73.0522013  18.0933404  14.3959248  73.0329800  18.0943286
  13.1895077  72.6034021  18.9011800  66.0750360  26.1289207  62.4777052
  66.7977871  26.0914318  61.8512413  65.7808138  27.0393507  62.4497351
   2.6227692  37.4603025  64.6634725   1.7900065  36.9996110  64.5609871
   2.4465707  38.3466474  64.3479214  13.8733196  68.4337378   0.1547215
  14.5630419  67.9280663  -0.2751774  13.5769892  67.8732538   0.8718541
  13.4777355  41.7876291  33.6937642  14.1094470  41.8888903  34.4057465
  13.7127352  40.9563494  33.2814837   9.1917280  48.2215540  59.0037212
   9.0464309  47.2891275  58.8433895   8.3293823  48.6212770  58.8905129
  33.4951901  50.8608580  24.4374228  34.2085433  50.2795458  24.1739202
  32.7429342  50.5643177  23.9251685  13.7647847  25.5559866  71.2264666
  13.0273703  25.6428615  71.8305406  14.3183974  26.3140623  71.4137382
  86.2509859  55.6955528  16.5113425  86.3811550  56.4913511  17.0270884
  85.4825095  55.2798080  16.9022775  11.2773064  36.0289995  66.9482968
  10.3276042  36.0396902  67.0674161  11.4978579  36.9271413  66.7014519
  13.1246293  56.0262299  20.2871013  13.8123107  55.7464695  20.8913016
  13.1567180  55.3871441  19.5752215  54.4517776  31.7287706  16.0639262
  53.5004565  31.6228746  16.0662973  54.7130844  31.5261625  15.1656473
  40.3791520   2.9089045   9.3242341  41.2698480   2.6335882   9.5412433
  40.2134534   2.5263857   8.4625769  15.1604298  60.2224390  71.6423142
  14.6444682  60.1430360  72.4446309  14.5091990  60.2679388  70.9422705
  38.4949613  68.2122755   6.8249768  38.2270789  67.6802588   7.5742596
  39.1580653  67.6838160   6.3808453  55.3028536  70.4694366  38.4191942
  54.6903801  70.9031439  39.0133381  55.2991629  71.0140038  37.6320052
  85.9291908   2.3413919  38.6826277  85.6272575   1.7100691  39.3356991
  85.4848739   3.1568979  38.9145017  29.4101572  51.9421434  23.2743335
  29.5131326  52.2039938  24.1892433  28.6766624  51.3271999  23.2823038
  85.3241501  78.3540964  18.5959327  84.5936803  78.2055473  19.1964149
  85.8133624  77.5314140  18.6057329  28.5026073  75.1605749  15.1603162
  27.8089094  75.8137321  15.2519739  28.7217522  75.1730633  14.2286241
  63.8034248  72.7658176  20.6961513  63.1009197  73.2901001  20.3116393
  63.6294174  71.8741894  20.3945661  31.4513111  67.4365234  14.5868242
  30.9404564  68.1032276  15.0459135  32.3626280  67.6899385  14.7334969
  42.9967213  66.3354063  12.1809864  43.0452347  65.4605007  12.5662422
  42.3760700  66.2446499  11.4579463  31.7083025  80.1242256  13.3668780
  31.1608839  79.3495893  13.4953439  31.3399363  80.5523396  12.5940537
  24.7413213  83.1746547  47.4010346  25.5537564  83.1806772  46.8949148
  24.0593393  82.9839294  46.7570183  14.9364880  22.8773872  51.6693041
  14.5800236  23.1842414  50.8356330  15.1440266  21.9555751  51.5162680
  58.3204651  75.5426645  13.3465242  58.6758661  75.9738588  12.5693560
  57.6084042  74.9967861  13.0130231  24.6244574  63.4517241  15.1765740
  23.9287472  63.0945826  15.7285416  25.2571845  62.7379084  15.0968575
  39.6700668  53.5742617   6.6235036  40.4989719  53.3535242   7.0482653
  39.0171123  53.0472708   7.0841181  89.4064970  38.7112085  55.8734069
  88.9123530  38.7501470  55.0545428  89.8641510  37.8712789  55.8372686
  51.8960639   2.5636171  11.6852021  52.5450989   2.5706076  12.3887193
  51.1348030   2.1257566  12.0659840  17.2934687  37.6612878  33.9539456
  17.7776051  38.4020686  34.3187571  17.0896173  37.1121907  34.7110248
  42.4526310  67.1808767  32.9128814  42.3084688  66.2951469  33.2459569
  42.0716763  67.1715212  32.0348072  23.4609842  49.7490597  24.5535731
  22.5991821  49.8096228  24.1414332  24.0346694  49.4195223  23.8618207
   6.3968328  30.0885526  26.6976473   7.2573761  30.4688493  26.8739102
   6.1299161  30.4760400  25.8640740  82.2372456  25.0927393  57.3248181
  83.1648440  25.1651374  57.5496480  82.1164317  24.1700260  57.1006868
   3.1282356  60.1436996  29.5221639   2.9483917  61.0835266  29.4972682
   2.3452276  59.7400093  29.1477799   0.5333165  23.6202995  64.5538882
   1.0529259  22.9244176  64.9563650   0.3311542  23.2920639  63.6777458
  35.5672336  73.7131453  16.9746411  35.6402349  73.6514997  16.0222208
  36.4668846  73.8394833  17.2761345   4.0394095  23.4102718  52.1350834
   3.1923750  23.0109016  52.3332379   4.3308381  22.9700653  51.3366363
  34.5244288  35.1100445  30.6608963  34.5981979  34.3358302  30.1028776
  34.0351391  35.7404947  30.1323509  41.7809057  71.4308643  26.3444948
  41.5404367  70.6380081  26.8238568  42.6329279  71.2280989  25.9582686
  18.5599148  77.0466232  29.1269922  18.9003623  77.7849865  28.6218691
  17.6432800  76.9763803  28.8603854  49.3755627  83.1907749  38.2297635
  49.2971277  83.6259174  39.0787268  48.6442232  82.5735855  38.2084894
  30.2616000  55.3646851  26.0778522  30.0946045  56.0534334  26.7212534
  29.7866654  55.6468868  25.2961659   7.8841499  66.9167654  62.7625081
   8.2052449  67.5579301  63.3965788   8.5412029  66.9185106  62.0664391
  11.7142284  81.8577194   7.6116508  12.4491346  81.2786198   7.4096864
  10.9483409  81.4046574   7.2589707   3.8113550  41.6124384  42.3454735
   3.3126429  41.9423524  43.0929205   4.4323472  42.3124830  42.1441052
  48.0022330  23.2923214  73.8480277  48.2243164  23.2462637  74.7779683
  47.5862009  22.4511997  73.6591911  28.5679606  18.8163749  47.8749893
  27.6265887  18.6700956  47.9680083  28.6427811  19.7326557  47.6084206
  24.5118475  76.3650942  17.0254731  24.8905158  76.2252998  17.8934014
  24.0874553  75.5339432  16.8126130  66.6704096  52.8406087  69.4384709
  67.0919962  53.6964075  69.5165408  66.8881161  52.3909799  70.2549741
  26.3069132   1.1103717  59.1896007  26.2234381   0.2268974  58.8308046
  25.4645232   1.2778465  59.6121750  13.3795285  30.8790374  19.1954494
  12.6891661  31.2160516  19.7664595  14.1821206  31.2823033  19.5262873
  65.4734775   3.2596849  33.9082289  65.2502438   2.6632189  34.6228099
  65.3627368   2.7353357  33.1151199  25.7791924  51.8577719   5.1536351
  26.1231160  50.9646797   5.1352322  25.2534413  51.9284296   4.3568757
   2.5618368  83.2520676  26.4565396   1.6281682  83.0485153  26.5118623
   2.6239520  84.1675282  26.7291284  40.6523180  84.5528889   3.0368885
  39.8542809  84.0284061   2.9714176  40.9713507  84.3936920   3.9252049
  67.0408629  73.0830996  58.7794874  67.9969429  73.0417173  58.7586520
  66.8379210  73.5173075  59.6080456  21.8197536  76.5495825  22.6120257
  21.3098979  76.4223099  21.8119764  21.3212276  76.0920668  23.2890677
   0.1385127  76.2492037  16.3707745   0.6880115  75.4906225  16.1736977
  -0.6444176  75.8784914  16.7779934  14.7677973  71.5872137  73.4472233
  15.5211810  72.1384946  73.6587417  14.5482997  71.1546842  74.2724330
  13.4764126  49.2226736  64.7174487  13.7388543  48.5992948  65.3947625
  13.4984091  50.0741808  65.1541350  60.1716859  43.6986105  68.9766136
  59.2777963  43.3777563  69.0959612  60.3286545  44.2586175  69.7368661
  16.6106939  73.0361652   5.3439176  15.7259846  73.3001947   5.5965197
  16.9424903  73.7719297   4.8293376  88.5614273   6.2981199   4.9164233
  88.8855049   5.4993986   5.3326577  88.7737485   6.9949221   5.5374086
  89.8268612  58.8832235  13.9306390  89.1246238  59.0231848  13.2954192
  90.5946254  58.6772394  13.3974028  56.3912562  31.7369119  63.0591914
  57.1308020  31.4487831  63.5942504  56.5356139  32.6751701  62.9364416
  55.3165770  63.9182758  34.9803519  54.5699215  63.5228491  34.5304894
  55.4454374  63.3723402  35.7559681  17.1471480  60.1101247  62.1855054
  17.7916030  59.4096700  62.0841870  16.3685206  59.6714632  62.5283525
   8.2804206  32.4961225  72.7682892   9.0067581  32.1042863  73.2531909
   7.7289752  32.8932468  73.4424074  27.7538753  54.5844746  21.6101837
  27.0425463  54.1710806  22.0994163  28.1141615  53.8806438  21.0706925
  14.8728209  17.4778151  45.7398415  15.7127934  17.8222918  45.4365158
  14.5105772  18.1759523  46.2853861   6.1552839  17.7054190  47.9031754
   6.3053398  16.9642900  48.4900665   6.8946438  17.6833509  47.2956419
  33.0525088  39.9960780  20.4381847  32.9609013  39.7194171  19.5264280
  33.6763692  40.7213736  20.4068685  22.3656731   7.7673029   1.8491973
  22.0441132   8.5462927   1.3953131  21.6772919   7.5563787   2.4799804
  63.7406969  56.2809992  26.3034844  63.4020090  57.0556927  25.8547425
  62.9633427  55.7566595  26.4958811  57.5637102  60.2581406   1.3550380
  57.5085068  59.3645000   1.0165243  58.3466482  60.6226683   0.9422925
  73.7086746  21.3943266  56.7004108  73.3982345  22.2024988  56.2920952
  73.1062099  21.2476515  57.4296236   0.6952601  16.6097330  43.1939745
   1.4195995  17.1378111  43.5296726  -0.0744219  16.9340967  43.6615276
  51.0197115  64.6859026   8.3628953  51.6278505  65.3498220   8.0379230
  50.3687811  65.1805258   8.8607609   4.8650006  58.3430425  39.5888350
   5.3688315  58.1592886  38.7959788   5.0865964  59.2478124  39.8091147
  78.4837123  15.0953363   0.4651634  78.0533477  15.7702898   0.9899957
  79.4094535  15.1644873   0.6985193  14.0169457  22.9249612  64.8095444
  14.2582062  22.7215377  65.7132277  14.6586350  22.4534265  64.2783902
   4.5326904  47.0645467  64.9654720   3.6647395  46.7796747  64.6795610
   4.6822551  46.5918485  65.7842634  49.3790722  76.6637087  13.9292586
  48.9081621  77.1435976  13.2479465  49.7351408  77.3450422  14.4995522
  65.0768038   0.9841513  35.9855795  64.5626494   1.6701578  36.4113426
  65.1253458   0.2830195  36.6354179  29.7412539  64.8472786   7.3604339
  29.4431043  63.9404583   7.4312627  29.8235583  65.1438284   8.2668084
  54.6618652  82.1741867   0.6856523  55.1216698  82.5742149   1.4237526
  55.3472948  81.7237377   0.1921790  86.2976360  77.5490332  38.9537573
  85.9193230  78.4220982  39.0580201  85.6711578  76.9640875  39.3798995
  40.8788010  20.0082659   3.0916491  41.4344963  20.0647902   3.8689777
  40.1940146  20.6606745   3.2388118  34.5484995  25.5834555   1.3840277
  34.5054075  25.3245997   2.3045549  33.8430976  25.0916075   0.9636438
  55.3531504  56.4268255  20.9475088  54.5248270  56.3806057  21.4249802
  56.0242844  56.3155508  21.6208768  24.1026095  61.1862222  73.0540702
  23.3770636  61.1141531  72.4338952  23.8590983  60.6067506  73.7759756
   7.6870804  23.0174612  20.0246072   6.8089943  23.0646681  19.6464908
   8.2057505  23.6298536  19.5028913  65.0990629  79.5312977  31.6437912
  65.4291964  80.3988743  31.4102244  64.2032480  79.6882868  31.9422936
   9.6289614  19.8871795  54.2474935  10.3030709  19.9113504  53.5683558
   9.9247006  20.5208055  54.9011693  30.2214503  40.8789873  27.7639365
  29.9538064  39.9850917  27.5505209  29.4704342  41.2496758  28.2274032
  28.2450180  23.8428568  20.0562501  28.5503655  24.0722059  20.9339690
  27.6589375  24.5590757  19.8117900  34.7913432  85.8870125  13.8726747
  34.4789457  85.0470924  13.5362434  34.1745162  86.5297031  13.5223842
  68.1239319  85.5843353  35.0560331  67.5588989  85.1781178  35.7132649
  67.5930929  86.2902927  34.6871638   4.2934589  11.0402559  10.3642082
   3.9271860  10.2349161   9.9988222   5.2324657  10.8672213  10.4317355
   9.3800953  50.5571882  73.7598652   9.7145537  50.6357519  72.8664458
   9.1564468  49.6309892  73.8513100  63.9003083  19.2636560  20.2519989
  64.2061445  18.3607077  20.1661229  63.0877849  19.2904066  19.7467041
   2.2116235  46.8764822  72.0588437   2.8462270  47.1408025  72.7249067
   1.5286783  47.5459234  72.0996628  48.2253075  82.4880886  10.2114952
  48.6320543  83.3224964   9.9779189  47.2947693  82.6926899  10.3035140
  78.3912345   0.4737066  29.7032046  78.5734292   0.5018305  30.6424832
  78.0332252   1.3384890  29.5026684  86.0027715  13.7278914  27.1025920
  85.1470205  14.1564821  27.0874786  86.1722347  13.4991049  26.1887145
  72.6955959   3.2788157  16.6073656  71.7550632   3.1198572  16.5275657
  73.0111619   2.5715136  17.1698391  90.9596873  65.8123159   1.9174917
  90.2727966  65.1996946   2.1803756  91.1536928  66.3098907   2.7118546
  11.7104891  51.4298383  60.1500306  10.9799651  52.0251886  60.3177521
  12.3271779  51.6009370  60.8618269  32.3967187  23.1206965   4.5696831
  32.0709931  22.2500204   4.7978732  33.1104892  22.9555296   3.9536601
  13.3454445  22.3127548  53.8758967  13.0176905  21.4416830  53.6521957
  13.8728980  22.5715534  53.1202171  46.7806435  85.6652355  36.6969514
  47.4126482  84.9491119  36.6339231  46.0992575  85.4397678  36.0636139
  61.0726166  61.8764544  25.7054043  60.7298660  61.4225960  24.9354911
  60.6197739  62.7197552  25.7076573  60.2748823  74.0192986   5.7248044
  60.1174164  74.4404984   6.5698057  61.0291862  74.4839859   5.3624243
  53.5198164  61.2318897  30.4814577  52.5973177  61.3080883  30.2376890
  53.8903952  62.0931482  30.2887535  37.4647236  72.5144529   2.6189852
  37.8875017  71.6556835   2.6162529  36.5766597  72.3452187   2.3044452
  17.4040854  78.3953428   5.8173472  17.3186767  78.9773512   6.5724665
  18.2328951  78.6495638   5.4115415  17.1694958  58.2968235  43.0708885
  18.0043876  57.9398680  42.7679539  16.5384829  57.5936747  42.9171467
  57.8278255  60.1763916  14.5261991  57.5785065  59.4394159  13.9685822
  57.2468615  60.8878326  14.2568219  39.4065789  39.0857736  65.2890310
  39.2182950  39.5066015  64.4501707  40.3497389  38.9236204  65.2692911
  50.6112143   6.8975042  27.2391915  50.7364627   7.6127123  26.6154742
  50.0338980   6.2829565  26.7861342  87.8889295  35.5728983  37.3608732
  88.7870809  35.8290361  37.5705075  87.8803560  34.6215605  37.4663448
  63.5776488  30.8795023   0.1594106  64.0878311  30.9552431   0.9657664
  62.8079406  30.3686690   0.4100703  79.8491747  41.6790048  65.6492290
  79.1158910  41.6521589  66.2638882  80.4162366  40.9574167  65.9212235
  30.1211071  30.6453347  27.4050808  29.7288442  31.4489603  27.0636940
  29.7462392  30.5489731  28.2805371  10.6520963  70.9433889  17.9438543
  11.0041201  71.1428356  17.0763671  11.3681793  71.1469746  18.5455263
  84.8226495   9.3906347  67.0319382  84.9184794   9.7339956  66.1435959
  85.4517503   9.8912708  67.5513855  54.3642092  78.1309223  29.5890784
  54.8821068  78.8771391  29.8910356  53.4652328  78.4585524  29.5620346
  55.6367826  79.9438334  15.5783331  56.2395811  79.3897390  15.0825107
  55.8468103  80.8352375  15.2998948  12.0144069  78.1585407  62.0279837
  11.3259566  77.6569510  62.4646473  12.0422566  78.9898157  62.5017357
  88.3556100  29.5760130  14.9098241  87.7395936  28.8437151  14.9323225
  88.3082315  29.9558901  15.7871366  41.7027617  59.6167326  33.7474442
  40.9666729  59.1901875  33.3087349  42.4657202  59.0962982  33.4958982
  75.8371993   3.5591196   1.9396968  75.2657052   4.2609667   1.6281962
  75.3829118   3.2010340   2.7023461  60.6909391  27.7950071   5.5066037
  61.0088965  28.3145784   4.7682410  60.9233710  26.8937754   5.2830118
  37.8549576  80.0735378  24.1310024  37.0542598  79.6286011  24.4087625
  37.6484394  80.4180622  23.2621646  61.6258478  43.5492039  12.2415090
  62.1561098  43.1870365  12.9513597  61.7330694  44.4969702  12.3219967
  18.2662753   9.8164407  44.9823472  18.4836081   9.6312324  44.0687296
  18.7074784   9.1266386  45.4780767  59.2543572  15.3152172  15.3970644
  58.9511229  14.4202606  15.2443144  58.9537428  15.8040039  14.6309397
  40.7431364  69.5220184   5.9526652  41.2339401  69.2376232   6.7236787
  39.8406458  69.2586994   6.1326861  38.2185268  66.2798166   8.7180543
  38.6532331  65.6398010   8.1544572  38.0468774  65.8052158   9.5313936
  11.5796471  54.8073006  47.5894213  10.6681538  55.0558329  47.4356556
  11.9840527  55.5941343  47.9549074  20.7443690  65.9297848  28.2076192
  20.1042295  65.2978563  27.8803301  20.8808923  66.5327597  27.4768543
  12.5642375  12.6533929  50.8105395  12.4810485  12.4524204  49.8783800
  13.2882145  12.1036808  51.1103914  74.3499660  63.3443403   1.0229539
  73.4167480  63.3867884   1.2315991  74.4974613  62.4332523   0.7691869
  90.0898455  64.5451133  50.5996916  90.3933381  64.8556631  51.4527342
  90.5218314  63.6986129  50.4854128  49.0917969  74.5928526  24.7045946
  48.6449337  74.1710424  23.9706874  49.9833250  74.7407818  24.3891191
  40.0861597  45.3805733  10.1299322  40.1415062  46.0629606   9.4609660
  40.9241152  44.9213600  10.0735390  16.1032656  25.5360357  67.8987137
  16.7688969  26.1598579  67.6088569  15.3369406  26.0760395  68.0920372
  81.1204262   7.3840849  40.4352114  81.2946052   8.2499353  40.0661585
  80.8401031   6.8568317  39.6871111  34.0114617  80.4274750   5.2506346
  34.2591739  79.9164867   6.0211951  33.2790279  79.9442816   4.8681426
  44.3709517  22.9568219  12.5118363  43.7317038  23.2036257  11.8434978
  43.9096212  23.0796599  13.3414841  17.0527819  15.6931488  58.4713528
  17.0856598  16.2284891  57.6785347  16.8972615  16.3203041  59.1775546
  36.3610469  69.4957988  56.8644044  36.8210833  69.8127382  56.0871360
  36.7582093  68.6442845  57.0472131  51.8144654  67.2538130  41.7436311
  52.2812365  67.0046752  42.5413081  52.2474788  68.0566900  41.4535997
  59.6868888  31.9485021  23.6482692  59.6691576  32.5633621  24.3816614
  59.3526307  32.4516582  22.9057479  25.1750878   3.8917581  68.4366689
  24.8552970   3.4085504  67.6747802  24.8203114   3.4164325  69.1879556
  43.9513731  54.8884964  16.4867914  43.7392759  53.9566422  16.4329612
  43.2757998  55.2553415  17.0571053  69.8052405  80.0347893  66.3553641
  70.6003998  80.3159277  66.8080393  69.1503380  80.6918280  66.5912328
  79.4328351  29.9914257  54.9826727  80.2008111  30.1149408  55.5405161
  79.0336783  30.8597700  54.9289474  38.8522506  67.8260040   1.3728055
  39.5806384  67.6018381   1.9519697  39.2210412  67.7695799   0.4913063
  37.4532580  35.7809567   8.7815046  38.0099010  35.1375008   9.2200750
  36.8343639  36.0613871   9.4557142  42.6645848   1.2025999   9.6229607
  42.6368150   1.7908548  10.3775561  43.0687555   0.4022001   9.9579793
  40.9333113  18.2185499  63.8545117  41.0148219  18.3810226  64.7942946
  40.2201060  17.5842611  63.7820766  44.9945305  70.9550326  37.3478219
  44.3787550  71.6457670  37.1030018  44.4869088  70.3698747  37.9100869
  74.0828942  63.0157917  65.4723809  73.1780814  62.9678814  65.7810012
  74.5552300  62.3856549  66.0164968   9.5394281  50.5915014  48.8544628
   9.7778920  50.9850446  49.6938059  10.3768471  50.4214040  48.4231589
  79.0028818  15.3783361  72.0050952  78.1360013  15.7231132  71.7908961
  79.5767147  15.7349102  71.3270084  22.6358485  56.4865398  15.1495445
  22.0738459  55.7310343  15.3215671  23.5190725  56.1796188  15.3543568
  43.2150804  83.2634561  71.2255255  42.7985560  82.4019473  71.2487272
  44.1534089  83.0753725  71.2056330  33.4596753  58.4290552   8.3517343
  34.1431260  58.2276011   8.9909077  33.0274010  59.2084360   8.7009192
  66.5861367  80.7468526  64.3174908  67.3134683  80.7024138  63.6968086
  66.6894053  81.5959852  64.7470746  35.7272315  65.8811235  19.5593333
  36.4326072  65.7874918  18.9190912  36.1601543  65.7882214  20.4079676
  53.5326193  78.4356658  70.6083435  54.0477370  79.1706364  70.9410641
  53.0026220  78.8130276  69.9062539  34.6363333   8.3128206  74.3072328
  34.8416594   8.3177940  73.3723272  35.4532555   8.0487339  74.7304655
  80.1970433  81.9091980  41.8843744  80.3886126  81.5570943  42.7536008
  80.5596970  82.7949088  41.8994782  43.9953136  73.5305214   5.5834317
  43.1496954  73.7386084   5.9807456  44.6017647  73.4822321   6.3224292
  64.8642246  54.0601206  20.3465223  64.9631850  54.8960114  20.8022881
  65.7298628  53.6549282  20.3986788  10.7074145   5.1922790  57.9630575
  10.2787140   4.3836776  57.6826701  10.1821498   5.8900920  57.5714121
  38.5071826  32.5609183   1.9610178  37.7038455  32.6611590   1.4503008
  39.0295410  31.9308782   1.4646068  90.0575108   2.9365484  52.5603745
  90.6911702   2.2454492  52.3677919  90.1021523   3.0444757  53.5104225
  62.4631786  56.6158676   9.5924193  62.4406672  55.8045721  10.0998890
  62.9417658  57.2320461  10.1469588  59.2749857  70.9600060  57.5408325
  58.3632730  70.6684463  57.5429461  59.7534631  70.2470558  57.1177540
  26.2524155  35.3011362  56.4884803  26.0202197  36.2195388  56.3511774
  26.5800837  35.2687160  57.3872659  90.7223033  72.0708625  57.3386452
  90.5355834  71.9465392  58.2691893  89.8838995  72.3342030  56.9592247
  10.0505427  22.1292535  70.8181289   9.1859630  22.5047247  70.6515289
  10.6407574  22.6264612  70.2518580  45.0715733  72.2261810  10.2059138
  45.7799625  71.7395973   9.7844303  45.4487801  72.5319815  11.0307980
  90.2181576  60.2647488  52.9600212  89.6377514  59.6377151  52.5285289
  91.0309886  60.2247672  52.4560950  45.7084321  60.9646802  70.5426050
  45.1687382  60.7026463  71.2884602  46.2447940  60.1949041  70.3528932
  47.2427987  69.0324872  66.4321873  47.4776851  69.9529760  66.3148913
  47.9820286  68.6555975  66.9093934  28.8199425  37.1132517  13.3498490
  29.0955067  37.3315167  14.2401624  27.9564857  36.7143655  13.4573841
  25.1903462  54.6621466  20.4183984  25.1317286  53.8326025  20.8923745
  25.6844354  55.2373695  21.0025477  83.5809083  16.0929243  40.5832598
  82.6955600  16.0855476  40.2194807  83.4501643  16.1151115  41.5312288
  74.0044233   9.4470572  13.3555925  73.6739704  10.2918219  13.0499852
  73.6748716   8.8154768  12.7162695  34.2205218  31.4782325  50.1951907
  34.9795273  32.0384876  50.3572295  34.3803719  30.6986276  50.7270667
  62.0646391   1.2451164  61.3488278  61.2928367   1.3859741  61.8971989
  61.7975863   1.5415470  60.4787443   7.0989684  19.4974176  64.4081399
   6.8741850  18.7475626  64.9589739   7.0997742  19.1482297  63.5169062
  16.0609130   7.1694175  62.5574610  15.7560519   7.4572078  61.6969559
  16.6174105   6.4126150  62.3736236  54.3356684  24.8094932  67.8570745
  54.2445544  24.1470663  68.5419980  54.8750475  25.4928342  68.2550011
  69.0478586  79.6855085  54.5228145  68.6354397  78.9663570  54.0443156
  69.0547727  79.3937700  55.4344461  29.1326502  -0.1065739  55.7952819
  28.3586815   0.1804868  55.3107200  29.7431592   0.6276027  55.7282171
  15.6799657  73.2231586  54.6809397  16.1110170  72.4603193  54.2955801
  15.1967389  72.8726523  55.4291842  83.7780617  72.7650611  67.8749910
  84.6878384  72.9295008  67.6270006  83.4471415  73.6194580  68.1519917
   4.0838105  71.4713829  35.6268022   3.3520419  71.6954820  35.0518868
   3.8966186  70.5782239  35.9156892  67.5904533   5.5988955  20.9289598
  68.0516883   6.3319658  21.3365221  67.6092001   5.7951235  19.9922776
  78.2128314  58.0289698   8.6480969  78.6667029  57.9930115   9.4900817
  78.8975278  58.2480001   8.0160779  14.1543365  21.6782808   3.9913049
  14.7882295  21.9139266   3.3138961  14.0993369  22.4547338   4.5483753
  50.6725168  68.2865572  17.0102835  50.0139284  67.6334286  16.7738152
  51.4602423  67.7757359  17.1967876  71.5601824  49.6943991  56.8951044
  70.9575127  49.5128285  56.1739573  72.2845267  49.0830605  56.7615971
  36.9864964  70.2199841  27.0419407  36.3546181  70.5500889  27.6806831
  36.7954946  70.7088041  26.2414384   2.1339682  15.4057590  59.5293031
   1.3513211  15.3822462  58.9787195   2.8334859  15.6865875  58.9393494
  85.6857343   0.7269661  63.3463273  85.9889169   0.2036230  62.6044223
  86.2147636   1.5238325  63.3094189  31.8890456   1.2714140  61.2248180
  32.0873765   1.6043178  62.1000728  31.1002186   0.7422296  61.3429031
  42.6969508  11.1355821  54.3686673  43.0419663  11.9871227  54.1002080
  41.7587117  11.1891595  54.1868040  77.6098604  34.4456188  69.0327141
  78.0095859  33.5809795  68.9386401  77.3844058  34.5055381  69.9610520
  47.9981264   8.6374163   4.7236329  48.8636466   8.5463976   4.3251085
  47.5576934   7.8095793   4.5314386  25.7632065  37.8759670  10.0588429
  26.6887856  37.8462863  10.3010261  25.6660151  38.7018847   9.5848745
  11.3112477  26.1654131  72.4010948  10.7216242  25.5695955  72.8632331
  11.0679082  26.0762970  71.4796418  33.5199147   6.0352205  32.0293641
  33.3074423   5.1412844  31.7611265  34.4154360   6.1716436  31.7200708
  19.7458199  12.9573385  61.6467676  19.6316985  13.7456409  62.1776018
  20.6314162  13.0338422  61.2916598  85.0876781   6.6603254   7.7707505
  85.9508487   7.0457624   7.6203924  84.6338579   6.7551588   6.9333225
  15.5359200  15.2602426  44.2920205  15.8189372  15.6469480  43.4634111
  15.5064705  15.9969513  44.9024532  35.3163600  48.8228798  23.8434172
  34.9979615  48.4972429  24.6853304  36.2572837  48.9417219  23.9729190
  54.0189503  80.4857128  39.7360179  53.7667297  79.7019665  40.2242396
  53.9033078  80.2431552  38.8173101  12.3303774   9.5855133  62.3447976
  12.5115326   8.9934246  61.6148362  12.9455975  10.3089325  62.2247658
  54.6325327  73.8372747  72.9157782  53.9995099  73.2514993  72.5005988
  54.8908378  74.4423143  72.2204814   4.1469339  21.2535230  50.0807354
   3.8183025  21.1673824  49.1858551   4.9763254  21.7221395  49.9872372
  30.4062152  56.1056900  17.7147865  29.9792671  55.2667809  17.8885090
  31.3178015  55.8773565  17.5328290  81.5911981  14.0552782  12.4297774
  81.1838409  13.4398340  13.0392992  81.3439533  13.7330317  11.5630257
  77.4592431  30.4139701  73.0913750  77.0578880  29.6328250  72.7106393
  77.0139284  30.5269710  73.9311109  15.9275941  12.8880111  69.7115890
  16.2499932  12.2370855  69.0882239  15.1726082  13.2835046  69.2759124
  80.7758902  83.1681840  74.4433511  81.0081290  82.8882115  73.5579625
  80.8188723  82.3678415  74.9666435  51.4550686  76.1892653  11.9266260
  51.4083099  77.1451426  11.9080794  50.7129812  75.9236574  12.4697578
  22.4624968  49.5293522   4.6867239  22.3965740  50.4783106   4.7933286
  23.4016442  49.3485737   4.7261369  87.0804928  83.2104747  24.2619393
  87.0293091  83.2139509  23.3061144  88.0091141  83.0765789  24.4515822
  22.4398545  16.9295065  55.6777081  23.2852915  16.6891376  56.0567794
  22.1884707  16.1700956  55.1520345  62.9647059   3.1370346  49.0091154
  63.5573448   3.1301633  48.2574746  62.7166666   4.0559999  49.1101572
  86.7603777  83.0294149  42.0212195  86.9638537  83.8052862  41.4988706
  86.1907528  82.5046389  41.4587567  20.7002694  78.6345403  50.4419873
  20.7977731  79.5709531  50.2691934  19.8689801  78.5628288  50.9110782
  42.2114754  72.3703051  19.8497629  41.9728231  71.7311192  20.5211186
  42.2710180  71.8590784  19.0427101  56.0714865  58.9897394  24.6346188
  56.5364122  59.0043163  23.7980390  56.6401863  58.4848595  25.2159166
  61.6038609  59.9458218   4.7860405  61.7969894  59.7144365   5.6945533
  61.4262724  60.8860731   4.8109105  63.3284950  85.3409290   2.0878232
  63.7717152  86.1722279   2.2573189  62.4689150  85.4399776   2.4971475
  29.5471982  32.1451894  56.9428775  30.3413466  32.4955265  56.5393648
  29.3089274  31.3983194  56.3936553   7.6202062  31.2579242  68.1568972
   8.1522254  31.7653266  68.7698660   6.8279604  31.7815773  68.0370340
  90.1846690  34.2298929  56.7776511  90.3873177  35.1210062  56.4928994
  89.4511385  34.3331472  57.3838720  17.1805799  31.1965799  23.6436582
  17.0442963  30.2495432  23.6157846  16.7810583  31.4718699  24.4687843
  16.6718769  47.6322508   2.5316834  17.1425486  46.9122505   2.1118003
  17.0065904  47.6465702   3.4283400  77.9002331  76.7739623  69.0606520
  77.1999310  77.0147269  69.6671507  77.8092526  75.8271449  68.9534536
  80.8233307  81.2478321  61.7957578  81.0421799  80.6815116  61.0557458
  80.5026339  82.0548456  61.3931260  45.2986240  48.3695841  17.8293526
  45.4173040  48.9535666  18.5784280  45.7897758  48.7857962  17.1209967
  19.5994627  51.7322445   4.5459378  20.3269958  51.9718504   5.1199710
  19.9621487  51.7916107   3.6621016  82.8360815  23.3832304  48.7275526
  82.9174895  23.5359804  47.7861330  82.1681971  24.0060369  49.0143797
  13.2807950   4.4829790  73.1516892  12.9845122   4.5327226  74.0605195
  14.1825846   4.1674987  73.2106877  90.2428861  22.3440162  59.0262232
  90.3584428  23.2822267  59.1766891  89.5503373  22.0873109  59.6350834
  41.4915371  76.6314220  20.8667088  40.8991909  76.0575390  21.3525295
  42.3552132  76.4554358  21.2399745  68.6270046  75.5980396  51.5860224
  67.8755522  75.0984430  51.9053221  69.3480539  74.9685287  51.5799904
  22.5657940  63.9153433  22.2652912  23.4059858  63.5035992  22.4672246
  22.5920820  64.0620708  21.3197684  41.5475941  53.0838394  11.4133775
  41.0443211  53.8672400  11.6352665  40.8861923  52.4321938  11.1807048
  89.0465927  42.6346779   8.5191762  88.7295628  42.6050138   7.6164889
  89.1640472  41.7162895   8.7620789  38.5836577  83.6947060  22.5945520
  38.2883430  84.4073868  23.1612229  39.5239568  83.6299133  22.7614951
  16.5806035   2.9045288  57.2613523  16.2737301   3.5678712  56.6432640
  15.9622220   2.1806184  57.1623764  18.5508573  71.3255453  50.3610897
  19.2548227  70.8299589  50.7794905  18.0408287  70.6663179  49.8904324
  29.5753217  70.2623987  34.7088838  29.8999166  69.9083328  35.5368400
  28.9062190  69.6384287  34.4274688  29.6253371  65.8975601   4.3292993
  29.5156550  65.4528284   3.4888136  30.3740430  65.4608440   4.7354457
  23.1858587  61.0743189  31.4668202  22.3258281  61.4098644  31.2138557
  23.7563896  61.2993622  30.7319164  19.5150975  25.0515119  58.0542562
  18.9344147  25.6318704  57.5620947  20.3924731  25.2650205  57.7366743
  18.1728724  49.4841138  62.1406123  18.6836032  48.9213411  61.5586505
  17.2681693  49.3724004  61.8486128  74.4100019   4.6985315  23.0297589
  73.9886209   3.9762377  22.5639796  74.2441245   4.5162653  23.9546895
  79.6268559  78.7766647   1.2421826  79.8285484  78.1702280   1.9547749
  79.3836355  79.5910883   1.6823949  37.5858172   1.8028139   2.6435852
  38.2841178   2.4465727   2.5245202  37.9623815   0.9803366   2.3305964
  30.9268117  75.0581598  27.5996518  31.7069030  75.6064034  27.5152659
  30.6809402  75.1317739  28.5218000  77.7659369  68.1278658  15.9589052
  77.0366335  68.6467409  16.2981999  77.6859426  67.2834778  16.4025736
  68.7863684  48.3838081   2.0774715  68.6025858  48.0838156   2.9676741
  68.0029202  48.8710165   1.8223783  27.5273275  56.0364914   6.2769258
  28.4294462  56.3368940   6.3872421  27.1531153  56.0738420   7.1571541
  48.2837772   3.5107914  73.3809250  48.5242319   3.1548420  74.2363285
  47.3549080   3.2998958  73.2862633  47.5464045  61.5861266  56.6726205
  47.7612160  61.0942285  57.4651644  48.1533371  62.3262839  56.6782293
  87.3537106  16.1814014  71.6598100  87.1506782  15.2903644  71.3750947
  86.6970177  16.3745348  72.3289034  61.3312987  18.0777256  52.0394132
  62.1235350  18.5497276  51.7828724  60.6330565  18.4855835  51.5272138
  25.9784412  64.8521805   0.2398057  25.9834123  65.1354027  -0.6745197
  26.6718268  65.3662395   0.6535563  60.2195333  57.9661660  71.3853997
  60.1825117  57.6169817  72.2758672  60.2726553  57.1911018  70.8262173
  26.1253762  30.5924439   8.3943421  26.9700098  30.8643341   8.7533718
  26.3173366  30.3486109   7.4888438  16.8744591  32.8886310  58.9043460
  16.7727498  32.0181982  59.2893550  15.9804038  33.2209722  58.8240549
  70.6238521  21.2843219  55.8521650  70.2647657  21.0765211  56.7147825
  71.1104782  22.0978347  55.9849319  24.6219230  66.2676907  12.5988746
  24.8374391  65.4568768  12.1380460  25.4598737  66.5782547  12.9418314
  61.1600590  44.5384169   1.4976291  61.6992235  44.9802351   2.1536195
  60.2593994  44.7196913   1.7663120   1.1035118  50.4524660  19.7214484
   1.5095825  50.3675604  20.5840778   1.0416179  49.5542717  19.3964076
  46.9712687  79.3961954  22.4510837  47.6290035  78.7311029  22.6542330
  47.4306011  80.2287483  22.5610781  70.4575109  48.0294085  18.1213665
  69.8398161  47.5394440  17.5785840  69.9056911  48.5060024  18.7415159
  84.5815868  15.2620880  61.9229457  83.9081163  15.5626766  61.3127658
  85.2182741  14.8070375  61.3717768  41.9468192   4.3599693  50.7718036
  42.6321248   4.8484651  50.3157708  42.1955613   3.4418623  50.6648633
  91.1715452  91.1715452  91.1715452 109.4712190 109.4712190 109.4712190
